 vasp.6.2.1 16May21 (build Nov 15 2021 14:57:28) complex                         
 executed on             LinuxPGI date 2023.07.30  12:22:37
 running on    4 total cores
 distrk:  each k-point on    4 cores,    1 groups
 distr:  one band on NCORE=   1 cores,    4 groups


--------------------------------------------------------------------------------------------------------


 INCAR:
   SYSTEM = PSC
   ISTART = 1
   ICHARG = 1
   PREC = Normal
   ENCUT = 500
   GGA_COMPAT = F
   NELM = 600
   ISYM = 0
   LREAL = Auto
   ISMEAR = 0
   SIGMA = 0.05
   AMIN = 0.01
   BMIX = 0.01
   LVTOT = T
   LWAVE = F
   LDIPOL = T
   IDIPOL = 3
   LVDW = T
   IVDW = 12

 POTCAR:    PAW_PBE H 15Jun2001                   
 POTCAR:    PAW_PBE C 08Apr2002                   
 POTCAR:    PAW_PBE N 08Apr2002                   
 POTCAR:    PAW_PBE I 08Apr2002                   
 POTCAR:    PAW_PBE Pb 08Apr2002                  
 WARNING: For LVTOT=.TRUE., VASP.5.x writes the TOTAL local potential to the
     file LOCPOT. If you want only the Hartree contributions, use LVHAR=.TRUE.
     instead. 

 POTCAR:    PAW_PBE H 15Jun2001                   
   SHA256 =  030f79b5d3ab3cf0e668861823c8fb652ff669f3e15e46930bd03bfd63a607b6 H/POTCAR              
   COPYR  = (c) Copyright 15Jun2001 Georg Kresse                                                    
   COPYR  = This file is part of the software VASP. Any use, copying, and all other rights are regul
   COPYR  = If you do not have a valid VASP license, you may not use, copy or distribute this file. 
   VRHFIN =H: ultrasoft test                                                                        
   LEXCH  = PE                                                                                      
   EATOM  =    12.4884 eV,    0.9179 Ry                                                             
                                                                                                    
   TITEL  = PAW_PBE H 15Jun2001                                                                     
   LULTRA =        F    use ultrasoft PP ?                                                          
   IUNSCR =        0    unscreen: 0-lin 1-nonlin 2-no                                               
   RPACOR =    0.000    partial core radius                                                         
   POMASS =    1.000; ZVAL   =    1.000    mass and valenz                                          
   RCORE  =    1.100    outmost cutoff radius                                                       
   RWIGS  =    0.700; RWIGS  =    0.370    wigner-seitz radius (au A)                               
   ENMAX  =  250.000; ENMIN  =  200.000 eV                                                          
   RCLOC  =    0.701    cutoff for local pot                                                        
   LCOR   =        T    correct aug charges                                                         
   LPAW   =        T    paw PP                                                                      
   EAUG   =  400.000                                                                                
   RMAX   =    1.123    core radius for proj-oper                                                   
   RAUG   =    1.200    factor for augmentation sphere                                              
   RDEP   =    1.112    radius for radial grids                                                     
   RDEPT  =    0.926    core radius for aug-charge                                                  
                                                                                                    
   Atomic configuration                                                                             
    2 entries                                                                                       
     n  l   j            E        occ.                                                              
     1  0  0.50        -6.4927   1.0000                                                             
     2  1  0.50        -3.4015   0.0000                                                             
   Description                                                                                      
     l       E           TYP  RCUT    TYP  RCUT                                                     
     0     -6.4927494     23  1.100                                                                 
     0      6.8029130     23  1.100                                                                 
     1     -4.0817478     23  1.100                                                                 
  local pseudopotential read in
  atomic valenz-charges read in
  non local Contribution for L=            0  read in
    real space projection operators read in
  non local Contribution for L=            0  read in
    real space projection operators read in
  non local Contribution for L=            1  read in
    real space projection operators read in
    PAW grid and wavefunctions read in
 
   number of l-projection  operators is LMAX  =            3
   number of lm-projection operators is LMMAX =            5
 
 POTCAR:    PAW_PBE C 08Apr2002                   
   SHA256 =  253f7b50bb8d59471dbedb8285d89021f4a42ed1a2c5d38a03a736e69125dd95 C/POTCAR              
   COPYR  = (c) Copyright 08Apr2002 Georg Kresse                                                    
   COPYR  = This file is part of the software VASP. Any use, copying, and all other rights are regul
   COPYR  = If you do not have a valid VASP license, you may not use, copy or distribute this file. 
   VRHFIN =C: s2p2                                                                                  
   LEXCH  = PE                                                                                      
   EATOM  =   147.1560 eV,   10.8157 Ry                                                             
                                                                                                    
   TITEL  = PAW_PBE C 08Apr2002                                                                     
   LULTRA =        F    use ultrasoft PP ?                                                          
   IUNSCR =        1    unscreen: 0-lin 1-nonlin 2-no                                               
   RPACOR =    1.200    partial core radius                                                         
   POMASS =   12.011; ZVAL   =    4.000    mass and valenz                                          
   RCORE  =    1.500    outmost cutoff radius                                                       
   RWIGS  =    1.630; RWIGS  =    0.863    wigner-seitz radius (au A)                               
   ENMAX  =  400.000; ENMIN  =  300.000 eV                                                          
   ICORE  =        2    local potential                                                             
   LCOR   =        T    correct aug charges                                                         
   LPAW   =        T    paw PP                                                                      
   EAUG   =  644.873                                                                                
   DEXC   =    0.000                                                                                
   RMAX   =    1.529    core radius for proj-oper                                                   
   RAUG   =    1.300    factor for augmentation sphere                                              
   RDEP   =    1.501    radius for radial grids                                                     
   RDEPT  =    1.300    core radius for aug-charge                                                  
                                                                                                    
   Atomic configuration                                                                             
    4 entries                                                                                       
     n  l   j            E        occ.                                                              
     1  0  0.50      -273.3789   2.0000                                                             
     2  0  0.50       -13.7508   2.0000                                                             
     2  1  0.50        -5.2854   2.0000                                                             
     3  2  1.50        -5.4423   0.0000                                                             
   Description                                                                                      
     l       E           TYP  RCUT    TYP  RCUT                                                     
     0    -13.7508458     23  1.200                                                                 
     0     -8.2022199     23  1.200                                                                 
     1     -5.2854383     23  1.500                                                                 
     1     34.0145650     23  1.500                                                                 
     2     -5.4423304      7  1.500                                                                 
  local pseudopotential read in
  partial core-charges read in
  partial kinetic energy density read in
  atomic valenz-charges read in
  non local Contribution for L=            0  read in
    real space projection operators read in
  non local Contribution for L=            0  read in
    real space projection operators read in
  non local Contribution for L=            1  read in
    real space projection operators read in
  non local Contribution for L=            1  read in
    real space projection operators read in
    PAW grid and wavefunctions read in
 
   number of l-projection  operators is LMAX  =            4
   number of lm-projection operators is LMMAX =            8
 
 POTCAR:    PAW_PBE N 08Apr2002                   
   SHA256 =  e053789ff3a61a86a1b75d8a110fcc91f86041011e7b0817c7c99e4e8a6349d7 N/POTCAR              
   COPYR  = (c) Copyright 08Apr2002 Georg Kresse                                                    
   COPYR  = This file is part of the software VASP. Any use, copying, and all other rights are regul
   COPYR  = If you do not have a valid VASP license, you may not use, copy or distribute this file. 
   VRHFIN =N: s2p3                                                                                  
   LEXCH  = PE                                                                                      
   EATOM  =   264.5486 eV,   19.4438 Ry                                                             
                                                                                                    
   TITEL  = PAW_PBE N 08Apr2002                                                                     
   LULTRA =        F    use ultrasoft PP ?                                                          
   IUNSCR =        1    unscreen: 0-lin 1-nonlin 2-no                                               
   RPACOR =    1.200    partial core radius                                                         
   POMASS =   14.001; ZVAL   =    5.000    mass and valenz                                          
   RCORE  =    1.500    outmost cutoff radius                                                       
   RWIGS  =    1.400; RWIGS  =    0.741    wigner-seitz radius (au A)                               
   ENMAX  =  400.000; ENMIN  =  300.000 eV                                                          
   ICORE  =        2    local potential                                                             
   LCOR   =        T    correct aug charges                                                         
   LPAW   =        T    paw PP                                                                      
   EAUG   =  627.112                                                                                
   DEXC   =    0.000                                                                                
   RMAX   =    1.529    core radius for proj-oper                                                   
   RAUG   =    1.300    factor for augmentation sphere                                              
   RDEP   =    1.514    radius for radial grids                                                     
   RDEPT  =    1.338    core radius for aug-charge                                                  
                                                                                                    
   Atomic configuration                                                                             
    4 entries                                                                                       
     n  l   j            E        occ.                                                              
     1  0  0.50      -384.7179   2.0000                                                             
     2  0  0.50       -18.5828   2.0000                                                             
     2  1  0.50        -7.0898   3.0000                                                             
     3  2  1.50        -6.8029   0.0000                                                             
   Description                                                                                      
     l       E           TYP  RCUT    TYP  RCUT                                                     
     0    -18.5828119     23  1.200                                                                 
     0    -13.5018863     23  1.200                                                                 
     1     -7.0897853     23  1.500                                                                 
     1      9.5240782     23  1.500                                                                 
     2     -6.8029130      7  1.500                                                                 
  local pseudopotential read in
  partial core-charges read in
  partial kinetic energy density read in
  atomic valenz-charges read in
  non local Contribution for L=            0  read in
    real space projection operators read in
  non local Contribution for L=            0  read in
    real space projection operators read in
  non local Contribution for L=            1  read in
    real space projection operators read in
  non local Contribution for L=            1  read in
    real space projection operators read in
    PAW grid and wavefunctions read in
 
   number of l-projection  operators is LMAX  =            4
   number of lm-projection operators is LMMAX =            8
 
 POTCAR:    PAW_PBE I 08Apr2002                   
   SHA256 =  e40f3f59b681c1fc3e3091736183c4589116986673d2b852a5012aec72758799 I/POTCAR              
   COPYR  = (c) Copyright 08Apr2002 Georg Kresse                                                    
   COPYR  = This file is part of the software VASP. Any use, copying, and all other rights are regul
   COPYR  = If you do not have a valid VASP license, you may not use, copy or distribute this file. 
   VRHFIN =I : s2p5                                                                                 
   LEXCH  = PE                                                                                      
   EATOM  =   315.8678 eV,   23.2156 Ry                                                             
                                                                                                    
   TITEL  = PAW_PBE I 08Apr2002                                                                     
   LULTRA =        F    use ultrasoft PP ?                                                          
   IUNSCR =        1    unscreen: 0-lin 1-nonlin 2-no                                               
   RPACOR =    2.200    partial core radius                                                         
   POMASS =  126.904; ZVAL   =    7.000    mass and valenz                                          
   RCORE  =    2.300    outmost cutoff radius                                                       
   RWIGS  =    2.810; RWIGS  =    1.487    wigner-seitz radius (au A)                               
   ENMAX  =  175.647; ENMIN  =  131.735 eV                                                          
   ICORE  =        3    local potential                                                             
   LCOR   =        T    correct aug charges                                                         
   LPAW   =        T    paw PP                                                                      
   EAUG   =  370.139                                                                                
   DEXC   =    0.000                                                                                
   RMAX   =    2.359    core radius for proj-oper                                                   
   RAUG   =    1.300    factor for augmentation sphere                                              
   RDEP   =    2.392    radius for radial grids                                                     
   RDEPT  =    2.170    core radius for aug-charge                                                  
                                                                                                    
   Atomic configuration                                                                             
   13 entries                                                                                       
     n  l   j            E        occ.                                                              
     1  0  0.50    -32976.3739   2.0000                                                             
     2  0  0.50     -5094.5933   2.0000                                                             
     2  1  1.50     -4572.0131   6.0000                                                             
     3  0  0.50     -1028.2813   2.0000                                                             
     3  1  1.50      -859.0250   6.0000                                                             
     3  2  2.50      -605.7620  10.0000                                                             
     4  0  0.50      -180.5540   2.0000                                                             
     4  1  1.50      -127.5306   6.0000                                                             
     4  2  2.50       -50.2720  10.0000                                                             
     5  0  0.50       -17.4058   2.0000                                                             
     5  1  0.50        -7.0851   5.0000                                                             
     5  2  1.50        -7.0750   0.0000                                                             
     4  3  2.50        -7.0750   0.0000                                                             
   Description                                                                                      
     l       E           TYP  RCUT    TYP  RCUT                                                     
     0    -17.4058016     23  2.300                                                                 
     0    -18.7663842     23  2.300                                                                 
     1     -7.0850686     23  2.300                                                                 
     1     -4.2150896     23  2.300                                                                 
     2     -7.0750295     23  2.300                                                                 
     3     -1.3605826     23  2.300                                                                 
  local pseudopotential read in
  partial core-charges read in
  partial kinetic energy density read in
  atomic valenz-charges read in
  non local Contribution for L=            0  read in
    real space projection operators read in
  non local Contribution for L=            0  read in
    real space projection operators read in
  non local Contribution for L=            1  read in
    real space projection operators read in
  non local Contribution for L=            1  read in
    real space projection operators read in
  non local Contribution for L=            2  read in
    real space projection operators read in
    PAW grid and wavefunctions read in
 
   number of l-projection  operators is LMAX  =            5
   number of lm-projection operators is LMMAX =           13
 
 POTCAR:    PAW_PBE Pb 08Apr2002                  
   SHA256 =  797118a27cf1bcd06b9881c67a26cdde129e3cd1a551dd4a281f9681ce847303 Pb/POTCAR             
   COPYR  = (c) Copyright 08Apr2002 Georg Kresse                                                    
   COPYR  = This file is part of the software VASP. Any use, copying, and all other rights are regul
   COPYR  = If you do not have a valid VASP license, you may not use, copy or distribute this file. 
   VRHFIN =Pb:                                                                                      
   LEXCH  = PE                                                                                      
   EATOM  =    96.9868 eV,    7.1283 Ry                                                             
                                                                                                    
   TITEL  = PAW_PBE Pb 08Apr2002                                                                    
   LULTRA =        F    use ultrasoft PP ?                                                          
   IUNSCR =        1    unscreen: 0-lin 1-nonlin 2-no                                               
   RPACOR =    2.200    partial core radius                                                         
   POMASS =  207.200; ZVAL   =    4.000    mass and valenz                                          
   RCORE  =    3.100    outmost cutoff radius                                                       
   RWIGS  =    3.260; RWIGS  =    1.725    wigner-seitz radius (au A)                               
   ENMAX  =   97.973; ENMIN  =   73.480 eV                                                          
   ICORE  =        3    local potential                                                             
   LCOR   =        T    correct aug charges                                                         
   LPAW   =        T    paw PP                                                                      
   EAUG   =  234.873                                                                                
   DEXC   =    0.000                                                                                
   RMAX   =    3.158    core radius for proj-oper                                                   
   RAUG   =    1.300    factor for augmentation sphere                                              
   RDEP   =    3.202    radius for radial grids                                                     
   RDEPT  =    2.659    core radius for aug-charge                                                  
                                                                                                    
   Atomic configuration                                                                             
   17 entries                                                                                       
     n  l   j            E        occ.                                                              
     1  0  0.50    -88091.8466   2.0000                                                             
     2  0  0.50    -15753.4197   2.0000                                                             
     2  1  1.50    -13508.1797   6.0000                                                             
     3  0  0.50     -3781.7194   2.0000                                                             
     3  1  1.50     -3138.2529   6.0000                                                             
     3  2  2.50     -2483.2977  10.0000                                                             
     4  0  0.50      -856.2895   2.0000                                                             
     4  1  1.50      -645.4943   6.0000                                                             
     4  2  2.50      -401.8768  10.0000                                                             
     4  3  3.50      -132.9059  14.0000                                                             
     5  0  0.50      -144.0950   2.0000                                                             
     5  1  1.50       -85.7879   6.0000                                                             
     5  2  2.50       -21.1769  10.0000                                                             
     6  0  0.50       -12.0372   2.0000                                                             
     6  1  1.50        -3.4971   2.0000                                                             
     6  2  2.50        -1.3606   0.0000                                                             
     5  3  2.50        -2.7212   0.0000                                                             
   Description                                                                                      
     l       E           TYP  RCUT    TYP  RCUT                                                     
     0    -12.0371566     23  3.100                                                                 
     0    -13.3977392     23  3.100                                                                 
     1     -3.4971341     23  3.100                                                                 
     1     -5.4423304     23  3.100                                                                 
     2     -1.3605826     23  3.100                                                                 
     3     -1.3605826     23  3.100                                                                 
  local pseudopotential read in
  partial core-charges read in
  partial kinetic energy density read in
  atomic valenz-charges read in
  non local Contribution for L=            0  read in
    real space projection operators read in
  non local Contribution for L=            0  read in
    real space projection operators read in
  non local Contribution for L=            1  read in
    real space projection operators read in
  non local Contribution for L=            1  read in
    real space projection operators read in
  non local Contribution for L=            2  read in
    real space projection operators read in
    PAW grid and wavefunctions read in
 
   number of l-projection  operators is LMAX  =            5
   number of lm-projection operators is LMMAX =           13
 
 Optimization of the real space projectors (new method)

 maximal supplied QI-value         = 34.20
 optimisation between [QCUT,QGAM] = [ 11.29, 22.57] = [ 35.68,142.71] Ry 
 Optimized for a Real-space Cutoff    1.16 Angstroem

   l    n(q)    QCUT    max X(q) W(low)/X(q) W(high)/X(q)  e(spline) 
   0      8    11.287    19.460    0.40E-03    0.73E-03    0.16E-06
   0      8    11.287    12.209    0.38E-03    0.70E-03    0.15E-06
   1      7    11.287     4.655    0.22E-03    0.25E-04    0.22E-06
 Optimization of the real space projectors (new method)

 maximal supplied QI-value         = 25.13
 optimisation between [QCUT,QGAM] = [ 11.31, 22.87] = [ 35.82,146.48] Ry 
 Optimized for a Real-space Cutoff    1.00 Angstroem

   l    n(q)    QCUT    max X(q) W(low)/X(q) W(high)/X(q)  e(spline) 
   0      7    11.310   115.676    0.43E-03    0.13E-02    0.19E-06
   0      7    11.310    87.132    0.43E-03    0.13E-02    0.18E-06
   1      6    11.310     4.429    0.42E-03    0.74E-03    0.11E-06
   1      6    11.310     2.733    0.34E-03    0.55E-03    0.92E-07
 Optimization of the real space projectors (new method)

 maximal supplied QI-value         = 25.13
 optimisation between [QCUT,QGAM] = [ 11.31, 22.87] = [ 35.82,146.48] Ry 
 Optimized for a Real-space Cutoff    1.27 Angstroem

   l    n(q)    QCUT    max X(q) W(low)/X(q) W(high)/X(q)  e(spline) 
   0      9    11.310    79.467    0.75E-04    0.16E-03    0.36E-06
   0      9    11.310    66.151    0.74E-04    0.16E-03    0.36E-06
   1      8    11.310    17.416    0.35E-03    0.12E-03    0.95E-06
   1      8    11.310    12.382    0.37E-03    0.13E-03    0.98E-06
 Optimization of the real space projectors (new method)

 maximal supplied QI-value         = 16.25
 optimisation between [QCUT,QGAM] = [ 11.38, 22.75] = [ 36.24,144.96] Ry 
 Optimized for a Real-space Cutoff    1.31 Angstroem

   l    n(q)    QCUT    max X(q) W(low)/X(q) W(high)/X(q)  e(spline) 
   0      9    11.376   194.483    0.24E-03    0.23E-03    0.67E-07
   0      9    11.376   190.334    0.23E-03    0.22E-03    0.65E-07
   1      8    11.376   116.687    0.25E-03    0.63E-04    0.16E-06
   1      8    11.376    88.696    0.25E-03    0.61E-04    0.16E-06
   2      8    11.376     4.877    0.17E-03    0.14E-03    0.29E-07
 Optimization of the real space projectors (new method)

 maximal supplied QI-value         = 12.09
 optimisation between [QCUT,QGAM] = [ 11.37, 22.86] = [ 36.19,146.31] Ry 
 Optimized for a Real-space Cutoff    1.66 Angstroem

   l    n(q)    QCUT    max X(q) W(low)/X(q) W(high)/X(q)  e(spline) 
   0     11    11.369   135.111    0.12E-03    0.69E-04    0.19E-05
   0     11    11.369   146.850    0.11E-03    0.65E-04    0.18E-05
   1     11    11.369   148.016    0.17E-03    0.32E-03    0.89E-06
   1     11    11.369   122.989    0.17E-03    0.32E-03    0.91E-06
   2     10    11.369     8.916    0.12E-03    0.45E-04    0.33E-06
  PAW_PBE H 15Jun2001                   :
 energy of atom  1       EATOM=  -12.4884
 kinetic energy error for atom=    0.0020 (will be added to EATOM!!)
  PAW_PBE C 08Apr2002                   :
 energy of atom  2       EATOM= -147.1560
 kinetic energy error for atom=    0.0076 (will be added to EATOM!!)
  PAW_PBE N 08Apr2002                   :
 energy of atom  3       EATOM= -264.5486
 kinetic energy error for atom=    0.0138 (will be added to EATOM!!)
  PAW_PBE I 08Apr2002                   :
 energy of atom  4       EATOM= -315.8678
 kinetic energy error for atom=    0.0009 (will be added to EATOM!!)
  PAW_PBE Pb 08Apr2002                  :
 energy of atom  5       EATOM=  -96.9868
 kinetic energy error for atom=    0.0000 (will be added to EATOM!!)
 
 
 POSCAR:  H  C  N  I Pb
  positions in cartesian coordinates
  No initial velocities read in
 exchange correlation table for  LEXCH =        8
   RHO(1)=    0.500       N(1)  =     2000
   RHO(2)=  100.500       N(2)  =     4000
 


--------------------------------------------------------------------------------------------------------


 ion  position               nearest neighbor table
   1  0.419  0.260  0.573- 187 1.02
   2  0.410  0.716  0.574- 188 1.02
   3  0.921  0.280  0.581- 189 1.03
   4  0.937  0.814  0.575- 190 1.02
   5  0.320  0.081  0.571- 194 1.04
   6  0.312  0.580  0.571- 195 1.04
   7  0.799  0.084  0.575- 196 1.04
   8  0.108  0.235  0.565- 183 1.02
   9  0.082  0.676  0.569- 184 1.02
  10  0.606  0.197  0.566- 185 1.03
  11  0.601  0.737  0.560- 186 1.03
  12  0.377  0.015  0.558- 194 1.03
  13  0.252  0.622  0.553- 195 1.02
  14  0.872  0.035  0.563- 196 1.03
  15  0.060  0.283  0.584- 183 1.03
  16  0.998  0.691  0.582- 184 1.03
  17  0.521  0.172  0.577- 185 1.01
  18  0.544  0.685  0.577- 186 1.01
  19  0.298  0.444  0.577- 191 1.04
  20  0.183  0.056  0.571- 192 1.04
  21  0.674  0.026  0.573- 193 1.04
  22  0.441  0.346  0.561- 187 1.03
  23  0.383  0.787  0.557- 188 1.02
  24  0.883  0.228  0.561- 189 1.02
  25  0.984  0.873  0.558- 190 1.03
  26  0.226  0.401  0.563- 191 1.01
  27  0.154  0.981  0.555- 192 1.02
  28  0.672  0.937  0.560- 193 1.03
  29  0.560  0.309  0.553- 146 1.09
  30  0.507  0.808  0.546- 147 1.09
  31  0.001  0.194  0.547- 144 1.10
  32  0.080  0.790  0.552- 145 1.11
  33  0.187  0.510  0.547- 148 1.10
  34  0.275  0.944  0.547- 149 1.09
  35  0.796  0.937  0.553- 150 1.09
  36  0.452  0.285  0.676- 205 1.00
  37  0.432  0.819  0.671- 206 1.02
  38  0.969  0.279  0.680- 207 1.02
  39  0.925  0.761  0.672- 208 1.02
  40  0.298  0.047  0.674- 209 1.02
  41  0.312  0.552  0.673- 210 1.01
  42  0.794  0.060  0.675- 211 1.01
  43  0.818  0.530  0.674- 212 1.02
  44  0.087  0.166  0.646- 197 1.03
  45  0.100  0.688  0.652- 198 1.03
  46  0.578  0.173  0.644- 199 1.03
  47  0.566  0.676  0.656- 200 1.03
  48  0.181  0.411  0.654- 201 1.03
  49  0.164  0.924  0.648- 202 1.03
  50  0.654  0.446  0.650- 203 1.00
  51  0.672  0.919  0.652- 204 1.03
  52  0.069  0.182  0.673- 197 1.02
  53  0.030  0.667  0.670- 198 1.01
  54  0.545  0.180  0.670- 199 1.02
  55  0.527  0.717  0.679- 200 1.01
  56  0.220  0.444  0.678- 201 1.01
  57  0.188  0.954  0.674- 202 1.02
  58  0.706  0.444  0.673- 203 1.03
  59  0.697  0.955  0.677- 204 1.01
  60  0.434  0.341  0.654- 205 1.02
  61  0.416  0.836  0.644- 206 1.03
  62  0.930  0.319  0.658- 207 1.02
  63  0.933  0.837  0.655- 208 1.02
  64  0.337  0.064  0.650- 209 1.03
  65  0.321  0.583  0.646- 210 1.03
  66  0.826  0.081  0.649- 211 1.03
  67  0.832  0.581  0.651- 212 1.01
  68  0.000  0.253  0.635- 151 1.09
  69  0.043  0.795  0.640- 152 1.10
  70  0.513  0.275  0.632- 153 1.11
  71  0.499  0.748  0.632- 154 1.11
  72  0.256  0.988  0.631- 156 1.10
  73  0.240  0.495  0.633- 155 1.10
  74  0.752  0.994  0.633- 158 1.10
  75  0.728  0.534  0.634- 157 1.08
  76  0.449  0.301  0.769- 221 1.02
  77  0.449  0.801  0.769- 222 1.02
  78  0.949  0.301  0.769- 223 1.02
  79  0.949  0.801  0.769- 224 1.02
  80  0.301  0.051  0.769- 225 1.02
  81  0.301  0.551  0.769- 226 1.02
  82  0.801  0.051  0.769- 227 1.02
  83  0.801  0.551  0.769- 228 1.02
  84  0.079  0.171  0.743- 213 1.02
  85  0.079  0.671  0.743- 214 1.02
  86  0.579  0.171  0.743- 215 1.02
  87  0.579  0.671  0.743- 216 1.02
  88  0.171  0.421  0.743- 217 1.02
  89  0.171  0.921  0.743- 218 1.02
  90  0.671  0.421  0.743- 219 1.02
  91  0.671  0.921  0.743- 220 1.02
  92  0.051  0.199  0.769- 213 1.02
  93  0.051  0.699  0.769- 214 1.02
  94  0.551  0.199  0.769- 215 1.02
  95  0.551  0.699  0.769- 216 1.02
  96  0.199  0.449  0.769- 217 1.02
  97  0.199  0.949  0.769- 218 1.02
  98  0.699  0.449  0.769- 219 1.02
  99  0.699  0.949  0.769- 220 1.02
 100  0.421  0.329  0.743- 221 1.02
 101  0.421  0.829  0.743- 222 1.02
 102  0.921  0.329  0.743- 223 1.02
 103  0.921  0.829  0.743- 224 1.02
 104  0.329  0.079  0.743- 225 1.02
 105  0.329  0.579  0.743- 226 1.02
 106  0.829  0.079  0.743- 227 1.02
 107  0.829  0.579  0.743- 228 1.02
 108  0.000  0.250  0.726- 161 1.09
 109  0.000  0.750  0.726- 162 1.09
 110  0.500  0.250  0.726- 159 1.09
 111  0.500  0.750  0.726- 160 1.09
 112  0.250  0.000  0.726- 163 1.09
 113  0.250  0.500  0.726- 164 1.09
 114  0.750  0.000  0.726- 165 1.09
 115  0.750  0.500  0.726- 166 1.09
 116  0.796  0.511  0.516- 173 1.09
 117  0.876  0.503  0.533- 173 1.10
 118  0.759  0.628  0.535- 174 1.10
 119  0.768  0.627  0.563- 174 1.10
 120  0.684  0.452  0.553- 175 1.11
 121  0.671  0.545  0.561- 175 1.10
 122  0.800  0.428  0.569- 176 1.10
 123  0.867  0.501  0.570- 176 1.10
 124  0.861  0.378  0.540- 177 1.10
 125  0.764  0.376  0.535- 177 1.11
 126  0.778  0.381  0.497- 178 1.10
 127  0.869  0.412  0.498- 178 1.08
 128  0.898  0.616  0.531- 179 1.09
 129  0.908  0.608  0.559- 179 1.10
 130  0.873  0.691  0.548- 179 1.10
 131  0.598  0.519  0.529- 180 1.11
 132  0.676  0.488  0.514- 180 1.10
 133  0.667  0.584  0.521- 180 1.11
 134  0.716  0.496  0.593- 181 1.08
 135  0.773  0.577  0.592- 181 1.10
 136  0.805  0.496  0.604- 181 1.10
 137  0.825  0.259  0.514- 182 1.11
 138  0.845  0.275  0.487- 182 1.11
 139  0.929  0.165  0.499- 168 1.08
 140  0.971  0.392  0.517- 169 1.10
 141  0.063  0.137  0.502- 170 1.09
 142  0.104  0.363  0.520- 171 1.08
 143  0.152  0.237  0.512- 172 1.10
 144  0.996  0.229  0.561-  31 1.10 183 1.31 189 1.32
 145  0.033  0.774  0.562-  32 1.11 184 1.31 190 1.32
 146  0.524  0.271  0.561-  29 1.09 185 1.31 187 1.32
 147  0.494  0.763  0.557-  30 1.09 186 1.31 188 1.32
 148  0.235  0.511  0.557-  33 1.10 191 1.31 195 1.32
 149  0.266  0.995  0.556-  34 1.09 194 1.31 192 1.31
 150  0.772  0.985  0.561-  35 1.09 193 1.31 196 1.31
 151  0.009  0.242  0.652-  68 1.09 197 1.30 207 1.31
 152  0.017  0.762  0.653-  69 1.10 198 1.29 208 1.32
 153  0.507  0.257  0.649-  70 1.11 199 1.30 205 1.33
 154  0.492  0.757  0.650-  71 1.11 200 1.31 206 1.32
 155  0.251  0.496  0.650-  73 1.10 201 1.30 210 1.33
 156  0.250  0.994  0.649-  72 1.10 209 1.31 202 1.31
 157  0.743  0.514  0.650-  75 1.08 212 1.31 203 1.32
 158  0.749  0.999  0.650-  74 1.10 204 1.30 211 1.33
 159  0.500  0.250  0.743- 110 1.09 221 1.31 215 1.31
 160  0.500  0.750  0.743- 111 1.09 222 1.31 216 1.31
 161  1.000  0.250  0.743- 108 1.09 223 1.31 213 1.31
 162  1.000  0.750  0.743- 109 1.09 224 1.31 214 1.31
 163  0.250  0.000  0.743- 112 1.09 225 1.31 218 1.31
 164  0.250  0.500  0.743- 113 1.09 226 1.31 217 1.31
 165  0.750  0.000  0.743- 114 1.09 227 1.31 220 1.31
 166  0.750  0.500  0.743- 115 1.09 228 1.31 219 1.31
 167  0.941  0.279  0.507- 168 1.39 169 1.41 182 1.53
 168  0.967  0.208  0.503- 139 1.08 167 1.39 170 1.40
 169  0.991  0.335  0.513- 140 1.10 171 1.40 167 1.41
 170  0.043  0.192  0.506- 141 1.09 172 1.40 168 1.40
 171  0.067  0.319  0.515- 142 1.08 169 1.40 172 1.40
 172  0.093  0.248  0.511- 143 1.10 171 1.40 170 1.40
 173  0.818  0.485  0.531- 116 1.09 117 1.10 229 1.52 177 1.55
 174  0.792  0.605  0.548- 119 1.10 118 1.10 179 1.52 229 1.54
 175  0.694  0.510  0.548- 121 1.10 120 1.11 180 1.52 229 1.53
 176  0.808  0.488  0.570- 123 1.10 122 1.10 181 1.51 229 1.54
 177  0.817  0.400  0.529- 124 1.10 125 1.11 173 1.55 178 1.55
 178  0.830  0.375  0.506- 127 1.08 126 1.10 182 1.54 177 1.55
 179  0.873  0.630  0.547- 128 1.09 129 1.10 130 1.10 174 1.52
 180  0.658  0.527  0.527- 132 1.10 133 1.11 131 1.11 175 1.52
 181  0.771  0.517  0.590- 134 1.08 135 1.10 136 1.10 176 1.51
 182  0.859  0.295  0.504- 138 1.11 137 1.11 167 1.53 178 1.54
 183  0.058  0.248  0.571-   8 1.02  15 1.03 144 1.31
 184  0.036  0.708  0.571-   9 1.02  16 1.03 145 1.31
 185  0.550  0.207  0.567-  17 1.01  10 1.03 146 1.31
 186  0.548  0.722  0.564-  18 1.01  11 1.03 147 1.31
 187  0.454  0.292  0.565-   1 1.02  22 1.03 146 1.32
 188  0.424  0.755  0.563-   2 1.02  23 1.02 147 1.32
 189  0.930  0.251  0.567-  24 1.02   3 1.03 144 1.32
 190  0.977  0.820  0.564-   4 1.02  25 1.03 145 1.32
 191  0.254  0.449  0.567-  26 1.01  19 1.04 148 1.31
 192  0.198  0.012  0.561-  27 1.02  20 1.04 149 1.31
 193  0.701  0.984  0.564-  28 1.03  21 1.04 150 1.31
 194  0.324  0.034  0.561-  12 1.03   5 1.04 149 1.31
 195  0.269  0.575  0.560-  13 1.02   6 1.04 148 1.32
 196  0.817  0.039  0.567-  14 1.03   7 1.04 150 1.31
 197  0.057  0.194  0.657-  52 1.02  44 1.03 151 1.30
 198  0.050  0.702  0.659-  53 1.01  45 1.03 152 1.29
 199  0.544  0.200  0.655-  54 1.02  46 1.03 153 1.30
 200  0.531  0.715  0.663-  55 1.01  47 1.03 154 1.31
 201  0.216  0.447  0.662-  56 1.01  48 1.03 155 1.30
 202  0.197  0.956  0.658-  57 1.02  49 1.03 156 1.31
 203  0.698  0.464  0.658-  50 1.00  58 1.03 157 1.32
 204  0.704  0.956  0.660-  59 1.01  51 1.03 158 1.30
 205  0.461  0.296  0.661-  36 1.00  60 1.02 153 1.33
 206  0.444  0.808  0.656-  37 1.02  61 1.03 154 1.32
 207  0.967  0.282  0.664-  38 1.02  62 1.02 151 1.31
 208  0.954  0.788  0.661-  63 1.02  39 1.02 152 1.32
 209  0.297  0.037  0.658-  40 1.02  64 1.03 156 1.31
 210  0.298  0.547  0.657-  41 1.01  65 1.03 155 1.33
 211  0.793  0.050  0.659-  42 1.01  66 1.03 158 1.33
 212  0.802  0.542  0.659-  67 1.01  43 1.02 157 1.31
 213  0.046  0.204  0.753-  92 1.02  84 1.02 161 1.31
 214  0.046  0.704  0.753-  93 1.02  85 1.02 162 1.31
 215  0.546  0.204  0.753-  94 1.02  86 1.02 159 1.31
 216  0.546  0.704  0.753-  95 1.02  87 1.02 160 1.31
 217  0.204  0.454  0.753-  96 1.02  88 1.02 164 1.31
 218  0.204  0.954  0.753-  97 1.02  89 1.02 163 1.31
 219  0.704  0.454  0.753-  98 1.02  90 1.02 166 1.31
 220  0.704  0.954  0.753-  99 1.02  91 1.02 165 1.31
 221  0.454  0.296  0.753-  76 1.02 100 1.02 159 1.31
 222  0.454  0.796  0.753-  77 1.02 101 1.02 160 1.31
 223  0.954  0.296  0.753-  78 1.02 102 1.02 161 1.31
 224  0.954  0.796  0.753-  79 1.02 103 1.02 162 1.31
 225  0.296  0.046  0.753-  80 1.02 104 1.02 163 1.31
 226  0.296  0.546  0.753-  81 1.02 105 1.02 164 1.31
 227  0.796  0.046  0.753-  82 1.02 106 1.02 165 1.31
 228  0.796  0.546  0.753-  83 1.02 107 1.02 166 1.31
 229  0.778  0.522  0.549- 173 1.52 175 1.53 174 1.54 176 1.54
 230  0.509  0.978  0.555- 304 3.13
 231  0.457  0.489  0.554- 305 3.16
 232  0.006  0.013  0.553- 302 3.28
 233  0.037  0.495  0.555- 303 3.17
 234  0.252  0.244  0.556- 306 3.14
 235  0.235  0.772  0.551- 307 3.29
 236  0.741  0.222  0.555- 308 3.23
 237  0.718  0.796  0.551- 309 3.41
 238  0.995  0.988  0.655- 302 3.11 310 3.15
 239  0.004  0.501  0.656- 311 3.07 303 3.16
 240  0.498  0.006  0.655- 312 3.10 304 3.19
 241  0.497  0.503  0.655- 313 3.12 305 3.21
 242  0.260  0.236  0.656- 314 3.08 306 3.13
 243  0.248  0.751  0.654- 307 3.15 315 3.17
 244  0.741  0.254  0.655- 308 3.07 316 3.09
 245  0.753  0.749  0.654- 309 3.17 317 3.18
 246  0.144  0.113  0.609- 306 3.20 302 3.23
 247  0.143  0.611  0.610- 303 3.15 307 3.21
 248  0.644  0.108  0.609- 308 3.23 304 3.30
 249  0.613  0.635  0.612- 305 3.29 309 3.36
 250  0.366  0.386  0.612- 305 3.15 306 3.19
 251  0.365  0.887  0.607- 304 3.15 307 3.23
 252  0.890  0.361  0.615- 308 3.24 303 3.39
 253  0.866  0.887  0.607- 309 3.16 302 3.25
 254  0.122  0.366  0.613- 306 3.17 303 3.26
 255  0.119  0.876  0.606- 307 3.11 302 3.20
 256  0.618  0.371  0.605- 305 3.20 308 3.22
 257  0.621  0.868  0.612- 309 3.12 304 3.16
 258  0.400  0.144  0.605- 304 3.28 306 3.29
 259  0.376  0.633  0.607- 305 3.25 307 3.29
 260  0.885  0.137  0.614- 302 3.17 308 3.23
 261  0.909  0.658  0.613- 303 3.34 309 3.45
 262  0.000  0.000  0.755- 310 3.13 318 3.27
 263  0.000  0.500  0.755- 311 3.13 319 3.27
 264  0.500  0.000  0.755- 312 3.13 320 3.27
 265  0.500  0.500  0.755- 313 3.13 321 3.27
 266  0.250  0.250  0.755- 314 3.13 322 3.27
 267  0.250  0.750  0.755- 315 3.13 323 3.27
 268  0.750  0.250  0.755- 316 3.13 324 3.27
 269  0.750  0.750  0.755- 317 3.13 325 3.27
 270  0.136  0.114  0.705- 310 3.20 314 3.20
 271  0.136  0.614  0.705- 311 3.20 315 3.20
 272  0.636  0.114  0.705- 312 3.20 316 3.20
 273  0.636  0.614  0.705- 313 3.20 317 3.20
 274  0.364  0.386  0.705- 313 3.20 314 3.20
 275  0.364  0.886  0.705- 312 3.20 315 3.20
 276  0.864  0.386  0.705- 311 3.20 316 3.20
 277  0.864  0.886  0.705- 310 3.20 317 3.20
 278  0.114  0.364  0.705- 314 3.21 311 3.21
 279  0.114  0.864  0.705- 315 3.21 310 3.21
 280  0.614  0.364  0.705- 316 3.21 313 3.21
 281  0.614  0.864  0.705- 317 3.21 312 3.21
 282  0.386  0.136  0.705- 314 3.21 312 3.21
 283  0.386  0.636  0.705- 315 3.21 313 3.21
 284  0.886  0.136  0.705- 316 3.21 310 3.21
 285  0.886  0.636  0.705- 317 3.21 311 3.21
 286  0.135  0.115  0.801- 318 3.22 322 3.22
 287  0.135  0.615  0.801- 319 3.22 323 3.22
 288  0.635  0.115  0.801- 320 3.22 324 3.22
 289  0.635  0.615  0.801- 321 3.22 325 3.22
 290  0.365  0.385  0.801- 321 3.22 322 3.22
 291  0.365  0.885  0.801- 320 3.22 323 3.22
 292  0.865  0.385  0.801- 319 3.22 324 3.22
 293  0.865  0.885  0.801- 318 3.22 325 3.22
 294  0.115  0.365  0.801- 319 3.23 322 3.23
 295  0.115  0.865  0.801- 318 3.23 323 3.23
 296  0.615  0.365  0.801- 321 3.23 324 3.23
 297  0.615  0.865  0.801- 320 3.23 325 3.23
 298  0.385  0.135  0.801- 320 3.23 322 3.23
 299  0.385  0.635  0.801- 321 3.23 323 3.23
 300  0.885  0.135  0.801- 318 3.23 324 3.23
 301  0.885  0.635  0.801- 319 3.23 325 3.23
 302  1.000  0.007  0.605- 238 3.11 260 3.17 255 3.20 246 3.23 253 3.25 232 3.28
 303  0.008  0.503  0.605- 247 3.15 239 3.16 233 3.17 254 3.26 261 3.34 252 3.39
 304  0.502  0.994  0.604- 230 3.13 251 3.15 257 3.16 240 3.19 258 3.28 248 3.30
 305  0.495  0.499  0.604- 250 3.15 231 3.16 256 3.20 241 3.21 259 3.25 249 3.29
 306  0.253  0.252  0.606- 242 3.13 234 3.14 254 3.17 250 3.19 246 3.20 258 3.29
 307  0.243  0.757  0.604- 255 3.11 243 3.15 247 3.21 251 3.23 259 3.29 235 3.29
 308  0.751  0.252  0.606- 244 3.07 256 3.22 260 3.23 236 3.23 248 3.23 252 3.24
 309  0.750  0.757  0.603- 257 3.12 253 3.16 245 3.17 249 3.36 237 3.41 261 3.45
 310  0.000  0.000  0.705- 262 3.13 238 3.15 270 3.20 277 3.20 279 3.21 284 3.21
 311  0.000  0.500  0.705- 239 3.07 263 3.13 271 3.20 276 3.20 278 3.21 285 3.21
 312  0.500  0.000  0.705- 240 3.10 264 3.13 272 3.20 275 3.20 281 3.21 282 3.21
 313  0.500  0.500  0.705- 241 3.12 265 3.13 273 3.20 274 3.20 280 3.21 283 3.21
 314  0.250  0.250  0.705- 242 3.08 266 3.13 270 3.20 274 3.20 282 3.21 278 3.21
 315  0.250  0.750  0.705- 267 3.13 243 3.17 271 3.20 275 3.20 283 3.21 279 3.21
 316  0.750  0.250  0.705- 244 3.09 268 3.13 272 3.20 276 3.20 284 3.21 280 3.21
 317  0.750  0.750  0.705- 269 3.13 245 3.18 273 3.20 277 3.20 285 3.21 281 3.21
 318  0.000  0.000  0.807- 286 3.22 293 3.22 300 3.23 295 3.23 262 3.27
 319  0.000  0.500  0.807- 287 3.22 292 3.22 301 3.23 294 3.23 263 3.27
 320  0.500  0.000  0.807- 288 3.22 291 3.22 298 3.23 297 3.23 264 3.27
 321  0.500  0.500  0.807- 289 3.22 290 3.22 299 3.23 296 3.23 265 3.27
 322  0.250  0.250  0.807- 290 3.22 286 3.22 294 3.23 298 3.23 266 3.27
 323  0.250  0.750  0.807- 291 3.22 287 3.22 299 3.23 295 3.23 267 3.27
 324  0.750  0.250  0.807- 292 3.22 288 3.22 296 3.23 300 3.23 268 3.27
 325  0.750  0.750  0.807- 293 3.22 289 3.22 297 3.23 301 3.23 269 3.27
 

IMPORTANT INFORMATION: All symmetrisations will be switched off!
NOSYMM: (Re-)initialisation of all symmetry stuff for point group C_1.


----------------------------------------------------------------------------------------

                                     Primitive cell                                     

  volume of cell :   20385.2105

  direct lattice vectors                    reciprocal lattice vectors
    18.060800552  0.000000000  0.000000000     0.055368531  0.000015077 -0.000000000
    -0.004918649 18.062799454  0.000000000     0.000000000  0.055362404  0.000000000
     0.000000000  0.000000000 62.487499237     0.000000000 -0.000000000  0.016003201

  length of vectors
    18.060800552 18.062800123 62.487499237     0.055368533  0.055362404  0.016003201

  position of ions in fractional coordinates (direct lattice)
     0.418850078  0.260370261  0.573222134
     0.409541809  0.716373328  0.574038704
     0.921474054  0.280376551  0.581125021
     0.936833471  0.814059162  0.575267343
     0.320488745  0.081230058  0.571077785
     0.311875161  0.580089416  0.571262758
     0.799261713  0.084308547  0.575202328
     0.108472400  0.234516361  0.564697480
     0.081980675  0.675902146  0.569398005
     0.606283096  0.197425909  0.565893215
     0.601065457  0.737159044  0.560092250
     0.376830829  0.014971627  0.558407037
     0.252302278  0.622157042  0.552861678
     0.872409539  0.034760866  0.563148464
     0.059912646  0.283273482  0.583753782
     0.997820966  0.690865332  0.582362024
     0.520855117  0.171737252  0.576801830
     0.543752232  0.685225323  0.576516006
     0.298256758  0.443787342  0.576927221
     0.183139607  0.055883042  0.570567551
     0.673944315  0.025526392  0.572689435
     0.441179766  0.346430199  0.560837455
     0.382700198  0.787294106  0.556682266
     0.883132517  0.228275144  0.560767861
     0.983756202  0.873467771  0.558204971
     0.225669655  0.401343163  0.563256640
     0.153923610  0.981212246  0.555372373
     0.672262216  0.936960553  0.560495590
     0.560421098  0.308697925  0.552870346
     0.507074230  0.808058387  0.545944340
     0.000991146  0.193588334  0.546896190
     0.079737796  0.789540754  0.551706662
     0.186781952  0.510005851  0.546672146
     0.274768453  0.943574211  0.547093068
     0.796083576  0.936575961  0.552765040
     0.451534554  0.284528193  0.676467577
     0.432460821  0.819432596  0.671235452
     0.968795061  0.278606007  0.680489317
     0.924733973  0.761147839  0.672377282
     0.297702086  0.047004293  0.674463392
     0.312015510  0.551867038  0.672587346
     0.793947023  0.059637962  0.674968193
     0.817923144  0.529955252  0.673967199
     0.086719504  0.166220816  0.645820212
     0.099727343  0.687863624  0.652128053
     0.578382314  0.173303734  0.644127552
     0.565956533  0.676261804  0.656003950
     0.180808662  0.410511167  0.654355244
     0.163816007  0.923952987  0.648014682
     0.654388121  0.445961129  0.649825896
     0.672279134  0.919199174  0.651578871
     0.068612272  0.181545218  0.672964923
     0.030117712  0.667142216  0.670328532
     0.544519409  0.180121554  0.670315285
     0.527175735  0.716885782  0.678768269
     0.220454313  0.444429943  0.677923007
     0.187662646  0.953772074  0.673775022
     0.705727244  0.443549277  0.673489809
     0.696959443  0.955398065  0.676525938
     0.434095331  0.340730872  0.654412629
     0.415914705  0.836327491  0.643829152
     0.929985765  0.319408573  0.657996720
     0.932711513  0.837102139  0.655462399
     0.337136594  0.064071992  0.649560157
     0.320748976  0.582685532  0.645982781
     0.825747762  0.080629352  0.648970195
     0.831997067  0.581273246  0.651207276
     0.000249843  0.252719108  0.634528403
     0.043197684  0.795494381  0.640388278
     0.513154880  0.275462933  0.631926381
     0.499043334  0.747938382  0.632269711
     0.256434773  0.988080172  0.631121227
     0.239840716  0.494853016  0.632557427
     0.752492929  0.993967151  0.632542959
     0.727884870  0.534255044  0.634020122
     0.448745018  0.301283966  0.768889017
     0.448745007  0.801283913  0.768889017
     0.948744965  0.301283966  0.768889017
     0.948745007  0.801283913  0.768889017
     0.301275995  0.051294496  0.768872961
     0.301276011  0.551294499  0.768872961
     0.801275943  0.051294496  0.768872961
     0.801275984  0.551294499  0.768872961
     0.078771004  0.171180501  0.743441971
     0.078771006  0.671180448  0.743441971
     0.578771004  0.171180501  0.743441971
     0.578770992  0.671180448  0.743441971
     0.171199499  0.421174482  0.743421032
     0.171199501  0.921174508  0.743421032
     0.671199512  0.421174482  0.743421032
     0.671199501  0.921174508  0.743421032
     0.051256000  0.198714991  0.768889017
     0.051256002  0.698714925  0.768889017
     0.551256027  0.198714991  0.768889017
     0.551256016  0.698714925  0.768889017
     0.198723491  0.448703970  0.768872046
     0.198723493  0.948703970  0.768872046
     0.698723518  0.448703970  0.768872046
     0.698723507  0.948703970  0.768872046
     0.421231519  0.328817467  0.743441971
     0.421231508  0.828817440  0.743441971
     0.921231466  0.328817467  0.743441971
     0.921231508  0.828817440  0.743441971
     0.328800503  0.078824997  0.743421032
     0.328800492  0.578824964  0.743421032
     0.828800477  0.078824997  0.743421032
     0.828800519  0.578824964  0.743421032
     0.000003500  0.250001478  0.725821992
     0.000003500  0.750001452  0.725821992
     0.500003506  0.250001478  0.725821992
     0.500003495  0.750001452  0.725821992
     0.250000502  0.000000000  0.725803983
     0.250000517  0.500000000  0.725803983
     0.750000502  0.000000000  0.725803983
     0.750000490  0.500000000  0.725803983
     0.795793067  0.510742115  0.516265857
     0.875935146  0.503463635  0.532770684
     0.759250685  0.627835171  0.535072475
     0.767811201  0.627463475  0.563177645
     0.684306035  0.451604253  0.553111606
     0.670747173  0.545176724  0.560984274
     0.800064793  0.428042592  0.568711711
     0.867355600  0.500654533  0.570269090
     0.860602330  0.377680341  0.540092888
     0.764314889  0.375877326  0.535171250
     0.777705233  0.380719615  0.497184434
     0.869415027  0.412372761  0.498428732
     0.897654230  0.616049245  0.531183514
     0.908313604  0.607621306  0.559396920
     0.872533355  0.690852080  0.547988816
     0.597712400  0.519306114  0.528839844
     0.676129632  0.488304147  0.514265457
     0.667318358  0.584477064  0.521263195
     0.715627185  0.496343495  0.592555713
     0.773098264  0.577448950  0.592004517
     0.805083280  0.495847725  0.603670363
     0.825299257  0.259232919  0.514452750
     0.845276469  0.275495641  0.487147210
     0.929446237  0.164851508  0.498856552
     0.970770183  0.391688681  0.516630798
     0.063415182  0.136584489  0.502236989
     0.104461472  0.362981619  0.519896893
     0.152452729  0.236619452  0.512065676
     0.996353692  0.228744278  0.561149896
     0.032692180  0.773716226  0.562184465
     0.523542179  0.270796751  0.561348727
     0.493923279  0.763208586  0.557094031
     0.235047489  0.511001510  0.557313191
     0.266251504  0.994562833  0.556084246
     0.772462770  0.984909714  0.560782879
     0.008596768  0.242323689  0.651522402
     0.016823351  0.761751633  0.652990225
     0.506595428  0.257102637  0.648851458
     0.491688442  0.756500321  0.649706854
     0.250601216  0.495659448  0.649933461
     0.250039065  0.993954757  0.648606109
     0.742507634  0.514225813  0.649753555
     0.748940321  0.999062213  0.650098961
     0.499988984  0.249994984  0.743277021
     0.499989025  0.749994958  0.743277021
     0.999988984  0.249994984  0.743277021
     0.999989025  0.749994958  0.743277021
     0.250000502  0.000001000  0.743255960
     0.250000517  0.500001003  0.743255960
     0.750000502  0.000001000  0.743255960
     0.750000491  0.500001003  0.743255960
     0.940607497  0.279499212  0.507166015
     0.967147431  0.208244356  0.503434708
     0.991204479  0.335302450  0.513218128
     0.042879547  0.192356155  0.505509830
     0.066517443  0.319421719  0.515185624
     0.093043359  0.248273225  0.511043743
     0.818340107  0.485264372  0.530710824
     0.792421686  0.605432525  0.548416575
     0.693910911  0.509829824  0.548292343
     0.807696235  0.488375107  0.570209325
     0.817114478  0.399736476  0.529459353
     0.830217928  0.375062156  0.505950684
     0.872644371  0.629860702  0.546625079
     0.658152881  0.527098104  0.526807333
     0.771410920  0.516932170  0.590348301
     0.858542096  0.294898929  0.503514802
     0.057855260  0.247784001  0.570920099
     0.035766066  0.708107584  0.571140785
     0.550307260  0.206884683  0.567496197
     0.548095228  0.721715241  0.564247439
     0.454417366  0.292484015  0.564630084
     0.424090546  0.755490565  0.563005125
     0.930102463  0.250877287  0.567165015
     0.976885594  0.820259249  0.563922606
     0.253525268  0.448653231  0.566646722
     0.197575675  0.011874101  0.560612801
     0.700982923  0.984316050  0.564091463
     0.323943403  0.034159107  0.561485473
     0.269176097  0.574835147  0.560286075
     0.816915845  0.038573355  0.566547215
     0.057353840  0.193798060  0.657379226
     0.049832433  0.701796938  0.658929279
     0.544448584  0.199647570  0.655042882
     0.531213616  0.714920652  0.662653474
     0.215885840  0.447472621  0.661801253
     0.197099694  0.955510484  0.657738245
     0.698003144  0.464112821  0.658317463
     0.703705098  0.955600247  0.660421704
     0.460950001  0.296332941  0.661009896
     0.443834136  0.807746880  0.655591514
     0.966937776  0.282255701  0.664225260
     0.953761857  0.787707987  0.660590012
     0.297193717  0.037105084  0.658418008
     0.297957712  0.546768627  0.656942126
     0.792638601  0.049932695  0.658992769
     0.801517001  0.542258648  0.658829467
     0.045862501  0.204119496  0.752725994
     0.045862500  0.704119456  0.752725994
     0.545862507  0.204119496  0.752725994
     0.545862496  0.704119456  0.752725994
     0.204119002  0.454101003  0.752704994
     0.204118991  0.954100951  0.752704994
     0.704118976  0.454101003  0.752704994
     0.704118964  0.954100951  0.752704994
     0.454140018  0.295888490  0.752726971
     0.454140007  0.795888516  0.752726971
     0.954140018  0.295888490  0.752726971
     0.954140060  0.795888516  0.752726971
     0.295882492  0.045900498  0.752704994
     0.295882481  0.545900528  0.752704994
     0.795882439  0.045900498  0.752704994
     0.795882481  0.545900528  0.752704994
     0.777904286  0.521616013  0.549224354
     0.509065616  0.977845378  0.554558733
     0.457295247  0.489022460  0.554397080
     0.006257866  0.013485539  0.552610895
     0.037100038  0.495106445  0.555239045
     0.252455759  0.244391854  0.555716863
     0.235423004  0.772373159  0.551358753
     0.741253944  0.221543886  0.555492026
     0.717693963  0.796270983  0.550615379
     0.995247739  0.988095431  0.654567933
     0.003799641  0.501077918  0.655791933
     0.497580428  0.005592476  0.655312467
     0.496712412  0.502611269  0.654900519
     0.260382950  0.236364756  0.655732656
     0.247823366  0.751251438  0.654071923
     0.741023421  0.254178410  0.655462643
     0.752956522  0.748894126  0.653874863
     0.144010061  0.112524299  0.609077634
     0.143054114  0.611480449  0.609925093
     0.644075221  0.108212891  0.608837229
     0.612755152  0.635148708  0.612141051
     0.366103828  0.385637378  0.612327978
     0.365169992  0.886532879  0.607319408
     0.889895978  0.360752104  0.615036528
     0.866456628  0.886528128  0.607156900
     0.121763104  0.366406290  0.612952920
     0.118530682  0.875946993  0.606491484
     0.617945059  0.371281920  0.605306188
     0.620718916  0.867762451  0.611793753
     0.400031363  0.144496964  0.604780876
     0.375986410  0.633436901  0.606803802
     0.884885332  0.136764411  0.613597947
     0.909257800  0.657507321  0.612816418
     0.000000000  0.000000000  0.754927972
     0.000000000  0.500000000  0.754927972
     0.500000000  0.000000000  0.754927972
     0.499999989  0.500000000  0.754927972
     0.250000496  0.250000000  0.754939022
     0.250000511  0.749999974  0.754939022
     0.750000470  0.250000000  0.754939022
     0.750000458  0.749999974  0.754939022
     0.135790500  0.114209997  0.704782994
     0.135790502  0.614209984  0.704782994
     0.635790447  0.114209997  0.704782994
     0.635790488  0.614209984  0.704782994
     0.364209516  0.385789989  0.704782994
     0.364209505  0.885789963  0.704782994
     0.864209542  0.385789989  0.704782994
     0.864209531  0.885789963  0.704782994
     0.114217990  0.364218986  0.704780979
     0.114217992  0.864218986  0.704780979
     0.614218004  0.364218986  0.704780979
     0.614217992  0.864218986  0.704780979
     0.385782012  0.135781489  0.704782017
     0.385782001  0.635781489  0.704782017
     0.885781985  0.135781489  0.704782017
     0.885782027  0.635781489  0.704782017
     0.134667000  0.115332001  0.801256025
     0.134666989  0.615331988  0.801256025
     0.634666987  0.115332001  0.801256025
     0.634666976  0.615331988  0.801256025
     0.365333002  0.384667985  0.801256025
     0.365332990  0.884667959  0.801256025
     0.865332949  0.384667985  0.801256025
     0.865332938  0.884667959  0.801256025
     0.115328503  0.365337004  0.801264999
     0.115328505  0.865336978  0.801264999
     0.615328503  0.365337004  0.801264999
     0.615328492  0.865336978  0.801264999
     0.384671513  0.134662996  0.801264999
     0.384671501  0.634662970  0.801264999
     0.884671486  0.134662996  0.801264999
     0.884671528  0.634662970  0.801264999
     0.999731313  0.007443861  0.605060534
     0.007595689  0.503212687  0.605191908
     0.502041538  0.993968594  0.604397803
     0.495377671  0.499025249  0.603609499
     0.252807574  0.251801590  0.605960738
     0.242834261  0.756916948  0.603756684
     0.750507770  0.251998551  0.606387398
     0.749685761  0.757022754  0.603258049
     0.000000500  0.000000500  0.704828963
     0.000000500  0.500000475  0.704828963
     0.500000475  0.000000500  0.704828963
     0.500000464  0.500000475  0.704828963
     0.249999994  0.249999472  0.704824995
     0.250000010  0.749999498  0.704824995
     0.749999994  0.249999472  0.704824995
     0.749999983  0.749999498  0.704824995
     0.000000000  0.000000000  0.807317968
     0.000000000  0.500000000  0.807317968
     0.500000000  0.000000000  0.807317968
     0.499999989  0.500000000  0.807317968
     0.249999994  0.250000000  0.807317968
     0.250000010  0.749999974  0.807317968
     0.749999994  0.250000000  0.807317968
     0.749999983  0.749999974  0.807317968

  ion indices of the primitive-cell ions
   primitive index   ion index
                 1           1
                 2           2
                 3           3
                 4           4
                 5           5
                 6           6
                 7           7
                 8           8
                 9           9
                10          10
                11          11
                12          12
                13          13
                14          14
                15          15
                16          16
                17          17
                18          18
                19          19
                20          20
                21          21
                22          22
                23          23
                24          24
                25          25
                26          26
                27          27
                28          28
                29          29
                30          30
                31          31
                32          32
                33          33
                34          34
                35          35
                36          36
                37          37
                38          38
                39          39
                40          40
                41          41
                42          42
                43          43
                44          44
                45          45
                46          46
                47          47
                48          48
                49          49
                50          50
                51          51
                52          52
                53          53
                54          54
                55          55
                56          56
                57          57
                58          58
                59          59
                60          60
                61          61
                62          62
                63          63
                64          64
                65          65
                66          66
                67          67
                68          68
                69          69
                70          70
                71          71
                72          72
                73          73
                74          74
                75          75
                76          76
                77          77
                78          78
                79          79
                80          80
                81          81
                82          82
                83          83
                84          84
                85          85
                86          86
                87          87
                88          88
                89          89
                90          90
                91          91
                92          92
                93          93
                94          94
                95          95
                96          96
                97          97
                98          98
                99          99
               100         100
               101         101
               102         102
               103         103
               104         104
               105         105
               106         106
               107         107
               108         108
               109         109
               110         110
               111         111
               112         112
               113         113
               114         114
               115         115
               116         116
               117         117
               118         118
               119         119
               120         120
               121         121
               122         122
               123         123
               124         124
               125         125
               126         126
               127         127
               128         128
               129         129
               130         130
               131         131
               132         132
               133         133
               134         134
               135         135
               136         136
               137         137
               138         138
               139         139
               140         140
               141         141
               142         142
               143         143
               144         144
               145         145
               146         146
               147         147
               148         148
               149         149
               150         150
               151         151
               152         152
               153         153
               154         154
               155         155
               156         156
               157         157
               158         158
               159         159
               160         160
               161         161
               162         162
               163         163
               164         164
               165         165
               166         166
               167         167
               168         168
               169         169
               170         170
               171         171
               172         172
               173         173
               174         174
               175         175
               176         176
               177         177
               178         178
               179         179
               180         180
               181         181
               182         182
               183         183
               184         184
               185         185
               186         186
               187         187
               188         188
               189         189
               190         190
               191         191
               192         192
               193         193
               194         194
               195         195
               196         196
               197         197
               198         198
               199         199
               200         200
               201         201
               202         202
               203         203
               204         204
               205         205
               206         206
               207         207
               208         208
               209         209
               210         210
               211         211
               212         212
               213         213
               214         214
               215         215
               216         216
               217         217
               218         218
               219         219
               220         220
               221         221
               222         222
               223         223
               224         224
               225         225
               226         226
               227         227
               228         228
               229         229
               230         230
               231         231
               232         232
               233         233
               234         234
               235         235
               236         236
               237         237
               238         238
               239         239
               240         240
               241         241
               242         242
               243         243
               244         244
               245         245
               246         246
               247         247
               248         248
               249         249
               250         250
               251         251
               252         252
               253         253
               254         254
               255         255
               256         256
               257         257
               258         258
               259         259
               260         260
               261         261
               262         262
               263         263
               264         264
               265         265
               266         266
               267         267
               268         268
               269         269
               270         270
               271         271
               272         272
               273         273
               274         274
               275         275
               276         276
               277         277
               278         278
               279         279
               280         280
               281         281
               282         282
               283         283
               284         284
               285         285
               286         286
               287         287
               288         288
               289         289
               290         290
               291         291
               292         292
               293         293
               294         294
               295         295
               296         296
               297         297
               298         298
               299         299
               300         300
               301         301
               302         302
               303         303
               304         304
               305         305
               306         306
               307         307
               308         308
               309         309
               310         310
               311         311
               312         312
               313         313
               314         314
               315         315
               316         316
               317         317
               318         318
               319         319
               320         320
               321         321
               322         322
               323         323
               324         324
               325         325

----------------------------------------------------------------------------------------

 
 
 KPOINTS: Automatic Mesh                          

Automatic generation of k-mesh.
 Grid dimensions read from file:
 generate k-points for:    3    3    1

 Generating k-lattice:

  Cartesian coordinates                     Fractional coordinates (reciprocal lattice)
     0.018456177  0.000005026 -0.000000000     0.333333333  0.000000000  0.000000000
     0.000000000  0.018454135  0.000000000     0.000000000  0.333333333  0.000000000
     0.000000000 -0.000000000  0.016003201     0.000000000  0.000000000  1.000000000

  Length of vectors
     0.018456178  0.018454135  0.016003201

  Shift w.r.t. Gamma in fractional coordinates (k-lattice)
     0.000000000  0.000000000  0.000000000

 
 Subroutine IBZKPT returns following result:
 ===========================================
 
 Found      5 irreducible k-points:
 
 Following reciprocal coordinates:
            Coordinates               Weight
  0.000000  0.000000  0.000000      1.000000
  0.333333  0.000000  0.000000      2.000000
  0.000000  0.333333  0.000000      2.000000
  0.333333  0.333333  0.000000      2.000000
 -0.333333  0.333333  0.000000      2.000000
 
 Following cartesian coordinates:
            Coordinates               Weight
  0.000000  0.000000  0.000000      1.000000
  0.018456  0.000005  0.000000      2.000000
  0.000000  0.018454  0.000000      2.000000
  0.018456  0.018459  0.000000      2.000000
 -0.018456  0.018449  0.000000      2.000000
 


--------------------------------------------------------------------------------------------------------




 Dimension of arrays:
   k-points           NKPTS =      5   k-points in BZ     NKDIM =      5   number of bands    NBANDS=    732
   number of dos      NEDOS =    301   number of ions     NIONS =    325
   non local maximal  LDIM  =      5   non local SUM 2l+1 LMDIM =     13
   total plane-waves  NPLWV = ******
   max r-space proj   IRMAX =   3336   max aug-charges    IRDMAX=  19845
   dimension x,y,z NGX =   100 NGY =  100 NGZ =  350
   dimension x,y,z NGXF=   200 NGYF=  200 NGZF=  700
   support grid    NGXF=   200 NGYF=  200 NGZF=  700
   ions per type =             143  39  47  72  24
   NGX,Y,Z   is equivalent  to a cutoff of   9.20,  9.20,  9.31 a.u.
   NGXF,Y,Z  is equivalent  to a cutoff of  18.41, 18.41, 18.62 a.u.

 SYSTEM =  PSC                                     
 POSCAR =   H  C  N  I Pb                          

 Startparameter for this run:
   NWRITE =      2    write-flag & timer
   PREC   = normal    normal or accurate (medium, high low for compatibility)
   ISTART =      0    job   : 0-new  1-cont  2-samecut
   ICHARG =      1    charge: 1-file 2-atom 10-const
   ISPIN  =      1    spin polarized calculation?
   LNONCOLLINEAR =      F non collinear calculations
   LSORBIT =      F    spin-orbit coupling
   INIWAV =      1    electr: 0-lowe 1-rand  2-diag
   LASPH  =      F    aspherical Exc in radial PAW
 Electronic Relaxation 1
   ENCUT  =  500.0 eV  36.75 Ry    6.06 a.u.  32.93 32.93113.93*2*pi/ulx,y,z
   ENINI  =  500.0     initial cutoff
   ENAUG  =  644.9 eV  augmentation charge cutoff
   NELM   =    600;   NELMIN=  2; NELMDL=  0     # of ELM steps 
   EDIFF  = 0.1E-03   stopping-criterion for ELM
   LREAL  =      T    real-space projection
   NLSPLINE    = F    spline interpolate recip. space projectors
   LCOMPAT=      F    compatible to vasp.4.4
   GGA_COMPAT  = F    GGA compatible to vasp.4.4-vasp.4.6
   LMAXPAW     = -100 max onsite density
   LMAXMIX     =    2 max onsite mixed and CHGCAR
   VOSKOWN=      0    Vosko Wilk Nusair interpolation
   ROPT   =   -0.00050  -0.00050  -0.00050  -0.00050
   ROPT   =   -0.00050
 Ionic relaxation
   EDIFFG = 0.1E-02   stopping-criterion for IOM
   NSW    =      0    number of steps for IOM
   NBLOCK =      1;   KBLOCK =      1    inner block; outer block 
   IBRION =     -1    ionic relax: 0-MD 1-quasi-New 2-CG
   NFREE  =      0    steps in history (QN), initial steepest desc. (CG)
   ISIF   =      2    stress and relaxation
   IWAVPR =     10    prediction:  0-non 1-charg 2-wave 3-comb
   ISYM   =      0    0-nonsym 1-usesym 2-fastsym
   LCORR  =      T    Harris-Foulkes like correction to forces

   POTIM  = 0.5000    time-step for ionic-motion
   TEIN   =    0.0    initial temperature
   TEBEG  =    0.0;   TEEND  =   0.0 temperature during run
   SMASS  =  -3.00    Nose mass-parameter (am)
   estimated Nose-frequenzy (Omega)   =  0.10E-29 period in steps = 0.13E+47 mass=  -0.745E-26a.u.
   SCALEE = 1.0000    scale energy and forces
   NPACO  =    256;   APACO  = 16.0  distance and # of slots for P.C.
   PSTRESS=    0.0 pullay stress

  Mass of Ions in am
   POMASS =   1.00 12.01 14.00126.90207.20
  Ionic Valenz
   ZVAL   =   1.00  4.00  5.00  7.00  4.00
  Atomic Wigner-Seitz radii
   RWIGS  =  -1.00 -1.00 -1.00 -1.00 -1.00
  virtual crystal weights 
   VCA    =   1.00  1.00  1.00  1.00  1.00
   NELECT =    1134.0000    total number of electrons
   NUPDOWN=      -1.0000    fix difference up-down

 DOS related values:
   EMIN   =  10.00;   EMAX   =-10.00  energy-range for DOS
   EFERMI =   0.00
   ISMEAR =     0;   SIGMA  =   0.05  broadening in eV -4-tet -1-fermi 0-gaus

 Electronic relaxation 2 (details)
   IALGO  =     38    algorithm
   LDIAG  =      T    sub-space diagonalisation (order eigenvalues)
   LSUBROT=      F    optimize rotation matrix (better conditioning)
   TURBO    =      0    0=normal 1=particle mesh
   IRESTART =      0    0=no restart 2=restart with 2 vectors
   NREBOOT  =      0    no. of reboots
   NMIN     =      0    reboot dimension
   EREF     =   0.00    reference energy to select bands
   IMIX   =      4    mixing-type and parameters
     AMIX     =   0.40;   BMIX     =  0.01
     AMIX_MAG =   1.60;   BMIX_MAG =  0.01
     AMIN     =   0.01
     WC   =   100.;   INIMIX=   1;  MIXPRE=   1;  MAXMIX= -45

 Intra band minimization:
   WEIMIN = 0.0000     energy-eigenvalue tresh-hold
   EBREAK =  0.34E-07  absolut break condition
   DEPER  =   0.30     relativ break condition  

   TIME   =   0.40     timestep for ELM

  volume/ion in A,a.u.               =      62.72       423.28
  Fermi-wavevector in a.u.,A,eV,Ry     =   0.624944  1.180972  5.313816  0.390554
  Thomas-Fermi vector in A             =   1.685677
 
 Write flags
   LWAVE        =      F    write WAVECAR
   LDOWNSAMPLE  =      F    k-point downsampling of WAVECAR
   LCHARG       =      T    write CHGCAR
   LVTOT        =      T    write LOCPOT, total local potential
   LVHAR        =      F    write LOCPOT, Hartree potential only
   LELF         =      F    write electronic localiz. function (ELF)
   LORBIT       =      0    0 simple, 1 ext, 2 COOP (PROOUT), +10 PAW based schemes


 Dipole corrections
   LMONO  =      F    monopole corrections only (constant potential shift)
   LDIPOL =      T    correct potential (dipole corrections)
   IDIPOL =      3    1-x, 2-y, 3-z, 4-all directions 
   EPSILON=  1.0000000 bulk dielectric constant

 Exchange correlation treatment:
   GGA     =    --    GGA type
   LEXCH   =     8    internal setting for exchange type
   VOSKOWN=      0    Vosko Wilk Nusair interpolation
   LHFCALC =     F    Hartree Fock is set to
   LHFONE  =     F    Hartree Fock one center treatment
   AEXX    =    0.0000 exact exchange contribution

 Linear response parameters
   LEPSILON=     F    determine dielectric tensor
   LRPA    =     F    only Hartree local field effects (RPA)
   LNABLA  =     F    use nabla operator in PAW spheres
   LVEL    =     F    velocity operator in full k-point grid
   LINTERFAST=   F  fast interpolation
   KINTER  =     0    interpolate to denser k-point grid
   CSHIFT  =0.1000    complex shift for real part using Kramers Kronig
   OMEGAMAX=  -1.0    maximum frequency
   DEG_THRESHOLD= 0.2000000E-02 threshold for treating states as degnerate
   RTIME   =   -0.100 relaxation time in fs
  (WPLASMAI=    0.000 imaginary part of plasma frequency in eV, 0.658/RTIME)
   DFIELD  = 0.0000000 0.0000000 0.0000000 field for delta impulse in time
 
 Orbital magnetization related:
   ORBITALMAG=     F  switch on orbital magnetization
   LCHIMAG   =     F  perturbation theory with respect to B field
   DQ        =  0.001000  dq finite difference perturbation B field
   LLRAUG    =     F  two centre corrections for induced B field



--------------------------------------------------------------------------------------------------------


 Static calculation
 charge density and potential will be updated during run
 non-spin polarized calculation
 Variant of blocked Davidson
 Davidson routine will perform the subspace rotation
 perform sub-space diagonalisation
    after iterative eigenvector-optimisation
 modified Broyden-mixing scheme, WC =      100.0
 initial mixing is a Kerker type mixing with AMIX =  0.4000 and BMIX =      0.0100
 Hartree-type preconditioning will be used
 using additional bands           165
 real space projection scheme for non local part
[...]
     13.54561      0.00000     45.35368         0.004260     -0.005163      0.014242
     13.54315      9.03140     45.35368        -0.010289      0.000350      0.011363
     14.37015      9.22543     32.26016        -0.026029      0.020515     -0.173317
     15.81761      9.09396     33.29151         0.003773     -0.077988     -0.177344
     13.70959     11.34046     33.43534         0.175348     -0.173545      0.171903
     13.86420     11.33375     35.19156        -0.013650     -0.035293     -0.117850
     12.35689      8.15724     34.56256         0.010011      0.280507     -0.119522
     12.11155      9.84742     35.05450         0.051233     -0.070588     -0.069381
     14.44771      7.73165     35.53737         0.064017      0.192192      0.031597
     15.66267      9.04322     35.63469        -0.032548     -0.121214     -0.114315
     15.54131      6.82196     33.74905        -0.075786      0.000870     -0.142219
     13.80229      6.78940     33.44151         0.157800      0.105531     -0.070387
     14.04411      6.87686     31.06781         0.014436      0.002412     -0.023969
     15.70030      7.44861     31.14557         0.338682      0.389301     -0.299345
     16.20932     11.12757     33.19233         0.040325     -0.001862     -0.044988
     16.40188     10.97534     34.95531        -0.138056      0.059300     -0.122542
     15.75525     12.47872     34.24245        -0.043359     -0.175293      0.007281
     10.79261      9.38012     33.04588         0.240047      0.073194      0.005349
     12.20904      8.82014     32.13516        -0.019001      0.090279      0.025820
     12.04943     10.55729     32.57243        -0.036016     -0.243564      0.121610
     12.92236      8.96535     37.02732        -0.410200     -0.069273      0.019508
     13.95993     10.43034     36.99288        -0.061832     -0.112762     -0.112927
     14.53801      8.95640     37.72185        -0.053488     -0.086647     -0.010465
     14.90429      4.68247     32.14687         0.191946      0.103121     -0.234340
     15.26501      4.97622     30.44061         0.000423      0.059904      0.158811
     16.78573      2.97768     31.17230        -0.353735     -0.377454     -0.140820
     17.53096      7.07499     32.28297         0.266630     -0.386749     -0.071681
      1.14466      2.46710     31.38353        -0.085953      0.023536      0.040613
      1.88487      6.55646     32.48706         0.141646      0.175867      0.083033
      2.75225      4.27401     31.99770        -0.179506      0.004312      0.063635
     17.99382      4.13176     35.06485         0.090791      0.210376     -0.042069
      0.58664     13.97548     35.12950         0.203567      0.004721     -0.478253
      9.45426      4.89135     35.07728        -0.663149      0.252792      0.212474
      8.91690     13.78568     34.81141        -0.642802     -0.038011      0.305957
      4.24263      9.23012     34.82511         0.093169      0.429771     -0.078523
      4.80382     17.96459     34.74831        -0.039361      0.081432      0.005772
     13.94645     17.79023     35.04192         0.065979      0.079827      0.110020
      0.15407      4.37704     40.71201        -0.629991      0.704459     -0.428477
      0.30010     13.75937     40.80373        -0.661538      1.525180     -0.564238
      9.14825      4.64399     40.54510        -0.619273      0.899528     -0.454312
      8.87657     13.66451     40.59856        -0.288581      0.305646     -0.402727
      4.52362      8.95300     40.61272         0.799850      1.021630     -0.351727
      4.51102     17.95361     40.52977        -0.039142     -0.231041     -0.445356
     13.40775      9.28836     40.60147        -0.412244     -0.529531      0.440045
     13.52155     18.04586     40.62306         0.954084      0.968725     -0.049043
      9.02897      4.51561     46.44552         0.013798      0.001529      0.035970
      9.02651     13.54701     46.44552         0.021798     -0.005563      0.052674
     18.05937      4.51561     46.44552         0.008678      0.007897      0.055467
     18.05691     13.54701     46.44552         0.019137      0.000841      0.025305
      4.51521      0.00002     46.44421        -0.001207     -0.002697      0.062951
      4.51275      9.03142     46.44421        -0.005355     -0.003620      0.044669
     13.54561      0.00002     46.44421        -0.004361     -0.006105      0.041440
     13.54315      9.03142     46.44421        -0.022245     -0.018903      0.036424
     16.98675      5.04854     31.69154        -0.254134      0.838598      0.040029
     17.46643      3.76148     31.45838         0.771615     -0.014135      0.253836
     17.90030      6.05650     32.06972        -0.485185     -0.027517      0.028599
      0.77349      3.47449     31.58805         0.009080      0.020534     -0.143860
      1.19979      5.76965     32.19266        -0.101273     -0.044330     -0.065682
      1.67922      4.48451     31.93385         0.053950     -0.114221     -0.019477
     14.77749      8.76523     33.16279         0.129986     -0.343619      0.254270
     14.30879     10.93581     34.26918        -0.184622     -0.006596      0.061811
     12.53008      9.20895     34.26142         0.137494     -0.132614      0.052041
     14.58524      8.82142     35.63095        -0.038360      0.140258     -0.252473
     14.75578      7.22036     33.08459        -0.134012      0.325433     -0.064205
     14.99256      6.77467     31.61559         0.009817     -0.445835      0.572364
     15.75756     11.37705     34.15723        -0.049991      0.117583      0.152168
     11.88418      9.52087     32.91887        -0.146625     -0.118257      0.015939
     13.92976      9.33724     36.88939         0.463016      0.176083      0.050025
     15.50451      5.32670     31.46338        -0.347639     -0.139948      0.148193
      1.04369      4.47567     35.67537        -0.080941      0.076921     -0.077179
      0.64248     12.79041     35.68916         0.303640     -0.008290     -0.096853
      9.93797      3.73692     35.46142         0.515423      0.077451     -0.266523
      9.89549     13.03620     35.25841         0.174194      0.398427     -0.426985
      8.20570      5.28308     35.28232         0.778361      0.090750     -0.316089
      7.65570     13.64627     35.18078         0.538612      0.179206     -0.403156
     16.79716      4.53155     35.44072        -0.003736     -0.070883      0.248926
     17.63930     14.81618     35.23811         0.280876      0.162624     -0.175581
      4.57666      8.10393     35.40834         0.459140      0.148712      0.260936
      3.56832      0.21448     35.03129        -0.429254      0.609087      0.474908
     12.65547     17.77950     35.24866        -0.543148      0.236589      0.330663
      5.85051      0.61701     35.08582         0.205401      0.500216      0.436014
      4.85871     10.38313     35.01088         0.255017     -0.495188      0.273491
     14.75396      0.69674     35.40212         0.034366      0.642191      0.297471
      1.03490      3.50054     41.07798         0.474408     -0.515777     -0.131186
      0.89656     12.67642     41.17484         0.777076     -0.817144      0.012279
      9.83220      3.60619     40.93199         0.501168     -0.408867     -0.332905
      9.59063     12.91347     41.40756         0.152798     -0.207802     -0.649208
      3.89687      8.08261     41.35431        -0.487520     -0.502728     -0.447093
      3.55508     17.25919     41.10042        -0.107633     -0.134246     -0.484646
     12.60421      8.38318     41.13661         1.088556      0.569258      0.353680
     12.70478     17.26082     41.26810        -0.360512     -0.438367     -0.532221
      8.32367      5.35260     41.30486         0.505444     -0.114621     -1.141606
      8.01203     14.59017     40.96627         0.343012     -0.408942     -0.344650
     17.46228      5.09833     41.50578        -0.241330      0.201708      0.404251
     17.22183     14.22821     41.27862         0.041561     -0.321793      0.216840
      5.36737      0.67022     41.14289         0.601449      0.476607     -0.339160
      5.37867      9.87617     41.05067        -0.716816     -0.603271     -0.811913
     14.31544      0.90192     41.17881        -0.586752     -0.740577     -0.856081
     14.47337      9.79471     41.16861        -0.033665     -0.052286      0.086141
      0.82731      3.68697     47.03596         0.020804     -0.026875     -0.103200
      0.82485     12.71837     47.03596         0.016690     -0.018906     -0.074902
      9.85771      3.68697     47.03596         0.020042     -0.021457     -0.090847
      9.85525     12.71837     47.03596         0.012193     -0.012167     -0.086150
      3.68432      8.20234     47.03465        -0.009195     -0.010957     -0.072673
      3.68186     17.23373     47.03465        -0.007769     -0.005731     -0.070987
     12.71472      8.20234     47.03465         0.003252     -0.000520     -0.069195
     12.71226     17.23373     47.03465        -0.010117     -0.009970     -0.073205
      8.20068      5.34457     47.03603        -0.023156      0.020372     -0.091955
      8.19822     14.37597     47.03603        -0.026873      0.022043     -0.094687
     17.23108      5.34457     47.03603        -0.018626      0.015077     -0.107289
     17.22862     14.37597     47.03603        -0.023694      0.019609     -0.076419
      5.34365      0.82909     47.03465         0.007884      0.010457     -0.079917
      5.34119      9.86049     47.03465         0.013960      0.014270     -0.068773
     14.37405      0.82909     47.03465         0.014470      0.015641     -0.070154
     14.37159      9.86049     47.03465         0.027881      0.028417     -0.076925
     14.04701      9.42185     34.31966         0.013801      0.019475      0.172182
      9.18932     17.66262     34.65299        -0.059184     -0.000974     -0.063699
      8.25671      8.83311     34.64289         0.117100      0.014545      0.024749
      0.11296      0.24359     34.53127        -0.069415     -0.007116     -0.029754
      0.66762      8.94301     34.69550        -0.204900     -0.030760      0.059898
      4.55835      4.41440     34.72536        -0.046827      0.003502     -0.029696
      4.24813     13.95122     34.45303        -0.040711     -0.014740      0.012873
     13.38655      4.00170     34.71131        -0.021165      0.029966     -0.047163
     12.95821     14.38288     34.40658         0.179731     -0.207378      0.114863
     17.97011     17.84777     40.90231         0.021903      0.010217      0.014535
      0.06616      9.05087     40.97880         0.004522      0.005868     -0.051524
      8.98667      0.10102     40.94884         0.002713     -0.005667     -0.057509
      8.96855      9.07857     40.92310         0.019826     -0.001395     -0.038355
      4.70156      4.26941     40.97509        -0.003828      0.029777      0.012425
      4.47219     13.56970     40.87132        -0.029643      0.019412     -0.023014
     13.38223      4.59117     40.95822         0.010219      0.036393      0.051434
     13.59531     13.52712     40.85900        -0.005045     -0.022261     -0.028915
      2.60038      2.03250     38.05974        -0.082659     -0.074571     -0.013115
      2.58066     11.04505     38.11269         0.038269     -0.037809     -0.022404
     11.63198      1.95463     38.04472        -0.023329     -0.026680      0.023539
     11.06372     11.47256     38.25116         0.116004     -0.060618     -0.165076
      6.61023      6.96569     38.26284        -0.018115     -0.012045     -0.016967
      6.59090     16.01327     37.94987        -0.085989     -0.035807     -0.037951
     16.07046      6.51619     38.43209        -0.026883      0.180425     -0.212073
     15.64454     16.01318     37.93972        -0.031075      0.036974     -0.014682
      2.19734      6.61832     38.30190         0.018662      0.057810      0.024592
      2.13645     15.82205     37.89814         0.001347     -0.008826      0.048823
     11.15876      6.70639     37.82407         0.000490      0.014780     -0.044111
     11.20641     15.67422     38.22946        -0.019788      0.010303      0.069231
      7.22418      2.61002     37.79124        -0.029071     -0.025128      0.008021
      6.78750     11.44164     37.91765         0.049526      0.007012      0.002832
     15.98106      2.47035     38.34220         0.017637     -0.078956     -0.042547
     16.41869     11.87642     38.29337        -0.105538     -0.179978     -0.209749
      0.00000      0.00000     47.17356         0.001234      0.004086      0.378970
     -0.00246      9.03140     47.17356        -0.004292     -0.001483      0.487868
      9.03040      0.00000     47.17356        -0.001623     -0.002094      0.483025
      9.02794      9.03140     47.17356        -0.003358      0.001231      0.457634
      4.51398      4.51570     47.17425        -0.001581     -0.005721      0.476838
      4.51152     13.54710     47.17425         0.002551      0.002610      0.366431
     13.54438      4.51570     47.17425         0.003188     -0.000858      0.436607
     13.54192     13.54710     47.17425         0.001769     -0.002566      0.350862
      2.45192      2.06295     44.04013         0.013540     -0.061315      0.011762
      2.44946     11.09435     44.04013         0.040815     -0.030356      0.018393
     11.48232      2.06295     44.04013        -0.015027     -0.007337     -0.064402
     11.47986     11.09435     44.04013         0.003888      0.014923     -0.019235
      6.57602      6.96845     44.04013        -0.061871      0.015988      0.002171
      6.57356     15.99985     44.04013        -0.005411     -0.003164     -0.023891
     15.60642      6.96845     44.04013        -0.052314      0.051194     -0.050344
     15.60396     15.99985     44.04013        -0.045075      0.027761      0.013656
      2.06108      6.57881     44.04000        -0.010221     -0.064061      0.015967
      2.05862     15.61021     44.04000         0.033270      0.046816      0.002077
     11.09148      6.57881     44.04000         0.020996      0.018324     -0.012642
     11.08902     15.61021     44.04000        -0.022072     -0.026102      0.004009
      6.96686      2.45259     44.04007         0.022482     -0.006903     -0.003536
      6.96440     11.48399     44.04007        -0.021266      0.010923     -0.036361
     15.99726      2.45259     44.04007         0.025899      0.013918     -0.015340
     15.99481     11.48399     44.04007         0.046141      0.041416     -0.070521
      2.43163      2.08322     50.06849         0.000072     -0.019555      0.020006
      2.42917     11.11462     50.06849         0.017582     -0.002535      0.022925
     11.46203      2.08322     50.06849         0.012125     -0.009060      0.022047
     11.45957     11.11462     50.06849         0.018111     -0.001820      0.022335
      6.59631      6.94818     50.06849        -0.009607      0.011050      0.022483
      6.59385     15.97958     50.06849        -0.017555      0.003088      0.021373
     15.62671      6.94818     50.06849        -0.011609      0.007353      0.020664
     15.62425     15.97958     50.06849        -0.010810      0.010821      0.022644
      2.08113      6.59901     50.06905        -0.011917     -0.009652      0.021774
      2.07867     15.63041     50.06905        -0.011014     -0.008281      0.021918
     11.11153      6.59901     50.06905        -0.008498     -0.011169      0.022877
     11.10907     15.63041     50.06905        -0.000970     -0.019525      0.021949
      6.94681      2.43239     50.06905         0.010440      0.007495      0.021848
      6.94435     11.46379     50.06905         0.002996      0.018142      0.022787
     15.97721      2.43239     50.06905         0.017153      0.003743      0.021780
     15.97475     11.46379     50.06905         0.001186      0.018651      0.021597
     18.05591      0.13446     37.80872        -0.007683      0.002241     -0.029639
      0.13471      9.08943     37.81693         0.004039      0.023456     -0.022419
      9.06238     17.95386     37.76731         0.072131      0.042114     -0.004750
      8.94446      9.01379     37.71805         0.041333      0.047232     -0.031215
      4.56467      4.54824     37.86497         0.095648     -0.016133      0.009320
      4.38206     13.67204     37.72725         0.046656     -0.001024     -0.021242
     13.55353      4.55180     37.89163        -0.042801      0.024883     -0.016936
     13.53620     13.67395     37.69609        -0.023131      0.042174      0.038569
      0.00001      0.00001     44.04300        -0.056484     -0.099793      0.157193
     -0.00245      9.03141     44.04300         0.109467     -0.030471      0.223995
      9.03041      0.00001     44.04300         0.009478     -0.002269      0.140909
      9.02795      9.03141     44.04300         0.075021     -0.003849      0.102244
      4.51397      4.51569     44.04275         0.024205      0.045147      0.172866
      4.51151     13.54709     44.04275        -0.085112     -0.019379      0.101780
     13.54437      4.51569     44.04275        -0.050181      0.013713      0.202789
     13.54191     13.54709     44.04275        -0.072898      0.031369      0.059677
      0.00000      0.00000     50.44728         0.001989      0.006580     -0.619603
     -0.00246      9.03140     50.44728         0.002157     -0.007200     -0.646929
      9.03040      0.00000     50.44728        -0.001690      0.009269     -0.646543
      9.02794      9.03140     50.44728        -0.003130     -0.008292     -0.642500
      4.51397      4.51570     50.44728         0.005888      0.005527     -0.643133
      4.51151     13.54710     50.44728         0.004361     -0.005352     -0.617625
     13.54437      4.51570     50.44728        -0.006423      0.004167     -0.634146
     13.54191     13.54710     50.44728        -0.004119     -0.004831     -0.613372
 -----------------------------------------------------------------------------------
    total drift:                                0.033900     -0.012524      0.311652


--------------------------------------------------------------------------------------------------------



  FREE ENERGIE OF THE ION-ELECTRON SYSTEM (eV)
  ---------------------------------------------------
  free  energy   TOTEN  =     -1575.42435384 eV

  energy  without entropy=    -1575.42435384  energy(sigma->0) =    -1575.42435384
 


--------------------------------------------------------------------------------------------------------


    POTLOK:  cpu time    0.5012: real time    0.5011


--------------------------------------------------------------------------------------------------------


     LOOP+:  cpu time  305.6136: real time  306.2088
 vacuum level on the upper side and lower side of the slab         2.312         1.596
    4ORBIT:  cpu time    0.0000: real time    0.0000

 total amount of memory used by VASP MPI-rank0  8653573. kBytes
=======================================================================

   base      :      30000. kBytes
   nonlr-proj:      53611. kBytes
   fftplans  :     249280. kBytes
   grid      :     701440. kBytes
   one-center:       2636. kBytes
   wavefun   :    7616606. kBytes
 
  
  
 General timing and accounting informations for this job:
 ========================================================
  
                  Total CPU time used (sec):      519.059
                            User time (sec):      419.344
                          System time (sec):       99.715
                         Elapsed time (sec):      520.039
  
                   Maximum memory used (kb):    10307788.
                   Average memory used (kb):          N/A
  
                          Minor page faults:      3685382
                          Major page faults:           13
                 Voluntary context switches:        11246
