 vasp.6.2.1 16May21 (build Nov 15 2021 14:57:28) complex                         
 executed on             LinuxPGI date 2023.07.30  17:52:31
 running on    4 total cores
 distrk:  each k-point on    4 cores,    1 groups
 distr:  one band on NCORE=   1 cores,    4 groups


--------------------------------------------------------------------------------------------------------


 INCAR:
   SYSTEM = PSC
   ISTART = 1
   ICHARG = 1
   PREC = Normal
   ENCUT = 500
   GGA_COMPAT = F
   NELM = 600
   ISYM = 0
   LREAL = Auto
   ISMEAR = 0
   SIGMA = 0.05
   AMIN = 0.01
   BMIX = 0.01
   LVTOT = T
   LWAVE = F
   LDIPOL = T
   IDIPOL = 3
   LVDW = T
   IVDW = 12

 POTCAR:    PAW_PBE H 15Jun2001                   
 POTCAR:    PAW_PBE C 08Apr2002                   
 POTCAR:    PAW_PBE N 08Apr2002                   
 POTCAR:    PAW_PBE I 08Apr2002                   
 POTCAR:    PAW_PBE Pb 08Apr2002                  
 WARNING: For LVTOT=.TRUE., VASP.5.x writes the TOTAL local potential to the
     file LOCPOT. If you want only the Hartree contributions, use LVHAR=.TRUE.
     instead. 

 POTCAR:    PAW_PBE H 15Jun2001                   
   SHA256 =  030f79b5d3ab3cf0e668861823c8fb652ff669f3e15e46930bd03bfd63a607b6 H/POTCAR              
   COPYR  = (c) Copyright 15Jun2001 Georg Kresse                                                    
   COPYR  = This file is part of the software VASP. Any use, copying, and all other rights are regul
   COPYR  = If you do not have a valid VASP license, you may not use, copy or distribute this file. 
   VRHFIN =H: ultrasoft test                                                                        
   LEXCH  = PE                                                                                      
   EATOM  =    12.4884 eV,    0.9179 Ry                                                             
                                                                                                    
   TITEL  = PAW_PBE H 15Jun2001                                                                     
   LULTRA =        F    use ultrasoft PP ?                                                          
   IUNSCR =        0    unscreen: 0-lin 1-nonlin 2-no                                               
   RPACOR =    0.000    partial core radius                                                         
   POMASS =    1.000; ZVAL   =    1.000    mass and valenz                                          
   RCORE  =    1.100    outmost cutoff radius                                                       
   RWIGS  =    0.700; RWIGS  =    0.370    wigner-seitz radius (au A)                               
   ENMAX  =  250.000; ENMIN  =  200.000 eV                                                          
   RCLOC  =    0.701    cutoff for local pot                                                        
   LCOR   =        T    correct aug charges                                                         
   LPAW   =        T    paw PP                                                                      
   EAUG   =  400.000                                                                                
   RMAX   =    1.123    core radius for proj-oper                                                   
   RAUG   =    1.200    factor for augmentation sphere                                              
   RDEP   =    1.112    radius for radial grids                                                     
   RDEPT  =    0.926    core radius for aug-charge                                                  
                                                                                                    
   Atomic configuration                                                                             
    2 entries                                                                                       
     n  l   j            E        occ.                                                              
     1  0  0.50        -6.4927   1.0000                                                             
     2  1  0.50        -3.4015   0.0000                                                             
   Description                                                                                      
     l       E           TYP  RCUT    TYP  RCUT                                                     
     0     -6.4927494     23  1.100                                                                 
     0      6.8029130     23  1.100                                                                 
     1     -4.0817478     23  1.100                                                                 
  local pseudopotential read in
  atomic valenz-charges read in
  non local Contribution for L=            0  read in
    real space projection operators read in
  non local Contribution for L=            0  read in
    real space projection operators read in
  non local Contribution for L=            1  read in
    real space projection operators read in
    PAW grid and wavefunctions read in
 
   number of l-projection  operators is LMAX  =            3
   number of lm-projection operators is LMMAX =            5
 
 POTCAR:    PAW_PBE C 08Apr2002                   
   SHA256 =  253f7b50bb8d59471dbedb8285d89021f4a42ed1a2c5d38a03a736e69125dd95 C/POTCAR              
   COPYR  = (c) Copyright 08Apr2002 Georg Kresse                                                    
   COPYR  = This file is part of the software VASP. Any use, copying, and all other rights are regul
   COPYR  = If you do not have a valid VASP license, you may not use, copy or distribute this file. 
   VRHFIN =C: s2p2                                                                                  
   LEXCH  = PE                                                                                      
   EATOM  =   147.1560 eV,   10.8157 Ry                                                             
                                                                                                    
   TITEL  = PAW_PBE C 08Apr2002                                                                     
   LULTRA =        F    use ultrasoft PP ?                                                          
   IUNSCR =        1    unscreen: 0-lin 1-nonlin 2-no                                               
   RPACOR =    1.200    partial core radius                                                         
   POMASS =   12.011; ZVAL   =    4.000    mass and valenz                                          
   RCORE  =    1.500    outmost cutoff radius                                                       
   RWIGS  =    1.630; RWIGS  =    0.863    wigner-seitz radius (au A)                               
   ENMAX  =  400.000; ENMIN  =  300.000 eV                                                          
   ICORE  =        2    local potential                                                             
   LCOR   =        T    correct aug charges                                                         
   LPAW   =        T    paw PP                                                                      
   EAUG   =  644.873                                                                                
   DEXC   =    0.000                                                                                
   RMAX   =    1.529    core radius for proj-oper                                                   
   RAUG   =    1.300    factor for augmentation sphere                                              
   RDEP   =    1.501    radius for radial grids                                                     
   RDEPT  =    1.300    core radius for aug-charge                                                  
                                                                                                    
   Atomic configuration                                                                             
    4 entries                                                                                       
     n  l   j            E        occ.                                                              
     1  0  0.50      -273.3789   2.0000                                                             
     2  0  0.50       -13.7508   2.0000                                                             
     2  1  0.50        -5.2854   2.0000                                                             
     3  2  1.50        -5.4423   0.0000                                                             
   Description                                                                                      
     l       E           TYP  RCUT    TYP  RCUT                                                     
     0    -13.7508458     23  1.200                                                                 
     0     -8.2022199     23  1.200                                                                 
     1     -5.2854383     23  1.500                                                                 
     1     34.0145650     23  1.500                                                                 
     2     -5.4423304      7  1.500                                                                 
  local pseudopotential read in
  partial core-charges read in
  partial kinetic energy density read in
  atomic valenz-charges read in
  non local Contribution for L=            0  read in
    real space projection operators read in
  non local Contribution for L=            0  read in
    real space projection operators read in
  non local Contribution for L=            1  read in
    real space projection operators read in
  non local Contribution for L=            1  read in
    real space projection operators read in
    PAW grid and wavefunctions read in
 
   number of l-projection  operators is LMAX  =            4
   number of lm-projection operators is LMMAX =            8
 
 POTCAR:    PAW_PBE N 08Apr2002                   
   SHA256 =  e053789ff3a61a86a1b75d8a110fcc91f86041011e7b0817c7c99e4e8a6349d7 N/POTCAR              
   COPYR  = (c) Copyright 08Apr2002 Georg Kresse                                                    
   COPYR  = This file is part of the software VASP. Any use, copying, and all other rights are regul
   COPYR  = If you do not have a valid VASP license, you may not use, copy or distribute this file. 
   VRHFIN =N: s2p3                                                                                  
   LEXCH  = PE                                                                                      
   EATOM  =   264.5486 eV,   19.4438 Ry                                                             
                                                                                                    
   TITEL  = PAW_PBE N 08Apr2002                                                                     
   LULTRA =        F    use ultrasoft PP ?                                                          
   IUNSCR =        1    unscreen: 0-lin 1-nonlin 2-no                                               
   RPACOR =    1.200    partial core radius                                                         
   POMASS =   14.001; ZVAL   =    5.000    mass and valenz                                          
   RCORE  =    1.500    outmost cutoff radius                                                       
   RWIGS  =    1.400; RWIGS  =    0.741    wigner-seitz radius (au A)                               
   ENMAX  =  400.000; ENMIN  =  300.000 eV                                                          
   ICORE  =        2    local potential                                                             
   LCOR   =        T    correct aug charges                                                         
   LPAW   =        T    paw PP                                                                      
   EAUG   =  627.112                                                                                
   DEXC   =    0.000                                                                                
   RMAX   =    1.529    core radius for proj-oper                                                   
   RAUG   =    1.300    factor for augmentation sphere                                              
   RDEP   =    1.514    radius for radial grids                                                     
   RDEPT  =    1.338    core radius for aug-charge                                                  
                                                                                                    
   Atomic configuration                                                                             
    4 entries                                                                                       
     n  l   j            E        occ.                                                              
     1  0  0.50      -384.7179   2.0000                                                             
     2  0  0.50       -18.5828   2.0000                                                             
     2  1  0.50        -7.0898   3.0000                                                             
     3  2  1.50        -6.8029   0.0000                                                             
   Description                                                                                      
     l       E           TYP  RCUT    TYP  RCUT                                                     
     0    -18.5828119     23  1.200                                                                 
     0    -13.5018863     23  1.200                                                                 
     1     -7.0897853     23  1.500                                                                 
     1      9.5240782     23  1.500                                                                 
     2     -6.8029130      7  1.500                                                                 
  local pseudopotential read in
  partial core-charges read in
  partial kinetic energy density read in
  atomic valenz-charges read in
  non local Contribution for L=            0  read in
    real space projection operators read in
  non local Contribution for L=            0  read in
    real space projection operators read in
  non local Contribution for L=            1  read in
    real space projection operators read in
  non local Contribution for L=            1  read in
    real space projection operators read in
    PAW grid and wavefunctions read in
 
   number of l-projection  operators is LMAX  =            4
   number of lm-projection operators is LMMAX =            8
 
 POTCAR:    PAW_PBE I 08Apr2002                   
   SHA256 =  e40f3f59b681c1fc3e3091736183c4589116986673d2b852a5012aec72758799 I/POTCAR              
   COPYR  = (c) Copyright 08Apr2002 Georg Kresse                                                    
   COPYR  = This file is part of the software VASP. Any use, copying, and all other rights are regul
   COPYR  = If you do not have a valid VASP license, you may not use, copy or distribute this file. 
   VRHFIN =I : s2p5                                                                                 
   LEXCH  = PE                                                                                      
   EATOM  =   315.8678 eV,   23.2156 Ry                                                             
                                                                                                    
   TITEL  = PAW_PBE I 08Apr2002                                                                     
   LULTRA =        F    use ultrasoft PP ?                                                          
   IUNSCR =        1    unscreen: 0-lin 1-nonlin 2-no                                               
   RPACOR =    2.200    partial core radius                                                         
   POMASS =  126.904; ZVAL   =    7.000    mass and valenz                                          
   RCORE  =    2.300    outmost cutoff radius                                                       
   RWIGS  =    2.810; RWIGS  =    1.487    wigner-seitz radius (au A)                               
   ENMAX  =  175.647; ENMIN  =  131.735 eV                                                          
   ICORE  =        3    local potential                                                             
   LCOR   =        T    correct aug charges                                                         
   LPAW   =        T    paw PP                                                                      
   EAUG   =  370.139                                                                                
   DEXC   =    0.000                                                                                
   RMAX   =    2.359    core radius for proj-oper                                                   
   RAUG   =    1.300    factor for augmentation sphere                                              
   RDEP   =    2.392    radius for radial grids                                                     
   RDEPT  =    2.170    core radius for aug-charge                                                  
                                                                                                    
   Atomic configuration                                                                             
   13 entries                                                                                       
     n  l   j            E        occ.                                                              
     1  0  0.50    -32976.3739   2.0000                                                             
     2  0  0.50     -5094.5933   2.0000                                                             
     2  1  1.50     -4572.0131   6.0000                                                             
     3  0  0.50     -1028.2813   2.0000                                                             
     3  1  1.50      -859.0250   6.0000                                                             
     3  2  2.50      -605.7620  10.0000                                                             
     4  0  0.50      -180.5540   2.0000                                                             
     4  1  1.50      -127.5306   6.0000                                                             
     4  2  2.50       -50.2720  10.0000                                                             
     5  0  0.50       -17.4058   2.0000                                                             
     5  1  0.50        -7.0851   5.0000                                                             
     5  2  1.50        -7.0750   0.0000                                                             
     4  3  2.50        -7.0750   0.0000                                                             
   Description                                                                                      
     l       E           TYP  RCUT    TYP  RCUT                                                     
     0    -17.4058016     23  2.300                                                                 
     0    -18.7663842     23  2.300                                                                 
     1     -7.0850686     23  2.300                                                                 
     1     -4.2150896     23  2.300                                                                 
     2     -7.0750295     23  2.300                                                                 
     3     -1.3605826     23  2.300                                                                 
  local pseudopotential read in
  partial core-charges read in
  partial kinetic energy density read in
  atomic valenz-charges read in
  non local Contribution for L=            0  read in
    real space projection operators read in
  non local Contribution for L=            0  read in
    real space projection operators read in
  non local Contribution for L=            1  read in
    real space projection operators read in
  non local Contribution for L=            1  read in
    real space projection operators read in
  non local Contribution for L=            2  read in
    real space projection operators read in
    PAW grid and wavefunctions read in
 
   number of l-projection  operators is LMAX  =            5
   number of lm-projection operators is LMMAX =           13
 
 POTCAR:    PAW_PBE Pb 08Apr2002                  
   SHA256 =  797118a27cf1bcd06b9881c67a26cdde129e3cd1a551dd4a281f9681ce847303 Pb/POTCAR             
   COPYR  = (c) Copyright 08Apr2002 Georg Kresse                                                    
   COPYR  = This file is part of the software VASP. Any use, copying, and all other rights are regul
   COPYR  = If you do not have a valid VASP license, you may not use, copy or distribute this file. 
   VRHFIN =Pb:                                                                                      
   LEXCH  = PE                                                                                      
   EATOM  =    96.9868 eV,    7.1283 Ry                                                             
                                                                                                    
   TITEL  = PAW_PBE Pb 08Apr2002                                                                    
   LULTRA =        F    use ultrasoft PP ?                                                          
   IUNSCR =        1    unscreen: 0-lin 1-nonlin 2-no                                               
   RPACOR =    2.200    partial core radius                                                         
   POMASS =  207.200; ZVAL   =    4.000    mass and valenz                                          
   RCORE  =    3.100    outmost cutoff radius                                                       
   RWIGS  =    3.260; RWIGS  =    1.725    wigner-seitz radius (au A)                               
   ENMAX  =   97.973; ENMIN  =   73.480 eV                                                          
   ICORE  =        3    local potential                                                             
   LCOR   =        T    correct aug charges                                                         
   LPAW   =        T    paw PP                                                                      
   EAUG   =  234.873                                                                                
   DEXC   =    0.000                                                                                
   RMAX   =    3.158    core radius for proj-oper                                                   
   RAUG   =    1.300    factor for augmentation sphere                                              
   RDEP   =    3.202    radius for radial grids                                                     
   RDEPT  =    2.659    core radius for aug-charge                                                  
                                                                                                    
   Atomic configuration                                                                             
   17 entries                                                                                       
     n  l   j            E        occ.                                                              
     1  0  0.50    -88091.8466   2.0000                                                             
     2  0  0.50    -15753.4197   2.0000                                                             
     2  1  1.50    -13508.1797   6.0000                                                             
     3  0  0.50     -3781.7194   2.0000                                                             
     3  1  1.50     -3138.2529   6.0000                                                             
     3  2  2.50     -2483.2977  10.0000                                                             
     4  0  0.50      -856.2895   2.0000                                                             
     4  1  1.50      -645.4943   6.0000                                                             
     4  2  2.50      -401.8768  10.0000                                                             
     4  3  3.50      -132.9059  14.0000                                                             
     5  0  0.50      -144.0950   2.0000                                                             
     5  1  1.50       -85.7879   6.0000                                                             
     5  2  2.50       -21.1769  10.0000                                                             
     6  0  0.50       -12.0372   2.0000                                                             
     6  1  1.50        -3.4971   2.0000                                                             
     6  2  2.50        -1.3606   0.0000                                                             
     5  3  2.50        -2.7212   0.0000                                                             
   Description                                                                                      
     l       E           TYP  RCUT    TYP  RCUT                                                     
     0    -12.0371566     23  3.100                                                                 
     0    -13.3977392     23  3.100                                                                 
     1     -3.4971341     23  3.100                                                                 
     1     -5.4423304     23  3.100                                                                 
     2     -1.3605826     23  3.100                                                                 
     3     -1.3605826     23  3.100                                                                 
  local pseudopotential read in
  partial core-charges read in
  partial kinetic energy density read in
  atomic valenz-charges read in
  non local Contribution for L=            0  read in
    real space projection operators read in
  non local Contribution for L=            0  read in
    real space projection operators read in
  non local Contribution for L=            1  read in
    real space projection operators read in
  non local Contribution for L=            1  read in
    real space projection operators read in
  non local Contribution for L=            2  read in
    real space projection operators read in
    PAW grid and wavefunctions read in
 
   number of l-projection  operators is LMAX  =            5
   number of lm-projection operators is LMMAX =           13
 
 Optimization of the real space projectors (new method)

 maximal supplied QI-value         = 34.20
 optimisation between [QCUT,QGAM] = [ 11.29, 22.57] = [ 35.68,142.71] Ry 
 Optimized for a Real-space Cutoff    1.16 Angstroem

   l    n(q)    QCUT    max X(q) W(low)/X(q) W(high)/X(q)  e(spline) 
   0      8    11.287    19.460    0.40E-03    0.73E-03    0.16E-06
   0      8    11.287    12.209    0.38E-03    0.70E-03    0.15E-06
   1      7    11.287     4.655    0.22E-03    0.25E-04    0.22E-06
 Optimization of the real space projectors (new method)

 maximal supplied QI-value         = 25.13
 optimisation between [QCUT,QGAM] = [ 11.31, 22.87] = [ 35.82,146.48] Ry 
 Optimized for a Real-space Cutoff    1.00 Angstroem

   l    n(q)    QCUT    max X(q) W(low)/X(q) W(high)/X(q)  e(spline) 
   0      7    11.310   115.676    0.43E-03    0.13E-02    0.19E-06
   0      7    11.310    87.132    0.43E-03    0.13E-02    0.18E-06
   1      6    11.310     4.429    0.42E-03    0.74E-03    0.11E-06
   1      6    11.310     2.733    0.34E-03    0.55E-03    0.92E-07
 Optimization of the real space projectors (new method)

 maximal supplied QI-value         = 25.13
 optimisation between [QCUT,QGAM] = [ 11.31, 22.87] = [ 35.82,146.48] Ry 
 Optimized for a Real-space Cutoff    1.27 Angstroem

   l    n(q)    QCUT    max X(q) W(low)/X(q) W(high)/X(q)  e(spline) 
   0      9    11.310    79.467    0.75E-04    0.16E-03    0.36E-06
   0      9    11.310    66.151    0.74E-04    0.16E-03    0.36E-06
   1      8    11.310    17.416    0.35E-03    0.12E-03    0.95E-06
   1      8    11.310    12.382    0.37E-03    0.13E-03    0.98E-06
 Optimization of the real space projectors (new method)

 maximal supplied QI-value         = 16.25
 optimisation between [QCUT,QGAM] = [ 11.38, 22.75] = [ 36.24,144.96] Ry 
 Optimized for a Real-space Cutoff    1.31 Angstroem

   l    n(q)    QCUT    max X(q) W(low)/X(q) W(high)/X(q)  e(spline) 
   0      9    11.376   194.483    0.24E-03    0.23E-03    0.67E-07
   0      9    11.376   190.334    0.23E-03    0.22E-03    0.65E-07
   1      8    11.376   116.687    0.25E-03    0.63E-04    0.16E-06
   1      8    11.376    88.696    0.25E-03    0.61E-04    0.16E-06
   2      8    11.376     4.877    0.17E-03    0.14E-03    0.29E-07
 Optimization of the real space projectors (new method)

 maximal supplied QI-value         = 12.09
 optimisation between [QCUT,QGAM] = [ 11.37, 22.86] = [ 36.19,146.31] Ry 
 Optimized for a Real-space Cutoff    1.66 Angstroem

   l    n(q)    QCUT    max X(q) W(low)/X(q) W(high)/X(q)  e(spline) 
   0     11    11.369   135.111    0.12E-03    0.69E-04    0.19E-05
   0     11    11.369   146.850    0.11E-03    0.65E-04    0.18E-05
   1     11    11.369   148.016    0.17E-03    0.32E-03    0.89E-06
   1     11    11.369   122.989    0.17E-03    0.32E-03    0.91E-06
   2     10    11.369     8.916    0.12E-03    0.45E-04    0.33E-06
  PAW_PBE H 15Jun2001                   :
 energy of atom  1       EATOM=  -12.4884
 kinetic energy error for atom=    0.0020 (will be added to EATOM!!)
  PAW_PBE C 08Apr2002                   :
 energy of atom  2       EATOM= -147.1560
 kinetic energy error for atom=    0.0076 (will be added to EATOM!!)
  PAW_PBE N 08Apr2002                   :
 energy of atom  3       EATOM= -264.5486
 kinetic energy error for atom=    0.0138 (will be added to EATOM!!)
  PAW_PBE I 08Apr2002                   :
 energy of atom  4       EATOM= -315.8678
 kinetic energy error for atom=    0.0009 (will be added to EATOM!!)
  PAW_PBE Pb 08Apr2002                  :
 energy of atom  5       EATOM=  -96.9868
 kinetic energy error for atom=    0.0000 (will be added to EATOM!!)
 
 
 POSCAR:  H  C  N  I Pb
  positions in cartesian coordinates
  No initial velocities read in
 exchange correlation table for  LEXCH =        8
   RHO(1)=    0.500       N(1)  =     2000
   RHO(2)=  100.500       N(2)  =     4000
 


--------------------------------------------------------------------------------------------------------


 ion  position               nearest neighbor table
   1  0.448  0.304  0.581- 187 0.98
   2  0.446  0.838  0.577- 188 1.02
   3  0.941  0.264  0.585- 189 1.04
   4  0.964  0.806  0.587- 190 1.02
   5  0.300  0.046  0.582- 194 1.03
   6  0.306  0.557  0.582- 195 1.04
   7  0.777  0.069  0.582- 196 1.04
   8  0.107  0.206  0.555- 183 1.02
   9  0.088  0.681  0.558- 184 1.03
  10  0.576  0.179  0.558- 185 1.00
  11  0.523  0.657  0.567- 186 1.02
  12  0.359  0.033  0.561- 194 1.00
  13  0.298  0.606  0.559- 195 0.99
  14  0.844  0.063  0.562- 196 0.99
  15  0.071  0.210  0.581- 183 1.02
  16  0.041  0.692  0.582- 184 1.00
  17  0.561  0.235  0.579- 185 1.00
  18  0.496  0.714  0.587- 186 1.02
  19  0.235  0.435  0.583- 191 1.04
  20  0.174  0.986  0.580- 192 1.04
  21  0.680  0.972  0.581- 193 1.03
  22  0.382  0.288  0.561- 187 1.02
  23  0.451  0.862  0.550- 188 1.01
  24  0.897  0.281  0.561- 189 1.01
  25  0.962  0.866  0.565- 190 1.04
  26  0.189  0.412  0.560- 191 0.98
  27  0.155  0.943  0.556- 192 0.99
  28  0.688  0.904  0.561- 193 1.01
  29  0.459  0.208  0.543- 146 1.09
  30  0.501  0.751  0.541- 147 1.08
  31  0.999  0.249  0.540- 144 1.07
  32  0.042  0.790  0.544- 145 1.08
  33  0.224  0.518  0.542- 148 1.08
  34  0.270  0.967  0.541- 149 1.09
  35  0.792  0.959  0.547- 150 1.08
  36  0.454  0.308  0.676- 205 1.00
  37  0.437  0.818  0.672- 206 1.00
  38  0.961  0.284  0.680- 207 1.01
  39  0.937  0.802  0.675- 208 1.04
  40  0.306  0.054  0.674- 209 1.00
  41  0.296  0.553  0.676- 210 1.01
  42  0.806  0.051  0.676- 211 1.00
  43  0.837  0.534  0.671- 212 1.00
  44  0.084  0.172  0.646- 197 1.04
  45  0.094  0.688  0.655- 198 1.03
  46  0.570  0.163  0.652- 199 1.04
  47  0.569  0.672  0.659- 200 1.00
  48  0.185  0.411  0.649- 201 1.03
  49  0.171  0.921  0.653- 202 1.02
  50  0.659  0.451  0.656- 203 1.02
  51  0.666  0.933  0.651- 204 1.03
  52  0.064  0.188  0.673- 197 1.03
  53  0.044  0.700  0.678- 198 1.04
  54  0.555  0.203  0.676- 199 1.02
  55  0.531  0.714  0.681- 200 1.04
  56  0.208  0.439  0.675- 201 1.01
  57  0.204  0.954  0.677- 202 1.01
  58  0.723  0.450  0.677- 203 1.03
  59  0.695  0.961  0.676- 204 1.01
  60  0.414  0.324  0.652- 205 1.02
  61  0.426  0.836  0.645- 206 1.02
  62  0.923  0.322  0.656- 207 1.01
  63  0.929  0.839  0.650- 208 1.02
  64  0.331  0.077  0.648- 209 1.03
  65  0.322  0.588  0.652- 210 1.05
  66  0.841  0.073  0.651- 211 1.02
  67  0.841  0.576  0.646- 212 1.00
  68  0.997  0.256  0.634- 151 1.10
  69  0.028  0.776  0.635- 152 1.10
  70  0.483  0.235  0.634- 153 1.10
  71  0.508  0.746  0.635- 154 1.09
  72  0.249  0.995  0.632- 156 1.10
  73  0.253  0.502  0.632- 155 1.09
  74  0.757  0.001  0.633- 158 1.10
  75  0.732  0.530  0.635- 157 1.07
  76  0.449  0.301  0.769- 221 1.02
  77  0.449  0.801  0.769- 222 1.02
  78  0.949  0.301  0.769- 223 1.02
  79  0.949  0.801  0.769- 224 1.02
  80  0.301  0.051  0.769- 225 1.02
  81  0.301  0.551  0.769- 226 1.02
  82  0.801  0.051  0.769- 227 1.02
  83  0.801  0.551  0.769- 228 1.02
  84  0.079  0.171  0.743- 213 1.02
  85  0.079  0.671  0.743- 214 1.02
  86  0.579  0.171  0.743- 215 1.02
  87  0.579  0.671  0.743- 216 1.02
  88  0.171  0.421  0.743- 217 1.02
  89  0.171  0.921  0.743- 218 1.02
  90  0.671  0.421  0.743- 219 1.02
  91  0.671  0.921  0.743- 220 1.02
  92  0.051  0.199  0.769- 213 1.02
  93  0.051  0.699  0.769- 214 1.02
  94  0.551  0.199  0.769- 215 1.02
  95  0.551  0.699  0.769- 216 1.02
  96  0.199  0.449  0.769- 217 1.02
  97  0.199  0.949  0.769- 218 1.02
  98  0.699  0.449  0.769- 219 1.02
  99  0.699  0.949  0.769- 220 1.02
 100  0.421  0.329  0.743- 221 1.02
 101  0.421  0.829  0.743- 222 1.02
 102  0.921  0.329  0.743- 223 1.02
 103  0.921  0.829  0.743- 224 1.02
 104  0.329  0.079  0.743- 225 1.02
 105  0.329  0.579  0.743- 226 1.02
 106  0.829  0.079  0.743- 227 1.02
 107  0.829  0.579  0.743- 228 1.02
 108  0.000  0.250  0.726- 161 1.09
 109  0.000  0.750  0.726- 162 1.09
 110  0.500  0.250  0.726- 159 1.09
 111  0.500  0.750  0.726- 160 1.09
 112  0.250  0.000  0.726- 163 1.09
 113  0.250  0.500  0.726- 164 1.09
 114  0.750  0.000  0.726- 165 1.09
 115  0.750  0.500  0.726- 166 1.09
 116  0.716  0.445  0.544- 173 1.10
 117  0.737  0.504  0.522- 173 1.10
 118  0.648  0.541  0.561- 174 1.10
 119  0.688  0.633  0.563- 174 1.11
 120  0.835  0.506  0.576- 175 1.09
 121  0.771  0.572  0.586- 175 1.10
 122  0.864  0.559  0.539- 176 1.08
 123  0.800  0.618  0.529- 176 1.08
 124  0.868  0.480  0.523- 177 1.10
 125  0.865  0.442  0.549- 177 1.10
 126  0.884  0.347  0.524- 178 1.09
 127  0.797  0.331  0.535- 178 1.11
 128  0.622  0.546  0.525- 179 1.10
 129  0.689  0.617  0.519- 179 1.11
 130  0.607  0.639  0.533- 179 1.09
 131  0.744  0.450  0.600- 180 1.10
 132  0.741  0.406  0.575- 180 1.11
 133  0.669  0.470  0.583- 180 1.10
 134  0.833  0.680  0.570- 181 1.10
 135  0.877  0.701  0.545- 181 1.11
 136  0.915  0.634  0.562- 181 1.11
 137  0.830  0.398  0.491- 182 1.08
 138  0.799  0.309  0.497- 182 1.09
 139  0.669  0.315  0.522- 168 1.10
 140  0.745  0.481  0.477- 169 1.10
 141  0.542  0.366  0.519- 170 1.09
 142  0.618  0.531  0.475- 171 1.08
 143  0.516  0.474  0.497- 172 1.07
 144  0.002  0.244  0.557-  31 1.07 183 1.30 189 1.34
 145  0.025  0.774  0.560-  32 1.08 190 1.32 184 1.32
 146  0.478  0.233  0.558-  29 1.09 185 1.29 187 1.31
 147  0.490  0.760  0.557-  30 1.08 186 1.31 188 1.32
 148  0.243  0.510  0.558-  33 1.08 195 1.29 191 1.32
 149  0.257  0.987  0.557-  34 1.09 192 1.30 194 1.32
 150  0.767  0.984  0.561-  35 1.08 196 1.29 193 1.32
 151  0.003  0.247  0.651-  68 1.10 197 1.28 207 1.34
 152  0.013  0.763  0.652-  69 1.10 198 1.28 208 1.31
 153  0.492  0.243  0.652-  70 1.10 199 1.28 205 1.33
 154  0.499  0.754  0.652-  71 1.09 200 1.31 206 1.33
 155  0.254  0.500  0.650-  73 1.09 210 1.30 201 1.32
 156  0.250  0.998  0.650-  72 1.10 202 1.30 209 1.33
 157  0.750  0.514  0.651-  75 1.07 203 1.31 212 1.33
 158  0.753  0.002  0.650-  74 1.10 204 1.30 211 1.33
 159  0.500  0.250  0.743- 110 1.09 221 1.31 215 1.31
 160  0.500  0.750  0.743- 111 1.09 222 1.31 216 1.31
 161  1.000  0.250  0.743- 108 1.09 223 1.31 213 1.31
 162  1.000  0.750  0.743- 109 1.09 224 1.31 214 1.31
 163  0.250  0.000  0.743- 112 1.09 225 1.31 218 1.31
 164  0.250  0.500  0.743- 113 1.09 226 1.31 217 1.31
 165  0.750  0.000  0.743- 114 1.09 227 1.31 220 1.31
 166  0.750  0.500  0.743- 115 1.09 228 1.31 219 1.31
 167  0.717  0.395  0.500- 169 1.39 168 1.40 182 1.49
 168  0.659  0.362  0.511- 139 1.10 167 1.40 170 1.41
 169  0.701  0.454  0.486- 140 1.10 167 1.39 171 1.41
 170  0.587  0.391  0.510- 141 1.09 172 1.39 168 1.41
 171  0.629  0.484  0.485- 142 1.08 169 1.41 172 1.43
 172  0.570  0.452  0.497- 143 1.07 170 1.39 171 1.43
 173  0.758  0.484  0.538- 116 1.10 117 1.10 229 1.48 177 1.56
 174  0.684  0.582  0.553- 118 1.10 119 1.11 179 1.53 229 1.55
 175  0.777  0.524  0.576- 120 1.09 121 1.10 229 1.51 180 1.53
 176  0.822  0.597  0.544- 122 1.08 123 1.08 229 1.51 181 1.51
 177  0.834  0.446  0.534- 125 1.10 124 1.10 178 1.54 173 1.56
 178  0.827  0.368  0.524- 126 1.09 127 1.11 182 1.52 177 1.54
 179  0.650  0.596  0.531- 130 1.09 128 1.10 129 1.11 174 1.53
 180  0.729  0.460  0.583- 133 1.10 131 1.10 132 1.11 175 1.53
 181  0.862  0.655  0.556- 134 1.10 135 1.11 136 1.11 176 1.51
 182  0.794  0.366  0.502- 137 1.08 138 1.09 167 1.49 178 1.52
 183  0.063  0.218  0.565-   8 1.02  15 1.02 144 1.30
 184  0.053  0.711  0.568-  16 1.00   9 1.03 145 1.32
 185  0.541  0.212  0.566-  10 1.00  17 1.00 146 1.29
 186  0.508  0.709  0.572-  18 1.02  11 1.02 147 1.31
 187  0.434  0.281  0.567-   1 0.98  22 1.02 146 1.31
 188  0.461  0.825  0.562-  23 1.01   2 1.02 147 1.32
 189  0.943  0.265  0.569-  24 1.01   3 1.04 144 1.34
 190  0.978  0.816  0.571-   4 1.02  25 1.04 145 1.32
 191  0.221  0.447  0.567-  26 0.98  19 1.04 148 1.32
 192  0.191  0.971  0.565-  27 0.99  20 1.04 149 1.30
 193  0.706  0.952  0.568-  28 1.01  21 1.03 150 1.32
 194  0.309  0.025  0.567-  12 1.00   5 1.03 149 1.32
 195  0.284  0.561  0.567-  13 0.99   6 1.04 148 1.29
 196  0.799  0.041  0.569-  14 0.99   7 1.04 150 1.29
 197  0.053  0.201  0.657-  52 1.03  44 1.04 151 1.28
 198  0.051  0.715  0.662-  45 1.03  53 1.04 152 1.28
 199  0.541  0.202  0.661-  54 1.02  46 1.04 153 1.28
 200  0.535  0.710  0.665-  47 1.00  55 1.04 154 1.31
 201  0.214  0.446  0.659-  56 1.01  48 1.03 155 1.32
 202  0.206  0.956  0.661-  57 1.01  49 1.02 156 1.30
 203  0.709  0.468  0.662-  50 1.02  58 1.03 157 1.31
 204  0.702  0.963  0.660-  59 1.01  51 1.03 158 1.30
 205  0.451  0.295  0.661-  36 1.00  60 1.02 153 1.33
 206  0.451  0.806  0.657-  37 1.00  61 1.02 154 1.33
 207  0.958  0.288  0.664-  38 1.01  62 1.01 151 1.34
 208  0.956  0.802  0.659-  63 1.02  39 1.04 152 1.31
 209  0.299  0.046  0.658-  40 1.00  64 1.03 156 1.33
 210  0.292  0.549  0.660-  41 1.01  65 1.05 155 1.30
 211  0.803  0.045  0.660-  42 1.00  66 1.02 158 1.33
 212  0.815  0.543  0.657-  43 1.00  67 1.00 157 1.33
 213  0.046  0.204  0.753-  92 1.02  84 1.02 161 1.31
 214  0.046  0.704  0.753-  93 1.02  85 1.02 162 1.31
 215  0.546  0.204  0.753-  94 1.02  86 1.02 159 1.31
 216  0.546  0.704  0.753-  95 1.02  87 1.02 160 1.31
 217  0.204  0.454  0.753-  96 1.02  88 1.02 164 1.31
 218  0.204  0.954  0.753-  97 1.02  89 1.02 163 1.31
 219  0.704  0.454  0.753-  98 1.02  90 1.02 166 1.31
 220  0.704  0.954  0.753-  99 1.02  91 1.02 165 1.31
 221  0.454  0.296  0.753-  76 1.02 100 1.02 159 1.31
 222  0.454  0.796  0.753-  77 1.02 101 1.02 160 1.31
 223  0.954  0.296  0.753-  78 1.02 102 1.02 161 1.31
 224  0.954  0.796  0.753-  79 1.02 103 1.02 162 1.31
 225  0.296  0.046  0.753-  80 1.02 104 1.02 163 1.31
 226  0.296  0.546  0.753-  81 1.02 105 1.02 164 1.31
 227  0.796  0.046  0.753-  82 1.02 106 1.02 165 1.31
 228  0.796  0.546  0.753-  83 1.02 107 1.02 166 1.31
 229  0.762  0.547  0.553- 173 1.48 176 1.51 175 1.51 174 1.55
 230  0.489  0.016  0.551- 304 3.26
 231  0.482  0.518  0.556- 305 3.05
 232  0.988  0.006  0.553- 302 3.22
 233  0.031  0.505  0.555- 303 3.15
 234  0.250  0.248  0.551- 306 3.24
 235  0.254  0.751  0.553- 307 3.12
 236  0.739  0.217  0.559- 308 3.07
 237  0.717  0.784  0.546- 309 3.64
 238  0.002  0.004  0.655- 310 3.14 302 3.15
 239  0.015  0.495  0.656- 311 3.06 303 3.20
 240  0.498  0.998  0.654- 312 3.16 304 3.19
 241  0.501  0.489  0.656- 313 3.09 305 3.19
 242  0.255  0.245  0.654- 306 3.15 314 3.20
 243  0.254  0.754  0.655- 315 3.13 307 3.24
 244  0.740  0.255  0.657- 316 3.01 308 3.10
 245  0.756  0.754  0.654- 309 3.16 317 3.19
 246  0.144  0.108  0.608- 306 3.18 302 3.29
 247  0.147  0.613  0.610- 307 3.19 303 3.23
 248  0.645  0.105  0.610- 304 3.16 308 3.25
 249  0.619  0.633  0.615- 309 3.28 305 3.29
 250  0.354  0.393  0.608- 306 3.23 305 3.28
 251  0.367  0.888  0.608- 307 3.23 304 3.25
 252  0.881  0.372  0.614- 308 3.27 303 3.33
 253  0.861  0.894  0.610- 302 3.15 309 3.26
 254  0.113  0.355  0.608- 306 3.15 303 3.30
 255  0.117  0.870  0.609- 307 3.25 302 3.31
 256  0.588  0.342  0.608- 308 3.28 305 3.32
 257  0.609  0.864  0.610- 309 3.08 304 3.26
 258  0.388  0.140  0.610- 306 3.18 304 3.18
 259  0.383  0.635  0.613- 305 3.23 307 3.25
 260  0.884  0.139  0.613- 302 3.19 308 3.25
 261  0.916  0.651  0.617- 303 3.23 309 3.78
 262  0.000  0.000  0.755- 310 3.13 318 3.27
 263  0.000  0.500  0.755- 311 3.13 319 3.27
 264  0.500  0.000  0.755- 312 3.13 320 3.27
 265  0.500  0.500  0.755- 313 3.13 321 3.27
 266  0.250  0.250  0.755- 314 3.13 322 3.27
 267  0.250  0.750  0.755- 315 3.13 323 3.27
 268  0.750  0.250  0.755- 316 3.13 324 3.27
 269  0.750  0.750  0.755- 317 3.13 325 3.27
 270  0.136  0.114  0.705- 310 3.20 314 3.20
 271  0.136  0.614  0.705- 311 3.20 315 3.20
 272  0.636  0.114  0.705- 312 3.20 316 3.20
 273  0.636  0.614  0.705- 313 3.20 317 3.20
 274  0.364  0.386  0.705- 313 3.20 314 3.20
 275  0.364  0.886  0.705- 312 3.20 315 3.20
 276  0.864  0.386  0.705- 311 3.20 316 3.20
 277  0.864  0.886  0.705- 310 3.20 317 3.20
 278  0.114  0.364  0.705- 314 3.21 311 3.21
 279  0.114  0.864  0.705- 315 3.21 310 3.21
 280  0.614  0.364  0.705- 316 3.21 313 3.21
 281  0.614  0.864  0.705- 317 3.21 312 3.21
 282  0.386  0.136  0.705- 314 3.21 312 3.21
 283  0.386  0.636  0.705- 315 3.21 313 3.21
 284  0.886  0.136  0.705- 316 3.21 310 3.21
 285  0.886  0.636  0.705- 317 3.21 311 3.21
 286  0.135  0.115  0.801- 318 3.22 322 3.22
 287  0.135  0.615  0.801- 319 3.22 323 3.22
 288  0.635  0.115  0.801- 320 3.22 324 3.22
 289  0.635  0.615  0.801- 321 3.22 325 3.22
 290  0.365  0.385  0.801- 321 3.22 322 3.22
 291  0.365  0.885  0.801- 320 3.22 323 3.22
 292  0.865  0.385  0.801- 319 3.22 324 3.22
 293  0.865  0.885  0.801- 318 3.22 325 3.22
 294  0.115  0.365  0.801- 319 3.23 322 3.23
 295  0.115  0.865  0.801- 318 3.23 323 3.23
 296  0.615  0.365  0.801- 321 3.23 324 3.23
 297  0.615  0.865  0.801- 320 3.23 325 3.23
 298  0.385  0.135  0.801- 320 3.23 322 3.23
 299  0.385  0.635  0.801- 321 3.23 323 3.23
 300  0.885  0.135  0.801- 318 3.23 324 3.23
 301  0.885  0.635  0.801- 319 3.23 325 3.23
 302  0.994  0.005  0.604- 238 3.15 253 3.15 260 3.19 232 3.22 246 3.29 255 3.31
 303  0.007  0.503  0.605- 233 3.15 239 3.20 261 3.23 247 3.23 254 3.30 252 3.33
 304  0.502  0.007  0.603- 248 3.16 258 3.18 240 3.19 251 3.25 230 3.26 257 3.26
 305  0.498  0.502  0.605- 231 3.05 241 3.19 259 3.23 250 3.28 249 3.29 256 3.32
 306  0.250  0.248  0.603- 242 3.15 254 3.15 246 3.18 258 3.18 250 3.23 234 3.24
 307  0.252  0.753  0.603- 235 3.12 247 3.19 251 3.23 243 3.24 259 3.25 255 3.25
 308  0.746  0.253  0.607- 236 3.07 244 3.10 248 3.25 260 3.25 252 3.27 256 3.28
 309  0.742  0.760  0.604- 257 3.08 245 3.16 253 3.26 249 3.28 237 3.64 261 3.78
 310  0.000  0.000  0.705- 262 3.13 238 3.14 270 3.20 277 3.20 279 3.21 284 3.21
 311  0.000  0.500  0.705- 239 3.06 263 3.13 271 3.20 276 3.20 278 3.21 285 3.21
 312  0.500  0.000  0.705- 264 3.13 240 3.16 272 3.20 275 3.20 281 3.21 282 3.21
 313  0.500  0.500  0.705- 241 3.09 265 3.13 273 3.20 274 3.20 280 3.21 283 3.21
 314  0.250  0.250  0.705- 266 3.13 242 3.20 270 3.20 274 3.20 282 3.21 278 3.21
 315  0.250  0.750  0.705- 267 3.13 243 3.13 271 3.20 275 3.20 283 3.21 279 3.21
 316  0.750  0.250  0.705- 244 3.01 268 3.13 272 3.20 276 3.20 284 3.21 280 3.21
 317  0.750  0.750  0.705- 269 3.13 245 3.19 273 3.20 277 3.20 285 3.21 281 3.21
 318  0.000  0.000  0.807- 286 3.22 293 3.22 300 3.23 295 3.23 262 3.27
 319  0.000  0.500  0.807- 287 3.22 292 3.22 301 3.23 294 3.23 263 3.27
 320  0.500  0.000  0.807- 288 3.22 291 3.22 298 3.23 297 3.23 264 3.27
 321  0.500  0.500  0.807- 289 3.22 290 3.22 299 3.23 296 3.23 265 3.27
 322  0.250  0.250  0.807- 290 3.22 286 3.22 294 3.23 298 3.23 266 3.27
 323  0.250  0.750  0.807- 291 3.22 287 3.22 299 3.23 295 3.23 267 3.27
 324  0.750  0.250  0.807- 292 3.22 288 3.22 296 3.23 300 3.23 268 3.27
 325  0.750  0.750  0.807- 293 3.22 289 3.22 297 3.23 301 3.23 269 3.27
 

IMPORTANT INFORMATION: All symmetrisations will be switched off!
NOSYMM: (Re-)initialisation of all symmetry stuff for point group C_1.


----------------------------------------------------------------------------------------

                                     Primitive cell                                     

  volume of cell :   20385.2105

  direct lattice vectors                    reciprocal lattice vectors
    18.060800552  0.000000000  0.000000000     0.055368531  0.000015077 -0.000000000
    -0.004918649 18.062799454  0.000000000     0.000000000  0.055362404  0.000000000
     0.000000000  0.000000000 62.487499237     0.000000000 -0.000000000  0.016003201

  length of vectors
    18.060800552 18.062800123 62.487499237     0.055368533  0.055362404  0.016003201

  position of ions in fractional coordinates (direct lattice)
     0.447506720  0.304183827  0.580917460
     0.446295801  0.838443095  0.577405222
     0.940913011  0.263958234  0.585116603
     0.963637727  0.805965380  0.586628563
     0.299746798  0.046228692  0.582388519
     0.305659646  0.556881605  0.582456159
     0.776548812  0.069246801  0.581875965
     0.106772437  0.205802845  0.554894128
     0.087930910  0.680609220  0.558347821
     0.575528337  0.179126859  0.557959804
     0.523205048  0.656902418  0.566862281
     0.358665881  0.032517313  0.560651200
     0.298499848  0.606009234  0.559058779
     0.843945923  0.063179612  0.562314801
     0.070899458  0.209513072  0.580780409
     0.040981573  0.691802122  0.582479540
     0.561498263  0.235304182  0.579245129
     0.496068603  0.714429422  0.587363818
     0.234720428  0.435396942  0.582914014
     0.173775858  0.985875512  0.579889728
     0.679500675  0.972019795  0.581168792
     0.382143912  0.288318883  0.561072060
     0.451221674  0.862248998  0.550471979
     0.897239494  0.280947057  0.560650467
     0.961817067  0.866485380  0.564588144
     0.188985348  0.412272129  0.559571089
     0.154835129  0.942910794  0.555899700
     0.687964292  0.903963843  0.560847345
     0.458874814  0.207889212  0.543274799
     0.500856743  0.750567918  0.540679248
     0.999194585  0.249137497  0.539662505
     0.042007534  0.789867994  0.544472976
     0.223597517  0.517598636  0.542094998
     0.270275985  0.966763609  0.541458457
     0.791917664  0.958764981  0.546620989
     0.454101195  0.308058175  0.676216856
     0.437143406  0.817661814  0.672477949
     0.960840169  0.284212674  0.679737946
     0.936549359  0.801639664  0.674652151
     0.306163839  0.053538471  0.673590415
     0.295978787  0.553434654  0.676466173
     0.806272688  0.050901780  0.675892450
     0.836812255  0.534082184  0.670983204
     0.084145362  0.172272450  0.646163603
     0.093755423  0.687897521  0.654809681
     0.569956112  0.162747995  0.651965606
     0.569402652  0.671999604  0.658840333
     0.184810283  0.410550396  0.648935703
     0.170680581  0.920878023  0.652987539
     0.658760101  0.450825592  0.656331958
     0.665943696  0.932520187  0.650893614
     0.063652427  0.187814932  0.673043736
     0.043940883  0.700133810  0.678189662
     0.554847935  0.202981587  0.676490653
     0.530621834  0.714488186  0.681406309
     0.208256321  0.438941225  0.674516992
     0.203870473  0.954364570  0.677242207
     0.723435755  0.449936215  0.676884164
     0.695230915  0.960813882  0.676070647
     0.414028468  0.324015146  0.651545844
     0.425509697  0.836159594  0.645396116
     0.922553722  0.322425671  0.656389526
     0.929131511  0.839305545  0.649529816
     0.331000699  0.076608054  0.647607068
     0.322299578  0.588498559  0.651637049
     0.840608888  0.073033030  0.650744476
     0.840519701  0.576168553  0.646034366
     0.996530662  0.255813872  0.633950284
     0.028117426  0.776284465  0.635283864
     0.482889199  0.235489924  0.634261076
     0.508193902  0.746498430  0.634744205
     0.249366269  0.995313698  0.632409082
     0.253224127  0.501575853  0.632459324
     0.757463286  0.001381788  0.632955945
     0.731592448  0.530294583  0.635168118
     0.448745018  0.301283966  0.768889017
     0.448745007  0.801283913  0.768889017
     0.948744965  0.301283966  0.768889017
     0.948745007  0.801283913  0.768889017
     0.301275995  0.051294496  0.768872961
     0.301276011  0.551294499  0.768872961
     0.801275943  0.051294496  0.768872961
     0.801275984  0.551294499  0.768872961
     0.078771004  0.171180501  0.743441971
     0.078771006  0.671180448  0.743441971
     0.578771004  0.171180501  0.743441971
     0.578770992  0.671180448  0.743441971
     0.171199499  0.421174482  0.743421032
     0.171199501  0.921174508  0.743421032
     0.671199512  0.421174482  0.743421032
     0.671199501  0.921174508  0.743421032
     0.051256000  0.198714991  0.768889017
     0.051256002  0.698714925  0.768889017
     0.551256027  0.198714991  0.768889017
     0.551256016  0.698714925  0.768889017
     0.198723491  0.448703970  0.768872046
     0.198723493  0.948703970  0.768872046
     0.698723518  0.448703970  0.768872046
     0.698723507  0.948703970  0.768872046
     0.421231519  0.328817467  0.743441971
     0.421231508  0.828817440  0.743441971
     0.921231466  0.328817467  0.743441971
     0.921231508  0.828817440  0.743441971
     0.328800503  0.078824997  0.743421032
     0.328800492  0.578824964  0.743421032
     0.828800477  0.078824997  0.743421032
     0.828800519  0.578824964  0.743421032
     0.000003500  0.250001478  0.725821992
     0.000003500  0.750001452  0.725821992
     0.500003506  0.250001478  0.725821992
     0.500003495  0.750001452  0.725821992
     0.250000502  0.000000000  0.725803983
     0.250000517  0.500000000  0.725803983
     0.750000502  0.000000000  0.725803983
     0.750000490  0.500000000  0.725803983
     0.715927446  0.445232521  0.544132087
     0.737414995  0.504138020  0.522443973
     0.647706374  0.541017638  0.560685997
     0.687912381  0.632971912  0.562691830
     0.834679307  0.505574329  0.575865363
     0.771058389  0.571554403  0.586365022
     0.864289106  0.558505662  0.538620243
     0.800326425  0.618405448  0.528569527
     0.867977089  0.480460415  0.523026975
     0.864972183  0.442016956  0.548933646
     0.884164727  0.347345738  0.523637754
     0.797190686  0.331252549  0.535280525
     0.621606063  0.546081201  0.525064248
     0.689005476  0.616908950  0.518572654
     0.606636466  0.638749459  0.532546030
     0.744077342  0.449917472  0.600229917
     0.741199154  0.406200921  0.575179435
     0.669060571  0.469739472  0.582646993
     0.832873976  0.679771268  0.570115983
     0.876771231  0.700820497  0.545364939
     0.915412335  0.633725335  0.562495807
     0.830032905  0.397943545  0.491339332
     0.798546626  0.308948952  0.496726854
     0.669471738  0.314577345  0.521651028
     0.745481464  0.481022711  0.477157907
     0.542132199  0.366011020  0.519043207
     0.618144435  0.531399005  0.474939934
     0.515525523  0.474108851  0.496832832
     0.001927434  0.244296291  0.556753997
     0.024839258  0.773791516  0.560288639
     0.478298066  0.232692200  0.558186351
     0.490276751  0.759839670  0.557423503
     0.243114649  0.510004056  0.558359115
     0.256557642  0.986802092  0.557340540
     0.766607176  0.983951676  0.560558530
     0.003472470  0.247318774  0.651273512
     0.012532194  0.763439576  0.651895402
     0.491979212  0.243201900  0.651532475
     0.498748311  0.753719572  0.651904742
     0.253864212  0.499928301  0.649913072
     0.249854345  0.997978388  0.649988892
     0.750329273  0.514061771  0.650677079
     0.752719557  0.002289694  0.650494120
     0.499988984  0.249994984  0.743277021
     0.499989025  0.749994958  0.743277021
     0.999988984  0.249994984  0.743277021
     0.999989025  0.749994958  0.743277021
     0.250000502  0.000001000  0.743255960
     0.250000517  0.500001003  0.743255960
     0.750000502  0.000001000  0.743255960
     0.750000491  0.500001003  0.743255960
     0.717168208  0.394567687  0.499523586
     0.658857617  0.362366077  0.511114039
     0.700711683  0.454350684  0.486306160
     0.586537257  0.390711633  0.509640661
     0.629003679  0.484221565  0.484970291
     0.570273186  0.451599765  0.496982795
     0.757771440  0.483749342  0.537952995
     0.683520976  0.581986438  0.552891835
     0.777303326  0.523737266  0.575507015
     0.821709004  0.597056697  0.543570452
     0.834064013  0.445953896  0.533817585
     0.827240864  0.368080584  0.524118502
     0.649556630  0.596347624  0.530923818
     0.729082640  0.459514827  0.583369794
     0.861938294  0.655456447  0.556431117
     0.794115481  0.366423950  0.501791099
     0.063369837  0.218262483  0.564728981
     0.052528651  0.711185584  0.567853018
     0.541232337  0.212313977  0.565926119
     0.507642221  0.708728115  0.571502674
     0.434117265  0.280894365  0.567246147
     0.460606469  0.824709990  0.562200215
     0.943401494  0.264579478  0.568557993
     0.978199793  0.816086541  0.571095855
     0.220801715  0.447365284  0.567208053
     0.191299402  0.970754607  0.564597912
     0.705542418  0.951604388  0.567672196
     0.308651256  0.024943202  0.567228626
     0.284023065  0.560623325  0.567033702
     0.799139032  0.040808622  0.568898333
     0.052610763  0.200819745  0.657331242
     0.050592235  0.715217375  0.662246532
     0.540832023  0.202387982  0.660686528
     0.535285372  0.710154603  0.664906793
     0.213801180  0.446447237  0.658600112
     0.205815172  0.955617037  0.661037977
     0.709206192  0.468318316  0.661858637
     0.702061835  0.962905420  0.660043638
     0.450933793  0.295329890  0.660725903
     0.450559238  0.805962687  0.657241014
     0.958442801  0.288012445  0.663683343
     0.956477562  0.802110778  0.659028725
     0.299058925  0.045835355  0.657877922
     0.291615455  0.549205611  0.660345578
     0.803341214  0.044968213  0.659970808
     0.814637106  0.543064499  0.656541534
     0.045862501  0.204119496  0.752725994
     0.045862500  0.704119456  0.752725994
     0.545862507  0.204119496  0.752725994
     0.545862496  0.704119456  0.752725994
     0.204119002  0.454101003  0.752704994
     0.204118991  0.954100951  0.752704994
     0.704118976  0.454101003  0.752704994
     0.704118964  0.954100951  0.752704994
     0.454140018  0.295888490  0.752726971
     0.454140007  0.795888516  0.752726971
     0.954140018  0.295888490  0.752726971
     0.954140060  0.795888516  0.752726971
     0.295882492  0.045900498  0.752704994
     0.295882481  0.545900528  0.752704994
     0.795882439  0.045900498  0.752704994
     0.795882481  0.545900528  0.752704994
     0.762210457  0.547472210  0.552712234
     0.488829596  0.016002662  0.551372305
     0.482372914  0.518285851  0.556303223
     0.987718573  0.006405367  0.552708205
     0.031189679  0.505180933  0.555163957
     0.249509820  0.247675264  0.551463449
     0.254420666  0.751341827  0.553041096
     0.738841338  0.217234115  0.559175502
     0.717085455  0.783861358  0.546136395
     0.001752859  0.004024321  0.654570497
     0.014757404  0.495233001  0.656140697
     0.497543546  0.997938823  0.654232112
     0.500661293  0.489115437  0.655516793
     0.254610909  0.244875165  0.653659976
     0.254298256  0.753822527  0.654732761
     0.740273480  0.255057756  0.656705629
     0.756404338  0.754160749  0.653888964
     0.144170243  0.108363549  0.607663715
     0.147103887  0.612857835  0.610229292
     0.644785853  0.104922321  0.610356271
     0.618968448  0.632657396  0.615429795
     0.354002023  0.392529933  0.608314236
     0.367175427  0.888310261  0.607925792
     0.881017606  0.371863117  0.613748734
     0.861020099  0.893960883  0.609744637
     0.113245433  0.354686995  0.608234203
     0.116538982  0.869538883  0.608817450
     0.587755009  0.341644589  0.608425587
     0.609180730  0.864163707  0.609533535
     0.388027108  0.140319953  0.609516808
     0.383084273  0.634929070  0.613173973
     0.883959330  0.139143435  0.613317373
     0.915542992  0.650863945  0.616516560
     0.000000000  0.000000000  0.754927972
     0.000000000  0.500000000  0.754927972
     0.500000000  0.000000000  0.754927972
     0.499999989  0.500000000  0.754927972
     0.250000496  0.250000000  0.754939022
     0.250000511  0.749999974  0.754939022
     0.750000470  0.250000000  0.754939022
     0.750000458  0.749999974  0.754939022
     0.135790500  0.114209997  0.704782994
     0.135790502  0.614209984  0.704782994
     0.635790447  0.114209997  0.704782994
     0.635790488  0.614209984  0.704782994
     0.364209516  0.385789989  0.704782994
     0.364209505  0.885789963  0.704782994
     0.864209542  0.385789989  0.704782994
     0.864209531  0.885789963  0.704782994
     0.114217990  0.364218986  0.704780979
     0.114217992  0.864218986  0.704780979
     0.614218004  0.364218986  0.704780979
     0.614217992  0.864218986  0.704780979
     0.385782012  0.135781489  0.704782017
     0.385782001  0.635781489  0.704782017
     0.885781985  0.135781489  0.704782017
     0.885782027  0.635781489  0.704782017
     0.134667000  0.115332001  0.801256025
     0.134666989  0.615331988  0.801256025
     0.634666987  0.115332001  0.801256025
     0.634666976  0.615331988  0.801256025
     0.365333002  0.384667985  0.801256025
     0.365332990  0.884667959  0.801256025
     0.865332949  0.384667985  0.801256025
     0.865332938  0.884667959  0.801256025
     0.115328503  0.365337004  0.801264999
     0.115328505  0.865336978  0.801264999
     0.615328503  0.365337004  0.801264999
     0.615328492  0.865336978  0.801264999
     0.384671513  0.134662996  0.801264999
     0.384671501  0.634662970  0.801264999
     0.884671486  0.134662996  0.801264999
     0.884671528  0.634662970  0.801264999
     0.994390064  0.005144503  0.604253915
     0.007154875  0.502686558  0.605051377
     0.501542556  0.007195563  0.603294861
     0.498297910  0.501711649  0.604621420
     0.250338766  0.248004168  0.603287169
     0.251801925  0.752693290  0.602896160
     0.746167387  0.253028107  0.607164165
     0.742314762  0.759760843  0.603559135
     0.000000500  0.000000500  0.704828963
     0.000000500  0.500000475  0.704828963
     0.500000475  0.000000500  0.704828963
     0.500000464  0.500000475  0.704828963
     0.249999994  0.249999472  0.704824995
     0.250000010  0.749999498  0.704824995
     0.749999994  0.249999472  0.704824995
     0.749999983  0.749999498  0.704824995
     0.000000000  0.000000000  0.807317968
     0.000000000  0.500000000  0.807317968
     0.500000000  0.000000000  0.807317968
     0.499999989  0.500000000  0.807317968
     0.249999994  0.250000000  0.807317968
     0.250000010  0.749999974  0.807317968
     0.749999994  0.250000000  0.807317968
     0.749999983  0.749999974  0.807317968

  ion indices of the primitive-cell ions
   primitive index   ion index
                 1           1
                 2           2
                 3           3
                 4           4
                 5           5
                 6           6
                 7           7
                 8           8
                 9           9
                10          10
                11          11
                12          12
                13          13
                14          14
                15          15
                16          16
                17          17
                18          18
                19          19
                20          20
                21          21
                22          22
                23          23
                24          24
                25          25
                26          26
                27          27
                28          28
                29          29
                30          30
                31          31
                32          32
                33          33
                34          34
                35          35
                36          36
                37          37
                38          38
                39          39
                40          40
                41          41
                42          42
                43          43
                44          44
                45          45
                46          46
                47          47
                48          48
                49          49
                50          50
                51          51
                52          52
                53          53
                54          54
                55          55
                56          56
                57          57
                58          58
                59          59
                60          60
                61          61
                62          62
                63          63
                64          64
                65          65
                66          66
                67          67
                68          68
                69          69
                70          70
                71          71
                72          72
                73          73
                74          74
                75          75
                76          76
                77          77
                78          78
                79          79
                80          80
                81          81
                82          82
                83          83
                84          84
                85          85
                86          86
                87          87
                88          88
                89          89
                90          90
                91          91
                92          92
                93          93
                94          94
                95          95
                96          96
                97          97
                98          98
                99          99
               100         100
               101         101
               102         102
               103         103
               104         104
               105         105
               106         106
               107         107
               108         108
               109         109
               110         110
               111         111
               112         112
               113         113
               114         114
               115         115
               116         116
               117         117
               118         118
               119         119
               120         120
               121         121
               122         122
               123         123
               124         124
               125         125
               126         126
               127         127
               128         128
               129         129
               130         130
               131         131
               132         132
               133         133
               134         134
               135         135
               136         136
               137         137
               138         138
               139         139
               140         140
               141         141
               142         142
               143         143
               144         144
               145         145
               146         146
               147         147
               148         148
               149         149
               150         150
               151         151
               152         152
               153         153
               154         154
               155         155
               156         156
               157         157
               158         158
               159         159
               160         160
               161         161
               162         162
               163         163
               164         164
               165         165
               166         166
               167         167
               168         168
               169         169
               170         170
               171         171
               172         172
               173         173
               174         174
               175         175
               176         176
               177         177
               178         178
               179         179
               180         180
               181         181
               182         182
               183         183
               184         184
               185         185
               186         186
               187         187
               188         188
               189         189
               190         190
               191         191
               192         192
               193         193
               194         194
               195         195
               196         196
               197         197
               198         198
               199         199
               200         200
               201         201
               202         202
               203         203
               204         204
               205         205
               206         206
               207         207
               208         208
               209         209
               210         210
               211         211
               212         212
               213         213
               214         214
               215         215
               216         216
               217         217
               218         218
               219         219
               220         220
               221         221
               222         222
               223         223
               224         224
               225         225
               226         226
               227         227
               228         228
               229         229
               230         230
               231         231
               232         232
               233         233
               234         234
               235         235
               236         236
               237         237
               238         238
               239         239
               240         240
               241         241
               242         242
               243         243
               244         244
               245         245
               246         246
               247         247
               248         248
               249         249
               250         250
               251         251
               252         252
               253         253
               254         254
               255         255
               256         256
               257         257
               258         258
               259         259
               260         260
               261         261
               262         262
               263         263
               264         264
               265         265
               266         266
               267         267
               268         268
               269         269
               270         270
               271         271
               272         272
               273         273
               274         274
               275         275
               276         276
               277         277
               278         278
               279         279
               280         280
               281         281
               282         282
               283         283
               284         284
               285         285
               286         286
               287         287
               288         288
               289         289
               290         290
               291         291
               292         292
               293         293
               294         294
               295         295
               296         296
               297         297
               298         298
               299         299
               300         300
               301         301
               302         302
               303         303
               304         304
               305         305
               306         306
               307         307
               308         308
               309         309
               310         310
               311         311
               312         312
               313         313
               314         314
               315         315
               316         316
               317         317
               318         318
               319         319
               320         320
               321         321
               322         322
               323         323
               324         324
               325         325

----------------------------------------------------------------------------------------

 
 
 KPOINTS: Automatic Mesh                          

Automatic generation of k-mesh.
 Grid dimensions read from file:
 generate k-points for:    3    3    1

 Generating k-lattice:

  Cartesian coordinates                     Fractional coordinates (reciprocal lattice)
     0.018456177  0.000005026 -0.000000000     0.333333333  0.000000000  0.000000000
     0.000000000  0.018454135  0.000000000     0.000000000  0.333333333  0.000000000
     0.000000000 -0.000000000  0.016003201     0.000000000  0.000000000  1.000000000

  Length of vectors
     0.018456178  0.018454135  0.016003201

  Shift w.r.t. Gamma in fractional coordinates (k-lattice)
     0.000000000  0.000000000  0.000000000

 
 Subroutine IBZKPT returns following result:
 ===========================================
 
 Found      5 irreducible k-points:
 
 Following reciprocal coordinates:
            Coordinates               Weight
  0.000000  0.000000  0.000000      1.000000
  0.333333  0.000000  0.000000      2.000000
  0.000000  0.333333  0.000000      2.000000
  0.333333  0.333333  0.000000      2.000000
 -0.333333  0.333333  0.000000      2.000000
 
 Following cartesian coordinates:
            Coordinates               Weight
  0.000000  0.000000  0.000000      1.000000
  0.018456  0.000005  0.000000      2.000000
  0.000000  0.018454  0.000000      2.000000
  0.018456  0.018459  0.000000      2.000000
 -0.018456  0.018449  0.000000      2.000000
 


--------------------------------------------------------------------------------------------------------




 Dimension of arrays:
   k-points           NKPTS =      5   k-points in BZ     NKDIM =      5   number of bands    NBANDS=    732
   number of dos      NEDOS =    301   number of ions     NIONS =    325
   non local maximal  LDIM  =      5   non local SUM 2l+1 LMDIM =     13
   total plane-waves  NPLWV = ******
   max r-space proj   IRMAX =   3336   max aug-charges    IRDMAX=  19845
   dimension x,y,z NGX =   100 NGY =  100 NGZ =  350
   dimension x,y,z NGXF=   200 NGYF=  200 NGZF=  700
   support grid    NGXF=   200 NGYF=  200 NGZF=  700
   ions per type =             143  39  47  72  24
   NGX,Y,Z   is equivalent  to a cutoff of   9.20,  9.20,  9.31 a.u.
   NGXF,Y,Z  is equivalent  to a cutoff of  18.41, 18.41, 18.62 a.u.

 SYSTEM =  PSC                                     
 POSCAR =   H  C  N  I Pb                          

 Startparameter for this run:
   NWRITE =      2    write-flag & timer
   PREC   = normal    normal or accurate (medium, high low for compatibility)
   ISTART =      0    job   : 0-new  1-cont  2-samecut
   ICHARG =      1    charge: 1-file 2-atom 10-const
   ISPIN  =      1    spin polarized calculation?
   LNONCOLLINEAR =      F non collinear calculations
   LSORBIT =      F    spin-orbit coupling
   INIWAV =      1    electr: 0-lowe 1-rand  2-diag
   LASPH  =      F    aspherical Exc in radial PAW
 Electronic Relaxation 1
   ENCUT  =  500.0 eV  36.75 Ry    6.06 a.u.  32.93 32.93113.93*2*pi/ulx,y,z
   ENINI  =  500.0     initial cutoff
   ENAUG  =  644.9 eV  augmentation charge cutoff
   NELM   =    600;   NELMIN=  2; NELMDL=  0     # of ELM steps 
   EDIFF  = 0.1E-03   stopping-criterion for ELM
   LREAL  =      T    real-space projection
   NLSPLINE    = F    spline interpolate recip. space projectors
   LCOMPAT=      F    compatible to vasp.4.4
   GGA_COMPAT  = F    GGA compatible to vasp.4.4-vasp.4.6
   LMAXPAW     = -100 max onsite density
   LMAXMIX     =    2 max onsite mixed and CHGCAR
   VOSKOWN=      0    Vosko Wilk Nusair interpolation
   ROPT   =   -0.00050  -0.00050  -0.00050  -0.00050
   ROPT   =   -0.00050
 Ionic relaxation
   EDIFFG = 0.1E-02   stopping-criterion for IOM
   NSW    =      0    number of steps for IOM
   NBLOCK =      1;   KBLOCK =      1    inner block; outer block 
   IBRION =     -1    ionic relax: 0-MD 1-quasi-New 2-CG
   NFREE  =      0    steps in history (QN), initial steepest desc. (CG)
   ISIF   =      2    stress and relaxation
   IWAVPR =     10    prediction:  0-non 1-charg 2-wave 3-comb
   ISYM   =      0    0-nonsym 1-usesym 2-fastsym
   LCORR  =      T    Harris-Foulkes like correction to forces

   POTIM  = 0.5000    time-step for ionic-motion
   TEIN   =    0.0    initial temperature
   TEBEG  =    0.0;   TEEND  =   0.0 temperature during run
   SMASS  =  -3.00    Nose mass-parameter (am)
   estimated Nose-frequenzy (Omega)   =  0.10E-29 period in steps = 0.13E+47 mass=  -0.745E-26a.u.
   SCALEE = 1.0000    scale energy and forces
   NPACO  =    256;   APACO  = 16.0  distance and # of slots for P.C.
   PSTRESS=    0.0 pullay stress

  Mass of Ions in am
   POMASS =   1.00 12.01 14.00126.90207.20
  Ionic Valenz
   ZVAL   =   1.00  4.00  5.00  7.00  4.00
  Atomic Wigner-Seitz radii
   RWIGS  =  -1.00 -1.00 -1.00 -1.00 -1.00
  virtual crystal weights 
   VCA    =   1.00  1.00  1.00  1.00  1.00
   NELECT =    1134.0000    total number of electrons
   NUPDOWN=      -1.0000    fix difference up-down

 DOS related values:
   EMIN   =  10.00;   EMAX   =-10.00  energy-range for DOS
   EFERMI =   0.00
   ISMEAR =     0;   SIGMA  =   0.05  broadening in eV -4-tet -1-fermi 0-gaus

 Electronic relaxation 2 (details)
   IALGO  =     38    algorithm
   LDIAG  =      T    sub-space diagonalisation (order eigenvalues)
   LSUBROT=      F    optimize rotation matrix (better conditioning)
   TURBO    =      0    0=normal 1=particle mesh
   IRESTART =      0    0=no restart 2=restart with 2 vectors
   NREBOOT  =      0    no. of reboots
   NMIN     =      0    reboot dimension
   EREF     =   0.00    reference energy to select bands
   IMIX   =      4    mixing-type and parameters
     AMIX     =   0.40;   BMIX     =  0.01
     AMIX_MAG =   1.60;   BMIX_MAG =  0.01
     AMIN     =   0.01
     WC   =   100.;   INIMIX=   1;  MIXPRE=   1;  MAXMIX= -45

 Intra band minimization:
   WEIMIN = 0.0000     energy-eigenvalue tresh-hold
   EBREAK =  0.34E-07  absolut break condition
   DEPER  =   0.30     relativ break condition  

   TIME   =   0.40     timestep for ELM

  volume/ion in A,a.u.               =      62.72       423.28
  Fermi-wavevector in a.u.,A,eV,Ry     =   0.624944  1.180972  5.313816  0.390554
  Thomas-Fermi vector in A             =   1.685677
 
 Write flags
   LWAVE        =      F    write WAVECAR
   LDOWNSAMPLE  =      F    k-point downsampling of WAVECAR
   LCHARG       =      T    write CHGCAR
   LVTOT        =      T    write LOCPOT, total local potential
   LVHAR        =      F    write LOCPOT, Hartree potential only
   LELF         =      F    write electronic localiz. function (ELF)
   LORBIT       =      0    0 simple, 1 ext, 2 COOP (PROOUT), +10 PAW based schemes


 Dipole corrections
   LMONO  =      F    monopole corrections only (constant potential shift)
   LDIPOL =      T    correct potential (dipole corrections)
   IDIPOL =      3    1-x, 2-y, 3-z, 4-all directions 
   EPSILON=  1.0000000 bulk dielectric constant

 Exchange correlation treatment:
   GGA     =    --    GGA type
   LEXCH   =     8    internal setting for exchange type
   VOSKOWN=      0    Vosko Wilk Nusair interpolation
   LHFCALC =     F    Hartree Fock is set to
   LHFONE  =     F    Hartree Fock one center treatment
   AEXX    =    0.0000 exact exchange contribution

 Linear response parameters
   LEPSILON=     F    determine dielectric tensor
   LRPA    =     F    only Hartree local field effects (RPA)
   LNABLA  =     F    use nabla operator in PAW spheres
   LVEL    =     F    velocity operator in full k-point grid
   LINTERFAST=   F  fast interpolation
   KINTER  =     0    interpolate to denser k-point grid
   CSHIFT  =0.1000    complex shift for real part using Kramers Kronig
   OMEGAMAX=  -1.0    maximum frequency
   DEG_THRESHOLD= 0.2000000E-02 threshold for treating states as degnerate
   RTIME   =   -0.100 relaxation time in fs
  (WPLASMAI=    0.000 imaginary part of plasma frequency in eV, 0.658/RTIME)
   DFIELD  = 0.0000000 0.0000000 0.0000000 field for delta impulse in time
 
 Orbital magnetization related:
   ORBITALMAG=     F  switch on orbital magnetization
   LCHIMAG   =     F  perturbation theory with respect to B field
   DQ        =  0.001000  dq finite difference perturbation B field
   LLRAUG    =     F  two centre corrections for induced B field



--------------------------------------------------------------------------------------------------------


 Static calculation
 charge density and potential will be updated during run
 non-spin polarized calculation
 Variant of blocked Davidson
 Davidson routine will perform the subspace rotation
 perform sub-space diagonalisation
    after iterative eigenvector-optimisation
 modified Broyden-mixing scheme, WC =      100.0
 initial mixing is a Kerker type mixing with AMIX =  0.4000 and BMIX =      0.0100
 Hartree-type preconditioning will be used
 using additional bands           165
 real space projection scheme for non local part
[...]
     13.54561      0.00000     45.35368         0.000484     -0.000577      0.012786
     13.54315      9.03140     45.35368        -0.001630      0.005964      0.012887
     12.92803      8.04215     34.00145         0.145070      0.009945     -0.036011
     13.31583      9.10614     32.64622        -0.037245      0.052648      0.352265
     11.69543      9.77229     35.03587         0.158278      0.174649      0.212968
     12.42113     11.43324     35.16121        -0.024989     -0.319539     -0.241248
     15.07249      9.13209     35.98439         0.413732      0.081285      0.111541
     13.92312     10.32387     36.64048         0.042538     -0.007240     -0.405443
     15.60701     10.08818     33.65703         0.289008     -0.066177      0.069873
     14.45149     11.17013     33.02899        -0.495666      0.337869     -0.132517
     15.67400      8.67846     32.68265        -0.105971     -0.244326      0.024994
     15.61992      7.98406     34.30149         0.089090     -0.026294     -0.022785
     15.96701      6.27404     32.72081         0.204753     -0.263350     -0.219203
     14.39627      5.98335     33.44834        -0.057297      0.135191     -0.197702
     11.22402      9.86376     32.80995         0.185397      0.203450     -0.046429
     12.44096     11.14310     32.40431        -0.292731     -0.104615      0.420370
     10.95320     11.53760     33.27747         0.038822      0.120609      0.076218
     13.43642      8.12677     37.50687        -0.115458      0.106714     -0.122545
     13.38465      7.33713     35.94152        -0.097230      0.429399      0.100333
     12.08146      8.48481     36.40815         0.218524     -0.005597      0.020408
     15.03903     12.27857     35.62512        -0.149023      0.000023     -0.189833
     15.83174     12.65878     34.07849        -0.283741     -0.074734      0.212395
     16.52996     11.44685     35.14896        -0.416900     -0.093732      0.018824
     14.98910      7.18797     30.70257         0.386226      0.313922     -0.463475
     14.42087      5.58048     31.03922        -0.186077     -0.423701     -0.373430
     12.08965      5.68215     32.59667        -0.007354      0.252873     -0.174725
     13.46163      8.68862     29.81640        -0.159789     -0.155833      0.098227
      9.78954      6.61118     32.43371         0.013714     -0.095075      0.080822
     11.16157      9.59855     29.67781        -0.047260      0.407831     -0.297781
      9.30847      8.56373     31.04584        -0.647452      0.308588     -0.117202
      0.03361      4.41267     34.79016        -0.944906      0.240124      1.632392
      0.44481     13.97684     35.01104        -0.320545     -0.576815      1.313614
      8.63730      4.20307     34.87967        -1.175140      0.115951     -0.641672
      8.85105     13.72483     34.83200        -0.271883      0.653322      0.589799
      4.38834      9.21210     34.89046        -0.887482     -1.246989     -0.462514
      4.62878     17.82441     34.82682         1.330545      0.426173     -0.342246
     13.84070     17.77292     35.02790        -0.873180     -1.287383     -0.257504
      0.06150      4.46727     40.69645        -2.034204      1.941965     -0.543876
      0.22259     13.78986     40.73531        -0.812803      1.236994     -1.266048
      8.88434      4.39291     40.71264        -1.455003      1.509377     -0.816308
      9.00409     13.61429     40.73590        -0.728757      0.712318     -0.377453
      4.58253      9.03010     40.61144        -0.903012     -1.072426     -0.126215
      4.50766     18.02628     40.61618         1.360857      1.156707     -0.358051
     13.54902      9.28539     40.65918         0.939551      0.038648      0.718956
     13.59471      0.04136     40.64775         1.421228      1.009420     -0.201424
      9.02897      4.51561     46.44552         0.012213      0.005789      0.040611
      9.02651     13.54701     46.44552         0.021782     -0.007910      0.065104
     18.05937      4.51561     46.44552         0.002328      0.014595      0.050710
     18.05691     13.54701     46.44552         0.031518     -0.015599      0.043383
      4.51521      0.00002     46.44421        -0.002697     -0.004743      0.066181
      4.51275      9.03142     46.44421        -0.001836     -0.000459      0.053037
     13.54561      0.00002     46.44421         0.007597      0.007623      0.060517
     13.54315      9.03142     46.44421        -0.011436     -0.010462      0.045596
     12.95069      7.12700     31.21398        -0.674069     -0.433546      0.275593
     11.89771      6.54535     31.93824        -0.391440     -0.134474      0.054928
     12.65318      8.20685     30.38806        -0.236134      0.819805     -0.470682
     10.59141      7.05735     31.84617         0.247102     -0.399098      0.354940
     11.35793      8.74640     30.30458        -0.504478     -1.042292      0.753634
     10.29737      8.15716     31.05521         1.666345      0.345216     -0.734072
     13.68358      8.73787     33.61534         0.824342     -1.018235     -0.966333
     12.34207     10.51230     34.54883         0.238447      0.523438     -0.207248
     14.03614      9.46016     35.96199        -0.065339     -0.546433      0.295657
     14.83779     10.78452     33.96636         0.459232      0.043461     -0.114421
     15.06167      8.05518     33.35693        -0.745101     -0.255050      0.231679
     14.93882      6.64857     32.75085        -0.008358      0.578392      0.855917
     11.72858     10.77171     33.17610         0.329923     -0.081541     -0.290683
     13.16556      8.30012     36.45332         0.184924     -0.127858     -0.037098
     15.56407     11.83938     34.76999         0.555997      0.223851      0.384665
     14.34056      6.61864     31.35567         0.427766     -0.319754      0.132351
      1.14344      3.94243     35.28850         0.020685     -0.178220      0.032854
      0.94521     12.84600     35.48372         0.372306      0.524893     -1.664421
      9.77404      3.83498     35.36331         0.351462     -0.158283     -0.046549
      9.16494     12.80161     35.71177        -0.112308      0.269761     -0.124745
      7.83912      5.07374     35.44579        -0.248465     -0.643647     -1.498591
      8.31487     14.89657     35.13049         0.468499     -0.990715     -0.460728
     17.03728      4.77905     35.52777         0.933846     -0.254828     -0.770491
     17.66306     14.74081     35.68635         0.225736      0.162715     -0.864503
      3.98566      8.08067     35.44341         1.655279      1.659252      1.639872
      3.45025     17.53455     35.28031        -0.310675      0.663480      1.790921
     12.73798     17.18864     35.47242         0.554761      1.919715      0.812257
      5.57437      0.45054     35.44470        -2.163033     -0.146121      1.056370
      5.12693     10.12643     35.43252         0.552483     -0.644907      1.667066
     14.43289      0.73712     35.54903        -1.128740      0.872716      1.638069
      0.94920      3.62737     41.07499         1.553429     -1.473954      0.466212
      0.91022     12.91883     41.38213         1.378374     -1.670582      1.208379
      9.76686      3.65569     41.28465         1.604119     -1.666520      0.190158
      9.66419     12.82738     41.54836        -0.730396      0.865586      1.163730
      3.85922      8.06409     41.15427         0.085329      0.108523     -0.803223
      3.71249     17.26112     41.30661        -0.376629     -0.320086     -0.389469
     12.80653      8.45914     41.35789         0.023030     -0.165869      0.351027
     12.67506     17.39277     41.24448        -0.346782     -0.305442     -0.609297
      8.14277      5.33448     41.28711         0.413157     -0.842455     -1.360837
      8.13350     14.55794     41.06935         0.849924     -0.855874     -0.793084
     17.30883      5.20231     41.47191         1.464647     -1.394589     -0.969894
     17.27081     14.48837     41.18106        -0.767392      0.423007      1.090587
      5.40102      0.82791     41.10915        -0.835565     -0.802676     -1.137630
      5.26411      9.92019     41.26334         1.143496      1.390890     -0.699204
     14.50876      0.81225     41.23993        -1.059473     -0.856570     -0.948795
     14.71033      9.80927     41.02564        -1.667920     -0.895708     -0.283395
      0.82731      3.68697     47.03596         0.025027     -0.030336     -0.094790
      0.82485     12.71837     47.03596         0.008438     -0.008344     -0.090842
      9.85771      3.68697     47.03596         0.017999     -0.027896     -0.091903
      9.85525     12.71837     47.03596         0.013444     -0.009123     -0.095589
      3.68432      8.20234     47.03465        -0.006449     -0.011835     -0.075129
      3.68186     17.23373     47.03465        -0.008165     -0.004579     -0.080580
     12.71472      8.20234     47.03465        -0.003570     -0.004928     -0.074077
     12.71226     17.23373     47.03465        -0.013645     -0.015911     -0.081808
      8.20068      5.34457     47.03603        -0.021849      0.013322     -0.094048
      8.19822     14.37597     47.03603        -0.021620      0.023138     -0.101971
     17.23108      5.34457     47.03603        -0.014555      0.011247     -0.110409
     17.22862     14.37597     47.03603        -0.031556      0.028310     -0.087570
      5.34365      0.82909     47.03465         0.008715      0.009088     -0.075900
      5.34119      9.86049     47.03465         0.010374      0.010945     -0.076856
     14.37405      0.82909     47.03465         0.007350      0.000518     -0.086404
     14.37159      9.86049     47.03465         0.014036      0.019798     -0.068438
     13.76344      9.88888     34.53761        -1.068348      0.748253      0.325710
      8.82858      0.28905     34.45388         0.229638      0.016556     -0.014398
      8.70949      9.36169     34.76200         0.013227     -0.073625     -0.180917
     17.83896      0.11570     34.53735         0.052256     -0.053679     -0.006552
      0.56083      9.12498     34.69081        -0.127705      0.036877     -0.069138
      4.50513      4.47371     34.45957        -0.008931     -0.041710     -0.046048
      4.59135     13.57134     34.55816        -0.005164      0.059486     -0.156882
     13.34300      3.92386     34.94148         0.037446      0.121229     -0.324591
     12.94728     14.15873     34.12670        -0.123570     -0.071336      0.234085
      0.03164      0.07269     40.90247         0.087881     -0.031321      0.037992
      0.26409      8.94529     41.00059        -0.002186     -0.002067     -0.102799
      8.98113     18.02557     40.88133         0.044873      0.070585      0.000595
      9.03994      8.83479     40.96161         0.062218      0.050650     -0.004382
      4.59727      4.42313     40.84558        -0.076250      0.022544      0.174934
      4.58912     13.61615     40.91261        -0.062586      0.033135      0.031264
     13.36868      4.60706     41.03589        -0.000525      0.002530     -0.108918
     13.65756     13.62225     40.85989        -0.074490      0.035391     -0.132878
      2.60330      1.95735     37.97139        -0.103162     -0.092040     -0.019646
      2.65380     11.06993     38.13170        -0.070539     -0.064545      0.020717
     11.64483      1.89519     38.13964         0.003476     -0.019448      0.004510
     11.17595     11.42756     38.45667         0.167362     -0.121434     -0.216859
      6.39163      7.09019     38.01204         0.078185      0.100861      0.047944
      6.62711     16.04537     37.98776        -0.019887      0.034450      0.090064
     15.91005      6.71689     38.35162        -0.003211      0.068387     -0.074307
     15.54632     16.14744     38.10142        -0.080852     -0.104769      0.038541
      2.04356      6.40664     38.00703        -0.012154     -0.015204      0.040591
      2.10051     15.70631     38.04348         0.033665      0.057366      0.054623
     10.61365      6.17106     38.01899         0.008504      0.015083     -0.051638
     10.99804     15.60922     38.08823        -0.015244     -0.061817      0.099944
      7.00739      2.53457     38.08718         0.129982     -0.232876     -0.025934
      6.91569     11.46860     38.31571         0.048187     -0.001229     -0.038543
     15.96433      2.51332     38.32467         0.094958     -0.003809     -0.075996
     16.53224     11.75642     38.52458        -0.230830      0.002211     -0.382701
      0.00000      0.00000     47.17356         0.000173      0.001168      0.393615
     -0.00246      9.03140     47.17356         0.000978     -0.002436      0.543364
      9.03040      0.00000     47.17356         0.000874     -0.002572      0.384391
      9.02794      9.03140     47.17356        -0.001844      0.001499      0.506942
      4.51398      4.51570     47.17425         0.000971     -0.006285      0.367482
      4.51152     13.54710     47.17425         0.003285      0.004458      0.460462
     13.54438      4.51570     47.17425         0.002113     -0.003745      0.553741
     13.54192     13.54710     47.17425         0.000703      0.003558      0.324569
      2.45192      2.06295     44.04013         0.002149     -0.007385     -0.023298
      2.44946     11.09435     44.04013         0.057068      0.004056      0.053482
     11.48232      2.06295     44.04013         0.004367     -0.060824      0.009870
     11.47986     11.09435     44.04013         0.047768      0.003849      0.045641
      6.57602      6.96845     44.04013        -0.079940      0.024643      0.060621
      6.57356     15.99985     44.04013         0.003125      0.041774      0.020622
     15.60642      6.96845     44.04013        -0.089134      0.086558      0.004905
     15.60396     15.99985     44.04013        -0.015820      0.027416      0.009136
      2.06108      6.57881     44.04000         0.060458     -0.078715      0.023556
      2.05862     15.61021     44.04000        -0.020184      0.020457      0.038907
     11.09148      6.57881     44.04000        -0.022956     -0.020575      0.031870
     11.08902     15.61021     44.04000        -0.016328      0.005608     -0.008900
      6.96686      2.45259     44.04007         0.008524     -0.022711      0.007184
      6.96440     11.48399     44.04007         0.009670      0.027525      0.022069
     15.99726      2.45259     44.04007         0.061565      0.019887      0.052001
     15.99481     11.48399     44.04007         0.027584      0.034237     -0.027873
      2.43163      2.08322     50.06849         0.008829     -0.013263      0.022108
      2.42917     11.11462     50.06849         0.017848     -0.001168      0.024337
     11.46203      2.08322     50.06849        -0.005295     -0.028020      0.022983
     11.45957     11.11462     50.06849         0.024629      0.006315      0.023373
      6.59631      6.94818     50.06849        -0.021211     -0.001992      0.024674
      6.59385     15.97958     50.06849        -0.001466      0.018144      0.022343
     15.62671      6.94818     50.06849        -0.008857      0.008435      0.023786
     15.62425     15.97958     50.06849        -0.013064      0.008332      0.021979
      2.08113      6.59901     50.06905         0.003756     -0.025292      0.024909
      2.07867     15.63041     50.06905        -0.016685     -0.002187      0.022927
     11.11153      6.59901     50.06905        -0.012738     -0.007994      0.025426
     11.10907     15.63041     50.06905        -0.007589     -0.012136      0.021637
      6.94681      2.43239     50.06905         0.012423      0.005395      0.023460
      6.94435     11.46379     50.06905         0.005129      0.016323      0.024606
     15.97721      2.43239     50.06905         0.024827     -0.007330      0.022759
     15.97475     11.46379     50.06905        -0.007071      0.028507      0.024522
     17.95946      0.09292     37.75832         0.036015      0.013947      0.019086
      0.12675      9.07993     37.80815         0.021756      0.067998      0.049293
      9.05822      0.12997     37.69839        -0.078438      0.071623     -0.018993
      8.99719      9.06232     37.78128        -0.030314     -0.111658      0.164050
      4.52010      4.47965     37.69791        -0.030137      0.193833     -0.013535
      4.54404     13.59575     37.67347        -0.110644      0.002872      0.128475
     13.47514      4.57040     37.94017        -0.068255      0.110312      0.068433
     13.40306     13.72341     37.71490         0.013493     -0.035700      0.014216
      0.00001      0.00001     44.04300        -0.004451     -0.036012      0.116982
     -0.00245      9.03141     44.04300         0.058465      0.002440      0.128892
      9.03041      0.00001     44.04300        -0.016346      0.029610      0.084175
      9.02795      9.03141     44.04300         0.042066      0.007633      0.143546
      4.51397      4.51569     44.04275         0.015796      0.044367      0.018299
      4.51151     13.54709     44.04275        -0.037705     -0.023699      0.026742
     13.54437      4.51569     44.04275        -0.002833      0.018809      0.316473
     13.54191     13.54709     44.04275        -0.038367     -0.063279      0.055345
      0.00000      0.00000     50.44728        -0.001605      0.006497     -0.618783
     -0.00246      9.03140     50.44728        -0.002377     -0.007094     -0.661998
      9.03040      0.00000     50.44728         0.002342      0.007516     -0.617151
      9.02794      9.03140     50.44728         0.002282     -0.008564     -0.654109
      4.51397      4.51570     50.44728        -0.002030      0.017275     -0.614589
      4.51151     13.54710     50.44728        -0.000780     -0.018545     -0.639576
     13.54437      4.51570     50.44728        -0.000406      0.017951     -0.663097
     13.54191     13.54710     50.44728         0.003676     -0.018687     -0.602749
 -----------------------------------------------------------------------------------
    total drift:                               -0.038159      0.149363      0.830039


--------------------------------------------------------------------------------------------------------



  FREE ENERGIE OF THE ION-ELECTRON SYSTEM (eV)
  ---------------------------------------------------
  free  energy   TOTEN  =     -1572.65826185 eV

  energy  without entropy=    -1572.65826185  energy(sigma->0) =    -1572.65826185
 


--------------------------------------------------------------------------------------------------------


    POTLOK:  cpu time    0.5008: real time    0.5007


--------------------------------------------------------------------------------------------------------


     LOOP+:  cpu time  323.2216: real time  323.7796
 vacuum level on the upper side and lower side of the slab         2.358         1.506
    4ORBIT:  cpu time    0.0000: real time    0.0000

 total amount of memory used by VASP MPI-rank0  8653582. kBytes
=======================================================================

   base      :      30000. kBytes
   nonlr-proj:      53620. kBytes
   fftplans  :     249280. kBytes
   grid      :     701440. kBytes
   one-center:       2636. kBytes
   wavefun   :    7616606. kBytes
 
  
  
 General timing and accounting informations for this job:
 ========================================================
  
                  Total CPU time used (sec):      538.644
                            User time (sec):      432.548
                          System time (sec):      106.096
                         Elapsed time (sec):      539.321
  
                   Maximum memory used (kb):    10308840.
                   Average memory used (kb):          N/A
  
                          Minor page faults:      3756675
                          Major page faults:           12
                 Voluntary context switches:        11314
