<?xml version="1.0" encoding="ISO-8859-1"?>
<modeling>
 <generator>
  <i name="program" type="string">vasp </i>
  <i name="version" type="string">6.2.1  </i>
  <i name="subversion" type="string">16May21 (build Nov 15 2021 14:57:28) complex                          parallel </i>
  <i name="platform" type="string">LinuxPGI </i>
  <i name="date" type="string">2023 07 25 </i>
  <i name="time" type="string">00:16:26 </i>
 </generator>
 <incar>
  <i type="string" name="SYSTEM">PSC</i>
  <i type="int" name="ISTART">     1</i>
  <i type="string" name="PREC">Normal</i>
  <i name="BMIX">      0.01000000</i>
  <i name="AMIN">      0.01000000</i>
  <i type="int" name="ICHARG">     1</i>
  <i type="int" name="NELM">   600</i>
  <i type="int" name="ISYM">     0</i>
  <i name="ENCUT">    500.00000000</i>
  <i type="string" name="LREAL">Auto</i>
  <i type="int" name="ISMEAR">     0</i>
  <i name="SIGMA">      0.05000000</i>
  <i type="logical" name="LWAVE"> F  </i>
  <i type="logical" name="LVTOT"> T  </i>
  <i type="logical" name="GGA_COMPAT"> F  </i>
  <i type="logical" name="LDIPOL"> T  </i>
  <i type="int" name="IDIPOL">     3</i>
  <i type="int" name="IVDW">    12</i>
 </incar>
 <primitive_cell>
  <structure name="primitive_cell" >
   <crystal>
    <varray name="basis" >
     <v>      18.06080055       0.00000000       0.00000000 </v>
     <v>      -0.00491865      18.06279945       0.00000000 </v>
     <v>       0.00000000       0.00000000      62.48749924 </v>
    </varray>
    <i name="volume">  20385.21054034 </i>
    <varray name="rec_basis" >
     <v>       0.05536853       0.00001508      -0.00000000 </v>
     <v>       0.00000000       0.05536240       0.00000000 </v>
     <v>       0.00000000      -0.00000000       0.01600320 </v>
    </varray>
   </crystal>
   <varray name="positions" >
    <v>       0.44086937       0.31893778       0.57162282 </v>
    <v>       0.42202574       0.83081282       0.57099787 </v>
    <v>       0.97335688       0.32095998       0.58055160 </v>
    <v>       0.95529899       0.81140434       0.57912358 </v>
    <v>       0.31793771       0.95281810       0.57365459 </v>
    <v>       0.33588669       0.56280308       0.57191310 </v>
    <v>       0.79582208       0.07613798       0.57817802 </v>
    <v>       0.02458386       0.13654314       0.56207086 </v>
    <v>       0.06212732       0.64694778       0.56542578 </v>
    <v>       0.56575098       0.17742613       0.55254325 </v>
    <v>       0.52112283       0.65743314       0.56359863 </v>
    <v>       0.35888380       0.01882632       0.55706088 </v>
    <v>       0.28274885       0.62658339       0.55712730 </v>
    <v>       0.86936298       0.02816313       0.56575177 </v>
    <v>       0.98692678       0.18649120       0.58399242 </v>
    <v>       0.00399557       0.68456240       0.58472083 </v>
    <v>       0.56040543       0.25505166       0.56913703 </v>
    <v>       0.44810713       0.69403219       0.57730376 </v>
    <v>       0.28533861       0.43418312       0.57504715 </v>
    <v>       0.18238787       0.93531765       0.57133058 </v>
    <v>       0.67246156       0.02308488       0.57430518 </v>
    <v>       0.36531206       0.27810047       0.55825747 </v>
    <v>       0.48538988       0.87906470       0.55503466 </v>
    <v>       0.02062059       0.36204269       0.55935773 </v>
    <v>       0.99229236       0.86045594       0.55759651 </v>
    <v>       0.19852429       0.42015916       0.56321006 </v>
    <v>       0.13433634       0.99587413       0.55442773 </v>
    <v>       0.66790601       0.93554112       0.56125740 </v>
    <v>       0.43894067       0.18322590       0.54380274 </v>
    <v>       0.55672642       0.77205400       0.54844783 </v>
    <v>       0.05026651       0.24805583       0.54348889 </v>
    <v>       0.06276368       0.75968978       0.54538789 </v>
    <v>       0.18994329       0.53891175       0.54957629 </v>
    <v>       0.24175779       0.05760361       0.54333108 </v>
    <v>       0.79270140       0.93171180       0.55396444 </v>
    <v>       0.47523143       0.32859683       0.67045423 </v>
    <v>       0.43563720       0.81489131       0.67275004 </v>
    <v>       0.96888214       0.27902907       0.68034769 </v>
    <v>       0.91775050       0.75461602       0.67250597 </v>
    <v>       0.30738300       0.05387159       0.67186729 </v>
    <v>       0.30149668       0.54791930       0.67565607 </v>
    <v>       0.79114848       0.06484671       0.67485086 </v>
    <v>       0.77735607       0.59390214       0.66637797 </v>
    <v>       0.08515562       0.16457796       0.64520681 </v>
    <v>       0.10270893       0.70236536       0.65358843 </v>
    <v>       0.58446575       0.17326132       0.65089911 </v>
    <v>       0.56871839       0.67712536       0.65440549 </v>
    <v>       0.18313020       0.41111090       0.64871605 </v>
    <v>       0.16935369       0.92304829       0.65111827 </v>
    <v>       0.70772976       0.40591822       0.66144883 </v>
    <v>       0.67641300       0.91681478       0.65235539 </v>
    <v>       0.06685095       0.17696479       0.67272843 </v>
    <v>       0.03823235       0.67878099       0.67361758 </v>
    <v>       0.59299317       0.25302724       0.66670781 </v>
    <v>       0.53048587       0.70927806       0.67783547 </v>
    <v>       0.20732461       0.44113439       0.67466009 </v>
    <v>       0.20239568       0.95804048       0.67548130 </v>
    <v>       0.68811467       0.48967198       0.67414729 </v>
    <v>       0.69327217       0.96216629       0.67666238 </v>
    <v>       0.39637852       0.29244838       0.65758349 </v>
    <v>       0.42122057       0.84092475       0.64604847 </v>
    <v>       0.93461804       0.32324660       0.65803994 </v>
    <v>       0.91127626       0.81961770       0.65199656 </v>
    <v>       0.33312850       0.07323859       0.64535833 </v>
    <v>       0.32811335       0.58092383       0.65052532 </v>
    <v>       0.83138067       0.07765375       0.64935699 </v>
    <v>       0.84185907       0.57717139       0.64612838 </v>
    <v>       0.00411616       0.25585249       0.63408569 </v>
    <v>       0.02701358       0.79107120       0.63807818 </v>
    <v>       0.46007564       0.19323278       0.64289330 </v>
    <v>       0.50397350       0.75668538       0.63240450 </v>
    <v>       0.24857506       0.99288576       0.63054909 </v>
    <v>       0.25668895       0.49782547       0.63185331 </v>
    <v>       0.76243699       0.98424848       0.63361037 </v>
    <v>       0.80519824       0.45456013       0.64164976 </v>
    <v>       0.44874502       0.30128397       0.76888902 </v>
    <v>       0.44874501       0.80128391       0.76888902 </v>
    <v>       0.94874497       0.30128397       0.76888902 </v>
    <v>       0.94874501       0.80128391       0.76888902 </v>
    <v>       0.30127600       0.05129450       0.76887296 </v>
    <v>       0.30127601       0.55129450       0.76887296 </v>
    <v>       0.80127594       0.05129450       0.76887296 </v>
    <v>       0.80127598       0.55129450       0.76887296 </v>
    <v>       0.07877100       0.17118050       0.74344197 </v>
    <v>       0.07877101       0.67118045       0.74344197 </v>
    <v>       0.57877100       0.17118050       0.74344197 </v>
    <v>       0.57877099       0.67118045       0.74344197 </v>
    <v>       0.17119950       0.42117448       0.74342103 </v>
    <v>       0.17119950       0.92117451       0.74342103 </v>
    <v>       0.67119951       0.42117448       0.74342103 </v>
    <v>       0.67119950       0.92117451       0.74342103 </v>
    <v>       0.05125600       0.19871499       0.76888902 </v>
    <v>       0.05125600       0.69871493       0.76888902 </v>
    <v>       0.55125603       0.19871499       0.76888902 </v>
    <v>       0.55125602       0.69871493       0.76888902 </v>
    <v>       0.19872349       0.44870397       0.76887205 </v>
    <v>       0.19872349       0.94870397       0.76887205 </v>
    <v>       0.69872352       0.44870397       0.76887205 </v>
    <v>       0.69872351       0.94870397       0.76887205 </v>
    <v>       0.42123152       0.32881747       0.74344197 </v>
    <v>       0.42123151       0.82881744       0.74344197 </v>
    <v>       0.92123147       0.32881747       0.74344197 </v>
    <v>       0.92123151       0.82881744       0.74344197 </v>
    <v>       0.32880050       0.07882500       0.74342103 </v>
    <v>       0.32880049       0.57882496       0.74342103 </v>
    <v>       0.82880048       0.07882500       0.74342103 </v>
    <v>       0.82880052       0.57882496       0.74342103 </v>
    <v>       0.00000350       0.25000148       0.72582199 </v>
    <v>       0.00000350       0.75000145       0.72582199 </v>
    <v>       0.50000351       0.25000148       0.72582199 </v>
    <v>       0.50000350       0.75000145       0.72582199 </v>
    <v>       0.25000050       0.00000000       0.72580398 </v>
    <v>       0.25000052       0.50000000       0.72580398 </v>
    <v>       0.75000050       0.00000000       0.72580398 </v>
    <v>       0.75000049       0.50000000       0.72580398 </v>
    <v>       0.77535263       0.55522545       0.52044156 </v>
    <v>       0.72049298       0.47617773       0.52637469 </v>
    <v>       0.87401012       0.50105923       0.54225842 </v>
    <v>       0.85626668       0.47868926       0.56923898 </v>
    <v>       0.74300497       0.64135529       0.55979623 </v>
    <v>       0.80342052       0.59677291       0.57783487 </v>
    <v>       0.66884448       0.54859501       0.57055253 </v>
    <v>       0.67712968       0.45534914       0.56151563 </v>
    <v>       0.61514627       0.55183731       0.53757175 </v>
    <v>       0.66972313       0.63348595       0.53661728 </v>
    <v>       0.60598618       0.64531269       0.50549097 </v>
    <v>       0.68659969       0.60118748       0.49599764 </v>
    <v>       0.80215437       0.38960098       0.52988601 </v>
    <v>       0.77228024       0.37117836       0.55657110 </v>
    <v>       0.86722497       0.36302204       0.55011650 </v>
    <v>       0.86455727       0.69315327       0.55670082 </v>
    <v>       0.84668585       0.64739397       0.53228536 </v>
    <v>       0.90817212       0.60617555       0.55154861 </v>
    <v>       0.75480150       0.52540800       0.60028022 </v>
    <v>       0.77689173       0.43611254       0.59026137 </v>
    <v>       0.68756153       0.45528040       0.59972139 </v>
    <v>       0.53483379       0.52944533       0.50414969 </v>
    <v>       0.57573436       0.54707586       0.47883469 </v>
    <v>       0.69082028       0.47479549       0.46856479 </v>
    <v>       0.56114979       0.41921796       0.52412778 </v>
    <v>       0.75932731       0.35679386       0.47174444 </v>
    <v>       0.63030389       0.29976358       0.52720866 </v>
    <v>       0.72979656       0.26916464       0.50152225 </v>
    <v>       0.02155428       0.24927020       0.55885042 </v>
    <v>       0.02892488       0.75362274       0.56009231 </v>
    <v>       0.46513229       0.22628251       0.55394545 </v>
    <v>       0.50637465       0.76817236       0.55818800 </v>
    <v>       0.23888904       0.52288522       0.55883211 </v>
    <v>       0.24565793       0.01142353       0.55465641 </v>
    <v>       0.76954570       0.97932663       0.56255844 </v>
    <v>       0.01004955       0.24362576       0.65125410 </v>
    <v>       0.00769189       0.76092688       0.65231297 </v>
    <v>       0.48987527       0.23259278       0.65335620 </v>
    <v>       0.49522717       0.75879132       0.65004005 </v>
    <v>       0.25590486       0.49635717       0.64942475 </v>
    <v>       0.25090001       0.99807484       0.64804356 </v>
    <v>       0.77527372       0.49003290       0.65297631 </v>
    <v>       0.75378812       0.99638467       0.65066725 </v>
    <v>       0.49998898       0.24999498       0.74327702 </v>
    <v>       0.49998903       0.74999496       0.74327702 </v>
    <v>       0.99998898       0.24999498       0.74327702 </v>
    <v>       0.99998903       0.74999496       0.74327702 </v>
    <v>       0.25000050       0.00000100       0.74325596 </v>
    <v>       0.25000052       0.50000100       0.74325596 </v>
    <v>       0.75000050       0.00000100       0.74325596 </v>
    <v>       0.75000049       0.50000100       0.74325596 </v>
    <v>       0.62226424       0.45565996       0.49611382 </v>
    <v>       0.67779955       0.43733977       0.48129692 </v>
    <v>       0.60418070       0.40501173       0.51240180 </v>
    <v>       0.71674455       0.37028061       0.48313652 </v>
    <v>       0.64362400       0.33829914       0.51429452 </v>
    <v>       0.69989956       0.32111798       0.49977626 </v>
    <v>       0.73178174       0.53298753       0.53103987 </v>
    <v>       0.83297238       0.47611147       0.55303237 </v>
    <v>       0.79097263       0.60417467       0.56085949 </v>
    <v>       0.70678555       0.50140162       0.56905547 </v>
    <v>       0.66109318       0.57959317       0.52938713 </v>
    <v>       0.63655440       0.59232544       0.50588545 </v>
    <v>       0.81733238       0.39616191       0.54684283 </v>
    <v>       0.85702261       0.63825210       0.54940811 </v>
    <v>       0.73466195       0.47883018       0.59082252 </v>
    <v>       0.58746183       0.53161336       0.49556863 </v>
    <v>       0.01108419       0.18610047       0.56914912 </v>
    <v>       0.03390969       0.69177298       0.57097260 </v>
    <v>       0.53610992       0.22104331       0.55804796 </v>
    <v>       0.49056366       0.70353034       0.56671912 </v>
    <v>       0.42205947       0.28088315       0.56098891 </v>
    <v>       0.46652684       0.82890809       0.56076023 </v>
    <v>       0.00065595       0.31417709       0.56626603 </v>
    <v>       0.98615126       0.81022156       0.56528109 </v>
    <v>       0.24228487       0.45416616       0.56560000 </v>
    <v>       0.18424559       0.97705442       0.55978738 </v>
    <v>       0.69671236       0.98131781       0.56526766 </v>
    <v>       0.31190597       0.99512766       0.56251064 </v>
    <v>       0.28932374       0.57427032       0.56268750 </v>
    <v>       0.81474040       0.03007980       0.56979085 </v>
    <v>       0.05591253       0.19231129       0.65694152 </v>
    <v>       0.05098440       0.71079082       0.66034546 </v>
    <v>       0.55984355       0.21976320       0.65751890 </v>
    <v>       0.53372319       0.71231630       0.66175687 </v>
    <v>       0.21323569       0.44609883       0.65857661 </v>
    <v>       0.20456854       0.95766203       0.65914728 </v>
    <v>       0.71942608       0.46028430       0.66350911 </v>
    <v>       0.70493828       0.95621699       0.66080282 </v>
    <v>       0.45229406       0.29026179       0.66080917 </v>
    <v>       0.44774188       0.80801567       0.65699579 </v>
    <v>       0.96856522       0.28410201       0.66428203 </v>
    <v>       0.94188185       0.78004894       0.65962046 </v>
    <v>       0.30038412       0.04482202       0.65602739 </v>
    <v>       0.29761205       0.54432082       0.65944440 </v>
    <v>       0.79456406       0.05024562       0.65920894 </v>
    <v>       0.79930163       0.55855946       0.65517841 </v>
    <v>       0.04586250       0.20411950       0.75272599 </v>
    <v>       0.04586250       0.70411946       0.75272599 </v>
    <v>       0.54586251       0.20411950       0.75272599 </v>
    <v>       0.54586250       0.70411946       0.75272599 </v>
    <v>       0.20411900       0.45410100       0.75270499 </v>
    <v>       0.20411899       0.95410095       0.75270499 </v>
    <v>       0.70411898       0.45410100       0.75270499 </v>
    <v>       0.70411896       0.95410095       0.75270499 </v>
    <v>       0.45414002       0.29588849       0.75272697 </v>
    <v>       0.45414001       0.79588852       0.75272697 </v>
    <v>       0.95414002       0.29588849       0.75272697 </v>
    <v>       0.95414006       0.79588852       0.75272697 </v>
    <v>       0.29588249       0.04590050       0.75270499 </v>
    <v>       0.29588248       0.54590053       0.75270499 </v>
    <v>       0.79588244       0.04590050       0.75270499 </v>
    <v>       0.79588248       0.54590053       0.75270499 </v>
    <v>       0.76577002       0.52796552       0.55335451 </v>
    <v>       0.50576494       0.01901936       0.55258605 </v>
    <v>       0.47377073       0.50273666       0.55562261 </v>
    <v>       0.99580847       0.00089739       0.55010221 </v>
    <v>       0.03911844       0.49865725       0.55292425 </v>
    <v>       0.23053069       0.23621748       0.55318010 </v>
    <v>       0.25080502       0.76734603       0.55394264 </v>
    <v>       0.73762755       0.20407146       0.55530681 </v>
    <v>       0.70784139       0.79139110       0.55053925 </v>
    <v>       0.00175700       0.98600235       0.65444181 </v>
    <v>       0.01053124       0.49359004       0.65539372 </v>
    <v>       0.50095335       0.00904035       0.65480510 </v>
    <v>       0.51256913       0.48972837       0.65566929 </v>
    <v>       0.26003038       0.24440125       0.65450292 </v>
    <v>       0.25126064       0.75338299       0.65482336 </v>
    <v>       0.74937747       0.26425546       0.65464204 </v>
    <v>       0.74575358       0.75368948       0.65420269 </v>
    <v>       0.13605709       0.10670688       0.60812407 </v>
    <v>       0.14757877       0.60838392       0.61026568 </v>
    <v>       0.64946909       0.10563828       0.61178667 </v>
    <v>       0.61748094       0.63506487       0.61357743 </v>
    <v>       0.36000089       0.38686382       0.60740384 </v>
    <v>       0.36857479       0.88430640       0.60744028 </v>
    <v>       0.89314647       0.36313183       0.61327336 </v>
    <v>       0.87322157       0.87185522       0.60863767 </v>
    <v>       0.12314375       0.35992936       0.61052946 </v>
    <v>       0.12323979       0.87150322       0.60645296 </v>
    <v>       0.58205729       0.33078774       0.60327624 </v>
    <v>       0.61546327       0.87202148       0.61087194 </v>
    <v>       0.38617267       0.13381471       0.60610157 </v>
    <v>       0.38499256       0.63121591       0.61092346 </v>
    <v>       0.88876228       0.13814792       0.61315865 </v>
    <v>       0.90825120       0.64215111       0.61404433 </v>
    <v>       0.00000000       0.00000000       0.75492797 </v>
    <v>       0.00000000       0.50000000       0.75492797 </v>
    <v>       0.50000000       0.00000000       0.75492797 </v>
    <v>       0.49999999       0.50000000       0.75492797 </v>
    <v>       0.25000050       0.25000000       0.75493902 </v>
    <v>       0.25000051       0.74999997       0.75493902 </v>
    <v>       0.75000047       0.25000000       0.75493902 </v>
    <v>       0.75000046       0.74999997       0.75493902 </v>
    <v>       0.13579050       0.11421000       0.70478299 </v>
    <v>       0.13579050       0.61420998       0.70478299 </v>
    <v>       0.63579045       0.11421000       0.70478299 </v>
    <v>       0.63579049       0.61420998       0.70478299 </v>
    <v>       0.36420952       0.38578999       0.70478299 </v>
    <v>       0.36420950       0.88578996       0.70478299 </v>
    <v>       0.86420954       0.38578999       0.70478299 </v>
    <v>       0.86420953       0.88578996       0.70478299 </v>
    <v>       0.11421799       0.36421899       0.70478098 </v>
    <v>       0.11421799       0.86421899       0.70478098 </v>
    <v>       0.61421800       0.36421899       0.70478098 </v>
    <v>       0.61421799       0.86421899       0.70478098 </v>
    <v>       0.38578201       0.13578149       0.70478202 </v>
    <v>       0.38578200       0.63578149       0.70478202 </v>
    <v>       0.88578199       0.13578149       0.70478202 </v>
    <v>       0.88578203       0.63578149       0.70478202 </v>
    <v>       0.13466700       0.11533200       0.80125603 </v>
    <v>       0.13466699       0.61533199       0.80125603 </v>
    <v>       0.63466699       0.11533200       0.80125603 </v>
    <v>       0.63466698       0.61533199       0.80125603 </v>
    <v>       0.36533300       0.38466799       0.80125603 </v>
    <v>       0.36533299       0.88466796       0.80125603 </v>
    <v>       0.86533295       0.38466799       0.80125603 </v>
    <v>       0.86533294       0.88466796       0.80125603 </v>
    <v>       0.11532850       0.36533700       0.80126500 </v>
    <v>       0.11532850       0.86533698       0.80126500 </v>
    <v>       0.61532850       0.36533700       0.80126500 </v>
    <v>       0.61532849       0.86533698       0.80126500 </v>
    <v>       0.38467151       0.13466300       0.80126500 </v>
    <v>       0.38467150       0.63466297       0.80126500 </v>
    <v>       0.88467149       0.13466300       0.80126500 </v>
    <v>       0.88467153       0.63466297       0.80126500 </v>
    <v>       0.99374939       0.99669016       0.60578901 </v>
    <v>       0.00973299       0.49967661       0.60590232 </v>
    <v>       0.49988311       0.00780434       0.60449774 </v>
    <v>       0.49711085       0.49209117       0.60449279 </v>
    <v>       0.24354475       0.24045616       0.60353740 </v>
    <v>       0.24851712       0.74756600       0.60382457 </v>
    <v>       0.73861015       0.24938351       0.60244282 </v>
    <v>       0.73252871       0.75600814       0.60158572 </v>
    <v>       0.00000050       0.00000050       0.70482896 </v>
    <v>       0.00000050       0.50000048       0.70482896 </v>
    <v>       0.50000048       0.00000050       0.70482896 </v>
    <v>       0.50000046       0.50000048       0.70482896 </v>
    <v>       0.24999999       0.24999947       0.70482499 </v>
    <v>       0.25000001       0.74999950       0.70482499 </v>
    <v>       0.74999999       0.24999947       0.70482499 </v>
    <v>       0.74999998       0.74999950       0.70482499 </v>
    <v>       0.00000000       0.00000000       0.80731797 </v>
    <v>       0.00000000       0.50000000       0.80731797 </v>
    <v>       0.50000000       0.00000000       0.80731797 </v>
    <v>       0.49999999       0.50000000       0.80731797 </v>
    <v>       0.24999999       0.25000000       0.80731797 </v>
    <v>       0.25000001       0.74999997       0.80731797 </v>
    <v>       0.74999999       0.25000000       0.80731797 </v>
    <v>       0.74999998       0.74999997       0.80731797 </v>
   </varray>
  </structure>
  <varray name="primitive_index" >
   <v type="int" >        1 </v>
   <v type="int" >        2 </v>
   <v type="int" >        3 </v>
   <v type="int" >        4 </v>
   <v type="int" >        5 </v>
   <v type="int" >        6 </v>
   <v type="int" >        7 </v>
   <v type="int" >        8 </v>
   <v type="int" >        9 </v>
   <v type="int" >       10 </v>
   <v type="int" >       11 </v>
   <v type="int" >       12 </v>
   <v type="int" >       13 </v>
   <v type="int" >       14 </v>
   <v type="int" >       15 </v>
   <v type="int" >       16 </v>
   <v type="int" >       17 </v>
   <v type="int" >       18 </v>
   <v type="int" >       19 </v>
   <v type="int" >       20 </v>
   <v type="int" >       21 </v>
   <v type="int" >       22 </v>
   <v type="int" >       23 </v>
   <v type="int" >       24 </v>
   <v type="int" >       25 </v>
   <v type="int" >       26 </v>
   <v type="int" >       27 </v>
   <v type="int" >       28 </v>
   <v type="int" >       29 </v>
   <v type="int" >       30 </v>
   <v type="int" >       31 </v>
   <v type="int" >       32 </v>
   <v type="int" >       33 </v>
   <v type="int" >       34 </v>
   <v type="int" >       35 </v>
   <v type="int" >       36 </v>
   <v type="int" >       37 </v>
   <v type="int" >       38 </v>
   <v type="int" >       39 </v>
   <v type="int" >       40 </v>
   <v type="int" >       41 </v>
   <v type="int" >       42 </v>
   <v type="int" >       43 </v>
   <v type="int" >       44 </v>
   <v type="int" >       45 </v>
   <v type="int" >       46 </v>
   <v type="int" >       47 </v>
   <v type="int" >       48 </v>
   <v type="int" >       49 </v>
   <v type="int" >       50 </v>
   <v type="int" >       51 </v>
   <v type="int" >       52 </v>
   <v type="int" >       53 </v>
   <v type="int" >       54 </v>
   <v type="int" >       55 </v>
   <v type="int" >       56 </v>
   <v type="int" >       57 </v>
   <v type="int" >       58 </v>
   <v type="int" >       59 </v>
   <v type="int" >       60 </v>
   <v type="int" >       61 </v>
   <v type="int" >       62 </v>
   <v type="int" >       63 </v>
   <v type="int" >       64 </v>
   <v type="int" >       65 </v>
   <v type="int" >       66 </v>
   <v type="int" >       67 </v>
   <v type="int" >       68 </v>
   <v type="int" >       69 </v>
   <v type="int" >       70 </v>
   <v type="int" >       71 </v>
   <v type="int" >       72 </v>
   <v type="int" >       73 </v>
   <v type="int" >       74 </v>
   <v type="int" >       75 </v>
   <v type="int" >       76 </v>
   <v type="int" >       77 </v>
   <v type="int" >       78 </v>
   <v type="int" >       79 </v>
   <v type="int" >       80 </v>
   <v type="int" >       81 </v>
   <v type="int" >       82 </v>
   <v type="int" >       83 </v>
   <v type="int" >       84 </v>
   <v type="int" >       85 </v>
   <v type="int" >       86 </v>
   <v type="int" >       87 </v>
   <v type="int" >       88 </v>
   <v type="int" >       89 </v>
   <v type="int" >       90 </v>
   <v type="int" >       91 </v>
   <v type="int" >       92 </v>
   <v type="int" >       93 </v>
   <v type="int" >       94 </v>
   <v type="int" >       95 </v>
   <v type="int" >       96 </v>
   <v type="int" >       97 </v>
   <v type="int" >       98 </v>
   <v type="int" >       99 </v>
   <v type="int" >      100 </v>
   <v type="int" >      101 </v>
   <v type="int" >      102 </v>
   <v type="int" >      103 </v>
   <v type="int" >      104 </v>
   <v type="int" >      105 </v>
   <v type="int" >      106 </v>
   <v type="int" >      107 </v>
   <v type="int" >      108 </v>
   <v type="int" >      109 </v>
   <v type="int" >      110 </v>
   <v type="int" >      111 </v>
   <v type="int" >      112 </v>
   <v type="int" >      113 </v>
   <v type="int" >      114 </v>
   <v type="int" >      115 </v>
   <v type="int" >      116 </v>
   <v type="int" >      117 </v>
   <v type="int" >      118 </v>
   <v type="int" >      119 </v>
   <v type="int" >      120 </v>
   <v type="int" >      121 </v>
   <v type="int" >      122 </v>
   <v type="int" >      123 </v>
   <v type="int" >      124 </v>
   <v type="int" >      125 </v>
   <v type="int" >      126 </v>
   <v type="int" >      127 </v>
   <v type="int" >      128 </v>
   <v type="int" >      129 </v>
   <v type="int" >      130 </v>
   <v type="int" >      131 </v>
   <v type="int" >      132 </v>
   <v type="int" >      133 </v>
   <v type="int" >      134 </v>
   <v type="int" >      135 </v>
   <v type="int" >      136 </v>
   <v type="int" >      137 </v>
   <v type="int" >      138 </v>
   <v type="int" >      139 </v>
   <v type="int" >      140 </v>
   <v type="int" >      141 </v>
   <v type="int" >      142 </v>
   <v type="int" >      143 </v>
   <v type="int" >      144 </v>
   <v type="int" >      145 </v>
   <v type="int" >      146 </v>
   <v type="int" >      147 </v>
   <v type="int" >      148 </v>
   <v type="int" >      149 </v>
   <v type="int" >      150 </v>
   <v type="int" >      151 </v>
   <v type="int" >      152 </v>
   <v type="int" >      153 </v>
   <v type="int" >      154 </v>
   <v type="int" >      155 </v>
   <v type="int" >      156 </v>
   <v type="int" >      157 </v>
   <v type="int" >      158 </v>
   <v type="int" >      159 </v>
   <v type="int" >      160 </v>
   <v type="int" >      161 </v>
   <v type="int" >      162 </v>
   <v type="int" >      163 </v>
   <v type="int" >      164 </v>
   <v type="int" >      165 </v>
   <v type="int" >      166 </v>
   <v type="int" >      167 </v>
   <v type="int" >      168 </v>
   <v type="int" >      169 </v>
   <v type="int" >      170 </v>
   <v type="int" >      171 </v>
   <v type="int" >      172 </v>
   <v type="int" >      173 </v>
   <v type="int" >      174 </v>
   <v type="int" >      175 </v>
   <v type="int" >      176 </v>
   <v type="int" >      177 </v>
   <v type="int" >      178 </v>
   <v type="int" >      179 </v>
   <v type="int" >      180 </v>
   <v type="int" >      181 </v>
   <v type="int" >      182 </v>
   <v type="int" >      183 </v>
   <v type="int" >      184 </v>
   <v type="int" >      185 </v>
   <v type="int" >      186 </v>
   <v type="int" >      187 </v>
   <v type="int" >      188 </v>
   <v type="int" >      189 </v>
   <v type="int" >      190 </v>
   <v type="int" >      191 </v>
   <v type="int" >      192 </v>
   <v type="int" >      193 </v>
   <v type="int" >      194 </v>
   <v type="int" >      195 </v>
   <v type="int" >      196 </v>
   <v type="int" >      197 </v>
   <v type="int" >      198 </v>
   <v type="int" >      199 </v>
   <v type="int" >      200 </v>
   <v type="int" >      201 </v>
   <v type="int" >      202 </v>
   <v type="int" >      203 </v>
   <v type="int" >      204 </v>
   <v type="int" >      205 </v>
   <v type="int" >      206 </v>
   <v type="int" >      207 </v>
   <v type="int" >      208 </v>
   <v type="int" >      209 </v>
   <v type="int" >      210 </v>
   <v type="int" >      211 </v>
   <v type="int" >      212 </v>
   <v type="int" >      213 </v>
   <v type="int" >      214 </v>
   <v type="int" >      215 </v>
   <v type="int" >      216 </v>
   <v type="int" >      217 </v>
   <v type="int" >      218 </v>
   <v type="int" >      219 </v>
   <v type="int" >      220 </v>
   <v type="int" >      221 </v>
   <v type="int" >      222 </v>
   <v type="int" >      223 </v>
   <v type="int" >      224 </v>
   <v type="int" >      225 </v>
   <v type="int" >      226 </v>
   <v type="int" >      227 </v>
   <v type="int" >      228 </v>
   <v type="int" >      229 </v>
   <v type="int" >      230 </v>
   <v type="int" >      231 </v>
   <v type="int" >      232 </v>
   <v type="int" >      233 </v>
   <v type="int" >      234 </v>
   <v type="int" >      235 </v>
   <v type="int" >      236 </v>
   <v type="int" >      237 </v>
   <v type="int" >      238 </v>
   <v type="int" >      239 </v>
   <v type="int" >      240 </v>
   <v type="int" >      241 </v>
   <v type="int" >      242 </v>
   <v type="int" >      243 </v>
   <v type="int" >      244 </v>
   <v type="int" >      245 </v>
   <v type="int" >      246 </v>
   <v type="int" >      247 </v>
   <v type="int" >      248 </v>
   <v type="int" >      249 </v>
   <v type="int" >      250 </v>
   <v type="int" >      251 </v>
   <v type="int" >      252 </v>
   <v type="int" >      253 </v>
   <v type="int" >      254 </v>
   <v type="int" >      255 </v>
   <v type="int" >      256 </v>
   <v type="int" >      257 </v>
   <v type="int" >      258 </v>
   <v type="int" >      259 </v>
   <v type="int" >      260 </v>
   <v type="int" >      261 </v>
   <v type="int" >      262 </v>
   <v type="int" >      263 </v>
   <v type="int" >      264 </v>
   <v type="int" >      265 </v>
   <v type="int" >      266 </v>
   <v type="int" >      267 </v>
   <v type="int" >      268 </v>
   <v type="int" >      269 </v>
   <v type="int" >      270 </v>
   <v type="int" >      271 </v>
   <v type="int" >      272 </v>
   <v type="int" >      273 </v>
   <v type="int" >      274 </v>
   <v type="int" >      275 </v>
   <v type="int" >      276 </v>
   <v type="int" >      277 </v>
   <v type="int" >      278 </v>
   <v type="int" >      279 </v>
   <v type="int" >      280 </v>
   <v type="int" >      281 </v>
   <v type="int" >      282 </v>
   <v type="int" >      283 </v>
   <v type="int" >      284 </v>
   <v type="int" >      285 </v>
   <v type="int" >      286 </v>
   <v type="int" >      287 </v>
   <v type="int" >      288 </v>
   <v type="int" >      289 </v>
   <v type="int" >      290 </v>
   <v type="int" >      291 </v>
   <v type="int" >      292 </v>
   <v type="int" >      293 </v>
   <v type="int" >      294 </v>
   <v type="int" >      295 </v>
   <v type="int" >      296 </v>
   <v type="int" >      297 </v>
   <v type="int" >      298 </v>
   <v type="int" >      299 </v>
   <v type="int" >      300 </v>
   <v type="int" >      301 </v>
   <v type="int" >      302 </v>
   <v type="int" >      303 </v>
   <v type="int" >      304 </v>
   <v type="int" >      305 </v>
   <v type="int" >      306 </v>
   <v type="int" >      307 </v>
   <v type="int" >      308 </v>
   <v type="int" >      309 </v>
   <v type="int" >      310 </v>
   <v type="int" >      311 </v>
   <v type="int" >      312 </v>
   <v type="int" >      313 </v>
   <v type="int" >      314 </v>
   <v type="int" >      315 </v>
   <v type="int" >      316 </v>
   <v type="int" >      317 </v>
   <v type="int" >      318 </v>
   <v type="int" >      319 </v>
   <v type="int" >      320 </v>
   <v type="int" >      321 </v>
   <v type="int" >      322 </v>
   <v type="int" >      323 </v>
   <v type="int" >      324 </v>
   <v type="int" >      325 </v>
  </varray>
 </primitive_cell>
 <kpoints>
  <generation param="Gamma">
   <v type="int" name="divisions">       3        3        1 </v>
   <v name="usershift">      0.00000000       0.00000000       0.00000000 </v>
   <v name="genvec1">      0.33333333       0.00000000       0.00000000 </v>
   <v name="genvec2">      0.00000000       0.33333333       0.00000000 </v>
   <v name="genvec3">      0.00000000       0.00000000       1.00000000 </v>
   <v name="shift">      0.00000000       0.00000000       0.00000000 </v>
  </generation>
  <varray name="kpointlist" >
   <v>       0.00000000       0.00000000       0.00000000 </v>
   <v>       0.33333333       0.00000000       0.00000000 </v>
   <v>       0.00000000       0.33333333       0.00000000 </v>
   <v>       0.33333333       0.33333333       0.00000000 </v>
   <v>      -0.33333333       0.33333333       0.00000000 </v>
  </varray>
  <varray name="weights" >
   <v>       0.11111111 </v>
   <v>       0.22222222 </v>
   <v>       0.22222222 </v>
   <v>       0.22222222 </v>
   <v>       0.22222222 </v>
  </varray>
 </kpoints>
 <parameters>
  <separator name="general" >
   <i type="string" name="SYSTEM">PSC</i>
   <i type="logical" name="LCOMPAT"> F  </i>
  </separator>
  <separator name="electronic" >
   <i type="string" name="PREC">normal</i>
   <i name="ENMAX">    500.00000000</i>
   <i name="ENAUG">    644.87300000</i>
   <i name="EDIFF">      0.00010000</i>
   <i type="int" name="IALGO">    38</i>
   <i type="int" name="IWAVPR">    10</i>
   <i type="int" name="NBANDS">   732</i>
   <i type="int" name="NBANDSLOW">    -1</i>
   <i type="int" name="NBANDSHIGH">    -1</i>
   <i name="NELECT">   1134.00000000</i>
   <i type="int" name="TURBO">     0</i>
   <i type="int" name="IRESTART">     0</i>
   <i type="int" name="NREBOOT">     0</i>
   <i type="int" name="NMIN">     0</i>
   <i name="EREF">      0.00000000</i>
   <separator name="electronic smearing" >
    <i type="int" name="ISMEAR">     0</i>
    <i name="SIGMA">      0.05000000</i>
    <i name="KSPACING">      0.50000000</i>
    <i type="logical" name="KGAMMA"> T  </i>
    <i type="logical" name="KBLOWUP"> T  </i>
   </separator>
   <separator name="electronic projectors" >
    <i type="logical" name="LREAL"> T  </i>
    <v name="ROPT">     -0.00050000     -0.00050000     -0.00050000     -0.00050000     -0.00050000</v>
    <i type="int" name="LMAXPAW">  -100</i>
    <i type="int" name="LMAXMIX">     2</i>
    <i type="logical" name="NLSPLINE"> F  </i>
   </separator>
   <separator name="electronic startup" >
    <i type="int" name="ISTART">     0</i>
    <i type="int" name="ICHARG">     1</i>
    <i type="int" name="INIWAV">     1</i>
   </separator>
   <separator name="electronic spin" >
    <i type="int" name="ISPIN">     1</i>
    <i type="logical" name="LNONCOLLINEAR"> F  </i>
    <v name="MAGMOM">      1.00000000      1.00000000      1.00000000      1.00000000      1.00000000      1.00000000      1.00000000      1.00000000      1.00000000      1.00000000      1.00000000      1.00000000      1.00000000      1.00000000      1.00000000      1.00000000      1.00000000      1.00000000      1.00000000      1.00000000
      1.00000000      1.00000000      1.00000000      1.00000000      1.00000000      1.00000000      1.00000000      1.00000000      1.00000000      1.00000000      1.00000000      1.00000000      1.00000000      1.00000000      1.00000000      1.00000000      1.00000000      1.00000000      1.00000000      1.00000000
      1.00000000      1.00000000      1.00000000      1.00000000      1.00000000      1.00000000      1.00000000      1.00000000      1.00000000      1.00000000      1.00000000      1.00000000      1.00000000      1.00000000      1.00000000      1.00000000      1.00000000      1.00000000      1.00000000      1.00000000
      1.00000000      1.00000000      1.00000000      1.00000000      1.00000000      1.00000000      1.00000000      1.00000000      1.00000000      1.00000000      1.00000000      1.00000000      1.00000000      1.00000000      1.00000000      1.00000000      1.00000000      1.00000000      1.00000000      1.00000000
      1.00000000      1.00000000      1.00000000      1.00000000      1.00000000      1.00000000      1.00000000      1.00000000      1.00000000      1.00000000      1.00000000      1.00000000      1.00000000      1.00000000      1.00000000      1.00000000      1.00000000      1.00000000      1.00000000      1.00000000
      1.00000000      1.00000000      1.00000000      1.00000000      1.00000000      1.00000000      1.00000000      1.00000000      1.00000000      1.00000000      1.00000000      1.00000000      1.00000000      1.00000000      1.00000000      1.00000000      1.00000000      1.00000000      1.00000000      1.00000000
      1.00000000      1.00000000      1.00000000      1.00000000      1.00000000      1.00000000      1.00000000      1.00000000      1.00000000      1.00000000      1.00000000      1.00000000      1.00000000      1.00000000      1.00000000      1.00000000      1.00000000      1.00000000      1.00000000      1.00000000
      1.00000000      1.00000000      1.00000000      1.00000000      1.00000000      1.00000000      1.00000000      1.00000000      1.00000000      1.00000000      1.00000000      1.00000000      1.00000000      1.00000000      1.00000000      1.00000000      1.00000000      1.00000000      1.00000000      1.00000000
      1.00000000      1.00000000      1.00000000      1.00000000      1.00000000      1.00000000      1.00000000      1.00000000      1.00000000      1.00000000      1.00000000      1.00000000      1.00000000      1.00000000      1.00000000      1.00000000      1.00000000      1.00000000      1.00000000      1.00000000
      1.00000000      1.00000000      1.00000000      1.00000000      1.00000000      1.00000000      1.00000000      1.00000000      1.00000000      1.00000000      1.00000000      1.00000000      1.00000000      1.00000000      1.00000000      1.00000000      1.00000000      1.00000000      1.00000000      1.00000000
      1.00000000      1.00000000      1.00000000      1.00000000      1.00000000      1.00000000      1.00000000      1.00000000      1.00000000      1.00000000      1.00000000      1.00000000      1.00000000      1.00000000      1.00000000      1.00000000      1.00000000      1.00000000      1.00000000      1.00000000
      1.00000000      1.00000000      1.00000000      1.00000000      1.00000000      1.00000000      1.00000000      1.00000000      1.00000000      1.00000000      1.00000000      1.00000000      1.00000000      1.00000000      1.00000000      1.00000000      1.00000000      1.00000000      1.00000000      1.00000000
      1.00000000      1.00000000      1.00000000      1.00000000      1.00000000      1.00000000      1.00000000      1.00000000      1.00000000      1.00000000      1.00000000      1.00000000      1.00000000      1.00000000      1.00000000      1.00000000      1.00000000      1.00000000      1.00000000      1.00000000
      1.00000000      1.00000000      1.00000000      1.00000000      1.00000000      1.00000000      1.00000000      1.00000000      1.00000000      1.00000000      1.00000000      1.00000000      1.00000000      1.00000000      1.00000000      1.00000000      1.00000000      1.00000000      1.00000000      1.00000000
      1.00000000      1.00000000      1.00000000      1.00000000      1.00000000      1.00000000      1.00000000      1.00000000      1.00000000      1.00000000      1.00000000      1.00000000      1.00000000      1.00000000      1.00000000      1.00000000      1.00000000      1.00000000      1.00000000      1.00000000
      1.00000000      1.00000000      1.00000000      1.00000000      1.00000000      1.00000000      1.00000000      1.00000000      1.00000000      1.00000000      1.00000000      1.00000000      1.00000000      1.00000000      1.00000000      1.00000000      1.00000000      1.00000000      1.00000000      1.00000000
      1.00000000      1.00000000      1.00000000      1.00000000      1.00000000</v>
    <i name="NUPDOWN">     -1.00000000</i>
    <i type="logical" name="LSORBIT"> F  </i>
    <v name="SAXIS">      0.00000000      0.00000000      1.00000000</v>
    <i type="logical" name="LSPIRAL"> F  </i>
    <v name="QSPIRAL">      0.00000000      0.00000000      0.00000000</v>
    <i type="logical" name="LZEROZ"> F  </i>
   </separator>
   <separator name="electronic exchange-correlation" >
    <i type="logical" name="LASPH"> F  </i>
    <i type="logical" name="LMETAGGA"> F  </i>
   </separator>
   <separator name="electronic convergence" >
    <i type="int" name="NELM">   600</i>
    <i type="int" name="NELMDL">     0</i>
    <i type="int" name="NELMIN">     2</i>
    <i name="ENINI">    500.00000000</i>
    <separator name="electronic convergence detail" >
     <i type="logical" name="LDIAG"> T  </i>
     <i type="logical" name="LSUBROT"> F  </i>
     <i name="WEIMIN">      0.00000000</i>
     <i name="EBREAK">      0.00000003</i>
     <i name="DEPER">      0.30000000</i>
     <i type="int" name="NRMM">     4</i>
     <i name="TIME">      0.40000000</i>
    </separator>
   </separator>
   <separator name="electronic mixer" >
    <i name="AMIX">      0.40000000</i>
    <i name="BMIX">      0.01000000</i>
    <i name="AMIN">      0.01000000</i>
    <i name="AMIX_MAG">      1.60000000</i>
    <i name="BMIX_MAG">      0.01000000</i>
    <separator name="electronic mixer details" >
     <i type="int" name="IMIX">     4</i>
     <i type="logical" name="MIXFIRST"> F  </i>
     <i type="int" name="MAXMIX">   -45</i>
     <i name="WC">    100.00000000</i>
     <i type="int" name="INIMIX">     1</i>
     <i type="int" name="MIXPRE">     1</i>
     <i type="int" name="MREMOVE">     5</i>
    </separator>
   </separator>
   <separator name="electronic dipolcorrection" >
    <i type="logical" name="LDIPOL"> T  </i>
    <i type="logical" name="LMONO"> F  </i>
    <i type="int" name="IDIPOL">     3</i>
    <i name="EPSILON">      1.00000000</i>
    <v name="DIPOL">   -100.00000000   -100.00000000   -100.00000000</v>
    <i name="EFIELD">      0.00000000</i>
   </separator>
  </separator>
  <separator name="grids" >
   <i type="int" name="NGX">   100</i>
   <i type="int" name="NGY">   100</i>
   <i type="int" name="NGZ">   350</i>
   <i type="int" name="NGXF">   200</i>
   <i type="int" name="NGYF">   200</i>
   <i type="int" name="NGZF">   700</i>
   <i type="logical" name="ADDGRID"> F  </i>
  </separator>
  <separator name="ionic" >
   <i type="int" name="NSW">     0</i>
   <i type="int" name="IBRION">    -1</i>
   <i type="int" name="MDALGO">     0</i>
   <i type="int" name="ISIF">     2</i>
   <i name="PSTRESS">      0.00000000</i>
   <i name="EDIFFG">      0.00100000</i>
   <i type="int" name="NFREE">     0</i>
   <i name="POTIM">      0.50000000</i>
   <i name="SMASS">     -3.00000000</i>
   <i name="SCALEE">      1.00000000</i>
  </separator>
  <separator name="ionic md" >
   <i name="TEBEG">      0.00010000</i>
   <i name="TEEND">      0.00010000</i>
   <i type="int" name="NBLOCK">     1</i>
   <i type="int" name="KBLOCK">     1</i>
   <i type="int" name="NPACO">   256</i>
   <i name="APACO">     16.00000000</i>
  </separator>
  <separator name="symmetry" >
   <i type="int" name="ISYM">     0</i>
   <i name="SYMPREC">      0.00001000</i>
  </separator>
  <separator name="dos" >
   <i type="int" name="LORBIT">     0</i>
   <v name="RWIGS">     -1.00000000     -1.00000000     -1.00000000     -1.00000000     -1.00000000</v>
   <i type="int" name="NEDOS">   301</i>
   <i name="EMIN">     10.00000000</i>
   <i name="EMAX">    -10.00000000</i>
   <i name="EFERMI">      0.00000000</i>
  </separator>
  <separator name="writing" >
   <i type="int" name="NWRITE">     2</i>
   <i type="logical" name="LWAVE"> F  </i>
   <i type="logical" name="LDOWNSAMPLE"> F  </i>
   <i type="logical" name="LCHARG"> T  </i>
   <i type="logical" name="LPARD"> F  </i>
   <i type="logical" name="LVTOT"> T  </i>
   <i type="logical" name="LVHAR"> F  </i>
   <i type="logical" name="LELF"> F  </i>
   <i type="logical" name="LOPTICS"> F  </i>
   <v name="STM">      0.00000000      0.00000000      0.00000000      0.00000000      0.00000000      0.00000000      0.00000000</v>
  </separator>
  <separator name="performance" >
   <i type="int" name="NPAR">     4</i>
   <i type="int" name="NSIM">     4</i>
   <i type="int" name="NBLK">    -1</i>
   <i type="logical" name="LPLANE"> T  </i>
   <i type="logical" name="LSCALAPACK"> T  </i>
   <i type="logical" name="LSCAAWARE"> F  </i>
   <i type="logical" name="LSCALU"> F  </i>
   <i type="logical" name="LASYNC"> F  </i>
   <i type="logical" name="LORBITALREAL"> F  </i>
  </separator>
  <separator name="miscellaneous" >
   <i type="int" name="IDIOT">     3</i>
   <i type="int" name="PHON_NSTRUCT">    -1</i>
   <i type="logical" name="LMUSIC"> F  </i>
   <v name="POMASS">      1.00000000     12.01100000     14.00100000    126.90400000    207.20000000</v>
   <v name="DARWINR">      0.00000000      0.00000000      0.00000000      0.00000000      0.00000000</v>
   <v name="DARWINV">      1.00000000      1.00000000      1.00000000      1.00000000      1.00000000</v>
   <i type="logical" name="LCORR"> T  </i>
  </separator>
  <i type="logical" name="GGA_COMPAT"> F  </i>
  <i type="logical" name="LBERRY"> F  </i>
  <i type="int" name="ICORELEVEL">     0</i>
  <i type="logical" name="LDAU"> F  </i>
  <i type="int" name="I_CONSTRAINED_M">     0</i>
  <separator name="electronic exchange-correlation" >
   <i type="string" name="GGA">--</i>
   <i type="int" name="VOSKOWN">     0</i>
   <i type="logical" name="LHFCALC"> F  </i>
   <i type="string" name="PRECFOCK"></i>
   <i type="logical" name="LSYMGRAD"> F  </i>
   <i type="logical" name="LHFONE"> F  </i>
   <i type="logical" name="LRHFCALC"> F  </i>
   <i type="logical" name="LTHOMAS"> F  </i>
   <i type="logical" name="LMODELHF"> F  </i>
   <i type="logical" name="LFOCKACE"> F  </i>
   <i name="ENCUT4O">     -1.00000000</i>
   <i type="int" name="EXXOEP">     0</i>
   <i type="int" name="FOURORBIT">     0</i>
   <i name="AEXX">      0.00000000</i>
   <i name="HFALPHA">      0.00000000</i>
   <i name="MCALPHA">      0.00000000</i>
   <i name="ALDAX">      1.00000000</i>
   <i name="AGGAX">      1.00000000</i>
   <i name="ALDAC">      1.00000000</i>
   <i name="AGGAC">      1.00000000</i>
   <i type="int" name="NKREDX">     1</i>
   <i type="int" name="NKREDY">     1</i>
   <i type="int" name="NKREDZ">     1</i>
   <i type="logical" name="SHIFTRED"> F  </i>
   <i type="logical" name="ODDONLY"> F  </i>
   <i type="logical" name="EVENONLY"> F  </i>
   <i type="int" name="LMAXFOCK">     0</i>
   <i type="int" name="NMAXFOCKAE">     0</i>
   <i type="logical" name="LFOCKAEDFT"> F  </i>
   <i name="HFSCREEN">      0.00000000</i>
   <i name="HFSCREENC">      0.00000000</i>
   <i type="int" name="NBANDSGWLOW">     0</i>
  </separator>
  <separator name="vdW DFT" >
   <i type="logical" name="LUSE_VDW"> F  </i>
   <i name="Zab_VDW">     -0.84910000</i>
   <i name="PARAM1">      0.12340000</i>
   <i name="PARAM2">      1.00000000</i>
   <i name="PARAM3">      0.00000000</i>
  </separator>
  <separator name="model GW" >
   <i type="int" name="MODEL_GW">     0</i>
   <i name="MODEL_EPS0">     37.63423484</i>
   <i name="MODEL_ALPHA">      1.00000000</i>
  </separator>
  <separator name="linear response parameters" >
   <i type="logical" name="LEPSILON"> F  </i>
   <i type="logical" name="LRPA"> F  </i>
   <i type="logical" name="LNABLA"> F  </i>
   <i type="logical" name="LVEL"> F  </i>
   <i type="int" name="KINTER">     0</i>
   <i name="CSHIFT">      0.10000000</i>
   <i name="OMEGAMAX">     -1.00000000</i>
   <i name="DEG_THRESHOLD">      0.00200000</i>
   <i name="RTIME">     -0.10000000</i>
   <i name="WPLASMAI">      0.00000000</i>
   <v name="DFIELD">      0.00000000      0.00000000      0.00000000</v>
   <v name="WPLASMA">      0.00000000      0.00000000      0.00000000      0.00000000      0.00000000      0.00000000      0.00000000      0.00000000      0.00000000</v>
  </separator>
  <separator name="orbital magnetization" >
   <i type="logical" name="NUCIND"> F  </i>
   <v name="MAGPOS">      0.00000000      0.00000000      0.00000000</v>
   <i type="logical" name="LNICSALL"> T  </i>
   <i type="logical" name="ORBITALMAG"> F  </i>
   <i type="logical" name="LMAGBLOCH"> F  </i>
   <i type="logical" name="LCHIMAG"> F  </i>
   <i type="logical" name="LGAUGE"> T  </i>
   <i type="int" name="MAGATOM">     0</i>
   <v name="MAGDIPOL">      0.00000000      0.00000000      0.00000000</v>
   <v name="AVECCONST">      0.00000000      0.00000000      0.00000000</v>
  </separator>
  <separator name="response functions" >
   <i type="logical" name="LFINITE_TEMPERATURE"> F  </i>
   <i type="logical" name="LADDER"> F  </i>
   <i type="logical" name="LRPAFORCE"> F  </i>
   <i type="logical" name="LFXC"> F  </i>
   <i type="logical" name="LHARTREE"> T  </i>
   <i type="int" name="IBSE">     0</i>
   <v type="int" name="KPOINT">    -1     0     0     0</v>
   <i type="logical" name="LTCTC"> F  </i>
   <i type="logical" name="LTCTE"> F  </i>
   <i type="logical" name="LTETE"> F  </i>
   <i type="logical" name="LTRIPLET"> F  </i>
   <i type="logical" name="LFXCEPS"> F  </i>
   <i type="logical" name="LFXHEG"> F  </i>
   <i type="int" name="NATURALO">     2</i>
   <i type="logical" name="LHOLEGF"> F  </i>
   <i type="logical" name="L2ORDER"> F  </i>
   <i type="logical" name="LDMP1"> F  </i>
   <i type="logical" name="LMP2LT"> F  </i>
   <i type="logical" name="LSMP2LT"> F  </i>
   <i type="logical" name="LGWLF"> F  </i>
   <i name="ENCUTGW">     -2.00000000</i>
   <i name="ENCUTGWSOFT">     -2.00000000</i>
   <i name="ENCUTLF">     -1.00000000</i>
   <i type="logical" name="LESF_SPLINES"> F  </i>
   <i type="int" name="LMAXMP2">    -1</i>
   <i name="SCISSOR">      0.00000000</i>
   <i type="int" name="NOMEGA">     0</i>
   <i type="int" name="NOMEGAR">     0</i>
   <i type="int" name="NBANDSGW">    -1</i>
   <i type="int" name="NBANDSO">    -1</i>
   <i type="int" name="NBANDSV">    -1</i>
   <i type="int" name="NELM">   600</i>
   <i type="int" name="NELMHF">     1</i>
   <i type="int" name="DIM">     3</i>
   <i type="int" name="IESPILON">     4</i>
   <i type="int" name="ANTIRES">     0</i>
   <i name="OMEGAMAX">    -30.00000000</i>
   <i name="OMEGAMIN">    -30.00000000</i>
   <i name="OMEGATL">   -200.00000000</i>
   <i type="int" name="OMEGAGRID">     0</i>
   <i name="CSHIFT">     -0.10000000</i>
   <i type="logical" name="LSELFENERGY"> F  </i>
   <i type="logical" name="LSPECTRAL"> F  </i>
   <i type="logical" name="LSPECTRALGW"> F  </i>
   <i type="logical" name="LSINGLES"> F  </i>
   <i type="logical" name="LFERMIGW"> F  </i>
   <i type="logical" name="ODDONLYGW"> F  </i>
   <i type="logical" name="EVENONLYGW"> F  </i>
   <i type="int" name="NKREDLFX">     1</i>
   <i type="int" name="NKREDLFY">     1</i>
   <i type="int" name="NKREDLFZ">     1</i>
   <i type="int" name="MAXMEM">  2800</i>
   <i type="int" name="TELESCOPE">     0</i>
   <i type="int" name="NTAUPAR">    -1</i>
   <i type="int" name="NOMEGAPAR">    -1</i>
   <i name="DAMP_NEWTON">      0.80000001</i>
   <i name="LAMBDA">      1.00000000</i>
  </separator>
  <separator name="External order field" >
   <i name="OFIELD_KAPPA">      0.00000000</i>
   <v name="OFIELD_K">      0.00000000      0.00000000      0.00000000</v>
   <i name="OFIELD_Q6_NEAR">      0.00000000</i>
   <i name="OFIELD_Q6_FAR">      0.00000000</i>
   <i name="OFIELD_A">      0.00000000</i>
  </separator>
 </parameters>
 <atominfo>
  <atoms>     325 </atoms>
  <types>       5 </types>
  <array name="atoms" >
   <dimension dim="1">ion</dimension>
   <field type="string">element</field>
   <field type="int">atomtype</field>
   <set>
    <rc><c>H </c><c>   1</c></rc>
    <rc><c>H </c><c>   1</c></rc>
    <rc><c>H </c><c>   1</c></rc>
    <rc><c>H </c><c>   1</c></rc>
    <rc><c>H </c><c>   1</c></rc>
    <rc><c>H </c><c>   1</c></rc>
    <rc><c>H </c><c>   1</c></rc>
    <rc><c>H </c><c>   1</c></rc>
    <rc><c>H </c><c>   1</c></rc>
    <rc><c>H </c><c>   1</c></rc>
    <rc><c>H </c><c>   1</c></rc>
    <rc><c>H </c><c>   1</c></rc>
    <rc><c>H </c><c>   1</c></rc>
    <rc><c>H </c><c>   1</c></rc>
    <rc><c>H </c><c>   1</c></rc>
    <rc><c>H </c><c>   1</c></rc>
    <rc><c>H </c><c>   1</c></rc>
    <rc><c>H </c><c>   1</c></rc>
    <rc><c>H </c><c>   1</c></rc>
    <rc><c>H </c><c>   1</c></rc>
    <rc><c>H </c><c>   1</c></rc>
    <rc><c>H </c><c>   1</c></rc>
    <rc><c>H </c><c>   1</c></rc>
    <rc><c>H </c><c>   1</c></rc>
    <rc><c>H </c><c>   1</c></rc>
    <rc><c>H </c><c>   1</c></rc>
    <rc><c>H </c><c>   1</c></rc>
    <rc><c>H </c><c>   1</c></rc>
    <rc><c>H </c><c>   1</c></rc>
    <rc><c>H </c><c>   1</c></rc>
    <rc><c>H </c><c>   1</c></rc>
    <rc><c>H </c><c>   1</c></rc>
    <rc><c>H </c><c>   1</c></rc>
    <rc><c>H </c><c>   1</c></rc>
    <rc><c>H </c><c>   1</c></rc>
    <rc><c>H </c><c>   1</c></rc>
    <rc><c>H </c><c>   1</c></rc>
    <rc><c>H </c><c>   1</c></rc>
    <rc><c>H </c><c>   1</c></rc>
    <rc><c>H </c><c>   1</c></rc>
    <rc><c>H </c><c>   1</c></rc>
    <rc><c>H </c><c>   1</c></rc>
    <rc><c>H </c><c>   1</c></rc>
    <rc><c>H </c><c>   1</c></rc>
    <rc><c>H </c><c>   1</c></rc>
    <rc><c>H </c><c>   1</c></rc>
    <rc><c>H </c><c>   1</c></rc>
    <rc><c>H </c><c>   1</c></rc>
    <rc><c>H </c><c>   1</c></rc>
    <rc><c>H </c><c>   1</c></rc>
    <rc><c>H </c><c>   1</c></rc>
    <rc><c>H </c><c>   1</c></rc>
    <rc><c>H </c><c>   1</c></rc>
    <rc><c>H </c><c>   1</c></rc>
    <rc><c>H </c><c>   1</c></rc>
    <rc><c>H </c><c>   1</c></rc>
    <rc><c>H </c><c>   1</c></rc>
    <rc><c>H </c><c>   1</c></rc>
    <rc><c>H </c><c>   1</c></rc>
    <rc><c>H </c><c>   1</c></rc>
    <rc><c>H </c><c>   1</c></rc>
    <rc><c>H </c><c>   1</c></rc>
    <rc><c>H </c><c>   1</c></rc>
    <rc><c>H </c><c>   1</c></rc>
    <rc><c>H </c><c>   1</c></rc>
    <rc><c>H </c><c>   1</c></rc>
    <rc><c>H </c><c>   1</c></rc>
    <rc><c>H </c><c>   1</c></rc>
    <rc><c>H </c><c>   1</c></rc>
    <rc><c>H </c><c>   1</c></rc>
    <rc><c>H </c><c>   1</c></rc>
    <rc><c>H </c><c>   1</c></rc>
    <rc><c>H </c><c>   1</c></rc>
    <rc><c>H </c><c>   1</c></rc>
    <rc><c>H </c><c>   1</c></rc>
    <rc><c>H </c><c>   1</c></rc>
    <rc><c>H </c><c>   1</c></rc>
    <rc><c>H </c><c>   1</c></rc>
    <rc><c>H </c><c>   1</c></rc>
    <rc><c>H </c><c>   1</c></rc>
    <rc><c>H </c><c>   1</c></rc>
    <rc><c>H </c><c>   1</c></rc>
    <rc><c>H </c><c>   1</c></rc>
    <rc><c>H </c><c>   1</c></rc>
    <rc><c>H </c><c>   1</c></rc>
    <rc><c>H </c><c>   1</c></rc>
    <rc><c>H </c><c>   1</c></rc>
    <rc><c>H </c><c>   1</c></rc>
    <rc><c>H </c><c>   1</c></rc>
    <rc><c>H </c><c>   1</c></rc>
    <rc><c>H </c><c>   1</c></rc>
    <rc><c>H </c><c>   1</c></rc>
    <rc><c>H </c><c>   1</c></rc>
    <rc><c>H </c><c>   1</c></rc>
    <rc><c>H </c><c>   1</c></rc>
    <rc><c>H </c><c>   1</c></rc>
    <rc><c>H </c><c>   1</c></rc>
    <rc><c>H </c><c>   1</c></rc>
    <rc><c>H </c><c>   1</c></rc>
    <rc><c>H </c><c>   1</c></rc>
    <rc><c>H </c><c>   1</c></rc>
    <rc><c>H </c><c>   1</c></rc>
    <rc><c>H </c><c>   1</c></rc>
    <rc><c>H </c><c>   1</c></rc>
    <rc><c>H </c><c>   1</c></rc>
    <rc><c>H </c><c>   1</c></rc>
    <rc><c>H </c><c>   1</c></rc>
    <rc><c>H </c><c>   1</c></rc>
    <rc><c>H </c><c>   1</c></rc>
    <rc><c>H </c><c>   1</c></rc>
    <rc><c>H </c><c>   1</c></rc>
    <rc><c>H </c><c>   1</c></rc>
    <rc><c>H </c><c>   1</c></rc>
    <rc><c>H </c><c>   1</c></rc>
    <rc><c>H </c><c>   1</c></rc>
    <rc><c>H </c><c>   1</c></rc>
    <rc><c>H </c><c>   1</c></rc>
    <rc><c>H </c><c>   1</c></rc>
    <rc><c>H </c><c>   1</c></rc>
    <rc><c>H </c><c>   1</c></rc>
    <rc><c>H </c><c>   1</c></rc>
    <rc><c>H </c><c>   1</c></rc>
    <rc><c>H </c><c>   1</c></rc>
    <rc><c>H </c><c>   1</c></rc>
    <rc><c>H </c><c>   1</c></rc>
    <rc><c>H </c><c>   1</c></rc>
    <rc><c>H </c><c>   1</c></rc>
    <rc><c>H </c><c>   1</c></rc>
    <rc><c>H </c><c>   1</c></rc>
    <rc><c>H </c><c>   1</c></rc>
    <rc><c>H </c><c>   1</c></rc>
    <rc><c>H </c><c>   1</c></rc>
    <rc><c>H </c><c>   1</c></rc>
    <rc><c>H </c><c>   1</c></rc>
    <rc><c>H </c><c>   1</c></rc>
    <rc><c>H </c><c>   1</c></rc>
    <rc><c>H </c><c>   1</c></rc>
    <rc><c>H </c><c>   1</c></rc>
    <rc><c>H </c><c>   1</c></rc>
    <rc><c>H </c><c>   1</c></rc>
    <rc><c>H </c><c>   1</c></rc>
    <rc><c>H </c><c>   1</c></rc>
    <rc><c>H </c><c>   1</c></rc>
    <rc><c>C </c><c>   2</c></rc>
    <rc><c>C </c><c>   2</c></rc>
    <rc><c>C </c><c>   2</c></rc>
    <rc><c>C </c><c>   2</c></rc>
    <rc><c>C </c><c>   2</c></rc>
    <rc><c>C </c><c>   2</c></rc>
    <rc><c>C </c><c>   2</c></rc>
    <rc><c>C </c><c>   2</c></rc>
    <rc><c>C </c><c>   2</c></rc>
    <rc><c>C </c><c>   2</c></rc>
    <rc><c>C </c><c>   2</c></rc>
    <rc><c>C </c><c>   2</c></rc>
    <rc><c>C </c><c>   2</c></rc>
    <rc><c>C </c><c>   2</c></rc>
    <rc><c>C </c><c>   2</c></rc>
    <rc><c>C </c><c>   2</c></rc>
    <rc><c>C </c><c>   2</c></rc>
    <rc><c>C </c><c>   2</c></rc>
    <rc><c>C </c><c>   2</c></rc>
    <rc><c>C </c><c>   2</c></rc>
    <rc><c>C </c><c>   2</c></rc>
    <rc><c>C </c><c>   2</c></rc>
    <rc><c>C </c><c>   2</c></rc>
    <rc><c>C </c><c>   2</c></rc>
    <rc><c>C </c><c>   2</c></rc>
    <rc><c>C </c><c>   2</c></rc>
    <rc><c>C </c><c>   2</c></rc>
    <rc><c>C </c><c>   2</c></rc>
    <rc><c>C </c><c>   2</c></rc>
    <rc><c>C </c><c>   2</c></rc>
    <rc><c>C </c><c>   2</c></rc>
    <rc><c>C </c><c>   2</c></rc>
    <rc><c>C </c><c>   2</c></rc>
    <rc><c>C </c><c>   2</c></rc>
    <rc><c>C </c><c>   2</c></rc>
    <rc><c>C </c><c>   2</c></rc>
    <rc><c>C </c><c>   2</c></rc>
    <rc><c>C </c><c>   2</c></rc>
    <rc><c>C </c><c>   2</c></rc>
    <rc><c>N </c><c>   3</c></rc>
    <rc><c>N </c><c>   3</c></rc>
    <rc><c>N </c><c>   3</c></rc>
    <rc><c>N </c><c>   3</c></rc>
    <rc><c>N </c><c>   3</c></rc>
    <rc><c>N </c><c>   3</c></rc>
    <rc><c>N </c><c>   3</c></rc>
    <rc><c>N </c><c>   3</c></rc>
    <rc><c>N </c><c>   3</c></rc>
    <rc><c>N </c><c>   3</c></rc>
    <rc><c>N </c><c>   3</c></rc>
    <rc><c>N </c><c>   3</c></rc>
    <rc><c>N </c><c>   3</c></rc>
    <rc><c>N </c><c>   3</c></rc>
    <rc><c>N </c><c>   3</c></rc>
    <rc><c>N </c><c>   3</c></rc>
    <rc><c>N </c><c>   3</c></rc>
    <rc><c>N </c><c>   3</c></rc>
    <rc><c>N </c><c>   3</c></rc>
    <rc><c>N </c><c>   3</c></rc>
    <rc><c>N </c><c>   3</c></rc>
    <rc><c>N </c><c>   3</c></rc>
    <rc><c>N </c><c>   3</c></rc>
    <rc><c>N </c><c>   3</c></rc>
    <rc><c>N </c><c>   3</c></rc>
    <rc><c>N </c><c>   3</c></rc>
    <rc><c>N </c><c>   3</c></rc>
    <rc><c>N </c><c>   3</c></rc>
    <rc><c>N </c><c>   3</c></rc>
    <rc><c>N </c><c>   3</c></rc>
    <rc><c>N </c><c>   3</c></rc>
    <rc><c>N </c><c>   3</c></rc>
    <rc><c>N </c><c>   3</c></rc>
    <rc><c>N </c><c>   3</c></rc>
    <rc><c>N </c><c>   3</c></rc>
    <rc><c>N </c><c>   3</c></rc>
    <rc><c>N </c><c>   3</c></rc>
    <rc><c>N </c><c>   3</c></rc>
    <rc><c>N </c><c>   3</c></rc>
    <rc><c>N </c><c>   3</c></rc>
    <rc><c>N </c><c>   3</c></rc>
    <rc><c>N </c><c>   3</c></rc>
    <rc><c>N </c><c>   3</c></rc>
    <rc><c>N </c><c>   3</c></rc>
    <rc><c>N </c><c>   3</c></rc>
    <rc><c>N </c><c>   3</c></rc>
    <rc><c>N </c><c>   3</c></rc>
    <rc><c>I </c><c>   4</c></rc>
    <rc><c>I </c><c>   4</c></rc>
    <rc><c>I </c><c>   4</c></rc>
    <rc><c>I </c><c>   4</c></rc>
    <rc><c>I </c><c>   4</c></rc>
    <rc><c>I </c><c>   4</c></rc>
    <rc><c>I </c><c>   4</c></rc>
    <rc><c>I </c><c>   4</c></rc>
    <rc><c>I </c><c>   4</c></rc>
    <rc><c>I </c><c>   4</c></rc>
    <rc><c>I </c><c>   4</c></rc>
    <rc><c>I </c><c>   4</c></rc>
    <rc><c>I </c><c>   4</c></rc>
    <rc><c>I </c><c>   4</c></rc>
    <rc><c>I </c><c>   4</c></rc>
    <rc><c>I </c><c>   4</c></rc>
    <rc><c>I </c><c>   4</c></rc>
    <rc><c>I </c><c>   4</c></rc>
    <rc><c>I </c><c>   4</c></rc>
    <rc><c>I </c><c>   4</c></rc>
    <rc><c>I </c><c>   4</c></rc>
    <rc><c>I </c><c>   4</c></rc>
    <rc><c>I </c><c>   4</c></rc>
    <rc><c>I </c><c>   4</c></rc>
    <rc><c>I </c><c>   4</c></rc>
    <rc><c>I </c><c>   4</c></rc>
    <rc><c>I </c><c>   4</c></rc>
    <rc><c>I </c><c>   4</c></rc>
    <rc><c>I </c><c>   4</c></rc>
    <rc><c>I </c><c>   4</c></rc>
    <rc><c>I </c><c>   4</c></rc>
    <rc><c>I </c><c>   4</c></rc>
    <rc><c>I </c><c>   4</c></rc>
    <rc><c>I </c><c>   4</c></rc>
    <rc><c>I </c><c>   4</c></rc>
    <rc><c>I </c><c>   4</c></rc>
    <rc><c>I </c><c>   4</c></rc>
    <rc><c>I </c><c>   4</c></rc>
    <rc><c>I </c><c>   4</c></rc>
    <rc><c>I </c><c>   4</c></rc>
    <rc><c>I </c><c>   4</c></rc>
    <rc><c>I </c><c>   4</c></rc>
    <rc><c>I </c><c>   4</c></rc>
    <rc><c>I </c><c>   4</c></rc>
    <rc><c>I </c><c>   4</c></rc>
    <rc><c>I </c><c>   4</c></rc>
    <rc><c>I </c><c>   4</c></rc>
    <rc><c>I </c><c>   4</c></rc>
    <rc><c>I </c><c>   4</c></rc>
    <rc><c>I </c><c>   4</c></rc>
    <rc><c>I </c><c>   4</c></rc>
    <rc><c>I </c><c>   4</c></rc>
    <rc><c>I </c><c>   4</c></rc>
    <rc><c>I </c><c>   4</c></rc>
    <rc><c>I </c><c>   4</c></rc>
    <rc><c>I </c><c>   4</c></rc>
    <rc><c>I </c><c>   4</c></rc>
    <rc><c>I </c><c>   4</c></rc>
    <rc><c>I </c><c>   4</c></rc>
    <rc><c>I </c><c>   4</c></rc>
    <rc><c>I </c><c>   4</c></rc>
    <rc><c>I </c><c>   4</c></rc>
    <rc><c>I </c><c>   4</c></rc>
    <rc><c>I </c><c>   4</c></rc>
    <rc><c>I </c><c>   4</c></rc>
    <rc><c>I </c><c>   4</c></rc>
    <rc><c>I </c><c>   4</c></rc>
    <rc><c>I </c><c>   4</c></rc>
    <rc><c>I </c><c>   4</c></rc>
    <rc><c>I </c><c>   4</c></rc>
    <rc><c>I </c><c>   4</c></rc>
    <rc><c>I </c><c>   4</c></rc>
    <rc><c>Pb</c><c>   5</c></rc>
    <rc><c>Pb</c><c>   5</c></rc>
    <rc><c>Pb</c><c>   5</c></rc>
    <rc><c>Pb</c><c>   5</c></rc>
    <rc><c>Pb</c><c>   5</c></rc>
    <rc><c>Pb</c><c>   5</c></rc>
    <rc><c>Pb</c><c>   5</c></rc>
    <rc><c>Pb</c><c>   5</c></rc>
    <rc><c>Pb</c><c>   5</c></rc>
    <rc><c>Pb</c><c>   5</c></rc>
    <rc><c>Pb</c><c>   5</c></rc>
    <rc><c>Pb</c><c>   5</c></rc>
    <rc><c>Pb</c><c>   5</c></rc>
    <rc><c>Pb</c><c>   5</c></rc>
    <rc><c>Pb</c><c>   5</c></rc>
    <rc><c>Pb</c><c>   5</c></rc>
    <rc><c>Pb</c><c>   5</c></rc>
    <rc><c>Pb</c><c>   5</c></rc>
    <rc><c>Pb</c><c>   5</c></rc>
    <rc><c>Pb</c><c>   5</c></rc>
    <rc><c>Pb</c><c>   5</c></rc>
    <rc><c>Pb</c><c>   5</c></rc>
    <rc><c>Pb</c><c>   5</c></rc>
    <rc><c>Pb</c><c>   5</c></rc>
   </set>
  </array>
  <array name="atomtypes" >
   <dimension dim="1">type</dimension>
   <field type="int">atomspertype</field>
   <field type="string">element</field>
   <field>mass</field>
   <field>valence</field>
   <field type="string">pseudopotential</field>
   <set>
    <rc><c> 143</c><c>H </c><c>      1.00000000</c><c>      1.00000000</c><c>  PAW_PBE H 15Jun2001                   </c></rc>
    <rc><c>  39</c><c>C </c><c>     12.01100000</c><c>      4.00000000</c><c>  PAW_PBE C 08Apr2002                   </c></rc>
    <rc><c>  47</c><c>N </c><c>     14.00100000</c><c>      5.00000000</c><c>  PAW_PBE N 08Apr2002                   </c></rc>
    <rc><c>  72</c><c>I </c><c>    126.90400000</c><c>      7.00000000</c><c>  PAW_PBE I 08Apr2002                   </c></rc>
    <rc><c>  24</c><c>Pb</c><c>    207.20000000</c><c>      4.00000000</c><c>  PAW_PBE Pb 08Apr2002                  </c></rc>
   </set>
  </array>
 </atominfo>
 <structure name="initialpos" >
  <crystal>
   <varray name="basis" >
    <v>      18.06080055       0.00000000       0.00000000 </v>
    <v>      -0.00491865      18.06279945       0.00000000 </v>
    <v>       0.00000000       0.00000000      62.48749924 </v>
   </varray>
   <i name="volume">  20385.21054034 </i>
   <varray name="rec_basis" >
    <v>       0.05536853       0.00001508      -0.00000000 </v>
    <v>       0.00000000       0.05536240       0.00000000 </v>
    <v>       0.00000000      -0.00000000       0.01600320 </v>
   </varray>
  </crystal>
  <varray name="positions" >
   <v>       0.44086937       0.31893778       0.57162282 </v>
   <v>       0.42202574       0.83081282       0.57099787 </v>
   <v>       0.97335688       0.32095998       0.58055160 </v>
   <v>       0.95529899       0.81140434       0.57912358 </v>
   <v>       0.31793771       0.95281810       0.57365459 </v>
   <v>       0.33588669       0.56280308       0.57191310 </v>
   <v>       0.79582208       0.07613798       0.57817802 </v>
   <v>       0.02458386       0.13654314       0.56207086 </v>
   <v>       0.06212732       0.64694778       0.56542578 </v>
   <v>       0.56575098       0.17742613       0.55254325 </v>
   <v>       0.52112283       0.65743314       0.56359863 </v>
   <v>       0.35888380       0.01882632       0.55706088 </v>
   <v>       0.28274885       0.62658339       0.55712730 </v>
   <v>       0.86936298       0.02816313       0.56575177 </v>
   <v>       0.98692678       0.18649120       0.58399242 </v>
   <v>       0.00399557       0.68456240       0.58472083 </v>
   <v>       0.56040543       0.25505166       0.56913703 </v>
   <v>       0.44810713       0.69403219       0.57730376 </v>
   <v>       0.28533861       0.43418312       0.57504715 </v>
   <v>       0.18238787       0.93531765       0.57133058 </v>
   <v>       0.67246156       0.02308488       0.57430518 </v>
   <v>       0.36531206       0.27810047       0.55825747 </v>
   <v>       0.48538988       0.87906470       0.55503466 </v>
   <v>       0.02062059       0.36204269       0.55935773 </v>
   <v>       0.99229236       0.86045594       0.55759651 </v>
   <v>       0.19852429       0.42015916       0.56321006 </v>
   <v>       0.13433634       0.99587413       0.55442773 </v>
   <v>       0.66790601       0.93554112       0.56125740 </v>
   <v>       0.43894067       0.18322590       0.54380274 </v>
   <v>       0.55672642       0.77205400       0.54844783 </v>
   <v>       0.05026651       0.24805583       0.54348889 </v>
   <v>       0.06276368       0.75968978       0.54538789 </v>
   <v>       0.18994329       0.53891175       0.54957629 </v>
   <v>       0.24175779       0.05760361       0.54333108 </v>
   <v>       0.79270140       0.93171180       0.55396444 </v>
   <v>       0.47523143       0.32859683       0.67045423 </v>
   <v>       0.43563720       0.81489131       0.67275004 </v>
   <v>       0.96888214       0.27902907       0.68034769 </v>
   <v>       0.91775050       0.75461602       0.67250597 </v>
   <v>       0.30738300       0.05387159       0.67186729 </v>
   <v>       0.30149668       0.54791930       0.67565607 </v>
   <v>       0.79114848       0.06484671       0.67485086 </v>
   <v>       0.77735607       0.59390214       0.66637797 </v>
   <v>       0.08515562       0.16457796       0.64520681 </v>
   <v>       0.10270893       0.70236536       0.65358843 </v>
   <v>       0.58446575       0.17326132       0.65089911 </v>
   <v>       0.56871839       0.67712536       0.65440549 </v>
   <v>       0.18313020       0.41111090       0.64871605 </v>
   <v>       0.16935369       0.92304829       0.65111827 </v>
   <v>       0.70772976       0.40591822       0.66144883 </v>
   <v>       0.67641300       0.91681478       0.65235539 </v>
   <v>       0.06685095       0.17696479       0.67272843 </v>
   <v>       0.03823235       0.67878099       0.67361758 </v>
   <v>       0.59299317       0.25302724       0.66670781 </v>
   <v>       0.53048587       0.70927806       0.67783547 </v>
   <v>       0.20732461       0.44113439       0.67466009 </v>
   <v>       0.20239568       0.95804048       0.67548130 </v>
   <v>       0.68811467       0.48967198       0.67414729 </v>
   <v>       0.69327217       0.96216629       0.67666238 </v>
   <v>       0.39637852       0.29244838       0.65758349 </v>
   <v>       0.42122057       0.84092475       0.64604847 </v>
   <v>       0.93461804       0.32324660       0.65803994 </v>
   <v>       0.91127626       0.81961770       0.65199656 </v>
   <v>       0.33312850       0.07323859       0.64535833 </v>
   <v>       0.32811335       0.58092383       0.65052532 </v>
   <v>       0.83138067       0.07765375       0.64935699 </v>
   <v>       0.84185907       0.57717139       0.64612838 </v>
   <v>       0.00411616       0.25585249       0.63408569 </v>
   <v>       0.02701358       0.79107120       0.63807818 </v>
   <v>       0.46007564       0.19323278       0.64289330 </v>
   <v>       0.50397350       0.75668538       0.63240450 </v>
   <v>       0.24857506       0.99288576       0.63054909 </v>
   <v>       0.25668895       0.49782547       0.63185331 </v>
   <v>       0.76243699       0.98424848       0.63361037 </v>
   <v>       0.80519824       0.45456013       0.64164976 </v>
   <v>       0.44874502       0.30128397       0.76888902 </v>
   <v>       0.44874501       0.80128391       0.76888902 </v>
   <v>       0.94874497       0.30128397       0.76888902 </v>
   <v>       0.94874501       0.80128391       0.76888902 </v>
   <v>       0.30127600       0.05129450       0.76887296 </v>
   <v>       0.30127601       0.55129450       0.76887296 </v>
   <v>       0.80127594       0.05129450       0.76887296 </v>
   <v>       0.80127598       0.55129450       0.76887296 </v>
   <v>       0.07877100       0.17118050       0.74344197 </v>
   <v>       0.07877101       0.67118045       0.74344197 </v>
   <v>       0.57877100       0.17118050       0.74344197 </v>
   <v>       0.57877099       0.67118045       0.74344197 </v>
   <v>       0.17119950       0.42117448       0.74342103 </v>
   <v>       0.17119950       0.92117451       0.74342103 </v>
   <v>       0.67119951       0.42117448       0.74342103 </v>
   <v>       0.67119950       0.92117451       0.74342103 </v>
   <v>       0.05125600       0.19871499       0.76888902 </v>
   <v>       0.05125600       0.69871493       0.76888902 </v>
   <v>       0.55125603       0.19871499       0.76888902 </v>
   <v>       0.55125602       0.69871493       0.76888902 </v>
   <v>       0.19872349       0.44870397       0.76887205 </v>
   <v>       0.19872349       0.94870397       0.76887205 </v>
   <v>       0.69872352       0.44870397       0.76887205 </v>
   <v>       0.69872351       0.94870397       0.76887205 </v>
   <v>       0.42123152       0.32881747       0.74344197 </v>
   <v>       0.42123151       0.82881744       0.74344197 </v>
   <v>       0.92123147       0.32881747       0.74344197 </v>
   <v>       0.92123151       0.82881744       0.74344197 </v>
   <v>       0.32880050       0.07882500       0.74342103 </v>
   <v>       0.32880049       0.57882496       0.74342103 </v>
   <v>       0.82880048       0.07882500       0.74342103 </v>
   <v>       0.82880052       0.57882496       0.74342103 </v>
   <v>       0.00000350       0.25000148       0.72582199 </v>
   <v>       0.00000350       0.75000145       0.72582199 </v>
   <v>       0.50000351       0.25000148       0.72582199 </v>
   <v>       0.50000350       0.75000145       0.72582199 </v>
   <v>       0.25000050       0.00000000       0.72580398 </v>
   <v>       0.25000052       0.50000000       0.72580398 </v>
   <v>       0.75000050       0.00000000       0.72580398 </v>
   <v>       0.75000049       0.50000000       0.72580398 </v>
   <v>       0.77535263       0.55522545       0.52044156 </v>
   <v>       0.72049298       0.47617773       0.52637469 </v>
   <v>       0.87401012       0.50105923       0.54225842 </v>
   <v>       0.85626668       0.47868926       0.56923898 </v>
   <v>       0.74300497       0.64135529       0.55979623 </v>
   <v>       0.80342052       0.59677291       0.57783487 </v>
   <v>       0.66884448       0.54859501       0.57055253 </v>
   <v>       0.67712968       0.45534914       0.56151563 </v>
   <v>       0.61514627       0.55183731       0.53757175 </v>
   <v>       0.66972313       0.63348595       0.53661728 </v>
   <v>       0.60598618       0.64531269       0.50549097 </v>
   <v>       0.68659969       0.60118748       0.49599764 </v>
   <v>       0.80215437       0.38960098       0.52988601 </v>
   <v>       0.77228024       0.37117836       0.55657110 </v>
   <v>       0.86722497       0.36302204       0.55011650 </v>
   <v>       0.86455727       0.69315327       0.55670082 </v>
   <v>       0.84668585       0.64739397       0.53228536 </v>
   <v>       0.90817212       0.60617555       0.55154861 </v>
   <v>       0.75480150       0.52540800       0.60028022 </v>
   <v>       0.77689173       0.43611254       0.59026137 </v>
   <v>       0.68756153       0.45528040       0.59972139 </v>
   <v>       0.53483379       0.52944533       0.50414969 </v>
   <v>       0.57573436       0.54707586       0.47883469 </v>
   <v>       0.69082028       0.47479549       0.46856479 </v>
   <v>       0.56114979       0.41921796       0.52412778 </v>
   <v>       0.75932731       0.35679386       0.47174444 </v>
   <v>       0.63030389       0.29976358       0.52720866 </v>
   <v>       0.72979656       0.26916464       0.50152225 </v>
   <v>       0.02155428       0.24927020       0.55885042 </v>
   <v>       0.02892488       0.75362274       0.56009231 </v>
   <v>       0.46513229       0.22628251       0.55394545 </v>
   <v>       0.50637465       0.76817236       0.55818800 </v>
   <v>       0.23888904       0.52288522       0.55883211 </v>
   <v>       0.24565793       0.01142353       0.55465641 </v>
   <v>       0.76954570       0.97932663       0.56255844 </v>
   <v>       0.01004955       0.24362576       0.65125410 </v>
   <v>       0.00769189       0.76092688       0.65231297 </v>
   <v>       0.48987527       0.23259278       0.65335620 </v>
   <v>       0.49522717       0.75879132       0.65004005 </v>
   <v>       0.25590486       0.49635717       0.64942475 </v>
   <v>       0.25090001       0.99807484       0.64804356 </v>
   <v>       0.77527372       0.49003290       0.65297631 </v>
   <v>       0.75378812       0.99638467       0.65066725 </v>
   <v>       0.49998898       0.24999498       0.74327702 </v>
   <v>       0.49998903       0.74999496       0.74327702 </v>
   <v>       0.99998898       0.24999498       0.74327702 </v>
   <v>       0.99998903       0.74999496       0.74327702 </v>
   <v>       0.25000050       0.00000100       0.74325596 </v>
   <v>       0.25000052       0.50000100       0.74325596 </v>
   <v>       0.75000050       0.00000100       0.74325596 </v>
   <v>       0.75000049       0.50000100       0.74325596 </v>
   <v>       0.62226424       0.45565996       0.49611382 </v>
   <v>       0.67779955       0.43733977       0.48129692 </v>
   <v>       0.60418070       0.40501173       0.51240180 </v>
   <v>       0.71674455       0.37028061       0.48313652 </v>
   <v>       0.64362400       0.33829914       0.51429452 </v>
   <v>       0.69989956       0.32111798       0.49977626 </v>
   <v>       0.73178174       0.53298753       0.53103987 </v>
   <v>       0.83297238       0.47611147       0.55303237 </v>
   <v>       0.79097263       0.60417467       0.56085949 </v>
   <v>       0.70678555       0.50140162       0.56905547 </v>
   <v>       0.66109318       0.57959317       0.52938713 </v>
   <v>       0.63655440       0.59232544       0.50588545 </v>
   <v>       0.81733238       0.39616191       0.54684283 </v>
   <v>       0.85702261       0.63825210       0.54940811 </v>
   <v>       0.73466195       0.47883018       0.59082252 </v>
   <v>       0.58746183       0.53161336       0.49556863 </v>
   <v>       0.01108419       0.18610047       0.56914912 </v>
   <v>       0.03390969       0.69177298       0.57097260 </v>
   <v>       0.53610992       0.22104331       0.55804796 </v>
   <v>       0.49056366       0.70353034       0.56671912 </v>
   <v>       0.42205947       0.28088315       0.56098891 </v>
   <v>       0.46652684       0.82890809       0.56076023 </v>
   <v>       0.00065595       0.31417709       0.56626603 </v>
   <v>       0.98615126       0.81022156       0.56528109 </v>
   <v>       0.24228487       0.45416616       0.56560000 </v>
   <v>       0.18424559       0.97705442       0.55978738 </v>
   <v>       0.69671236       0.98131781       0.56526766 </v>
   <v>       0.31190597       0.99512766       0.56251064 </v>
   <v>       0.28932374       0.57427032       0.56268750 </v>
   <v>       0.81474040       0.03007980       0.56979085 </v>
   <v>       0.05591253       0.19231129       0.65694152 </v>
   <v>       0.05098440       0.71079082       0.66034546 </v>
   <v>       0.55984355       0.21976320       0.65751890 </v>
   <v>       0.53372319       0.71231630       0.66175687 </v>
   <v>       0.21323569       0.44609883       0.65857661 </v>
   <v>       0.20456854       0.95766203       0.65914728 </v>
   <v>       0.71942608       0.46028430       0.66350911 </v>
   <v>       0.70493828       0.95621699       0.66080282 </v>
   <v>       0.45229406       0.29026179       0.66080917 </v>
   <v>       0.44774188       0.80801567       0.65699579 </v>
   <v>       0.96856522       0.28410201       0.66428203 </v>
   <v>       0.94188185       0.78004894       0.65962046 </v>
   <v>       0.30038412       0.04482202       0.65602739 </v>
   <v>       0.29761205       0.54432082       0.65944440 </v>
   <v>       0.79456406       0.05024562       0.65920894 </v>
   <v>       0.79930163       0.55855946       0.65517841 </v>
   <v>       0.04586250       0.20411950       0.75272599 </v>
   <v>       0.04586250       0.70411946       0.75272599 </v>
   <v>       0.54586251       0.20411950       0.75272599 </v>
   <v>       0.54586250       0.70411946       0.75272599 </v>
   <v>       0.20411900       0.45410100       0.75270499 </v>
   <v>       0.20411899       0.95410095       0.75270499 </v>
   <v>       0.70411898       0.45410100       0.75270499 </v>
   <v>       0.70411896       0.95410095       0.75270499 </v>
   <v>       0.45414002       0.29588849       0.75272697 </v>
   <v>       0.45414001       0.79588852       0.75272697 </v>
   <v>       0.95414002       0.29588849       0.75272697 </v>
[...]
   <v>       0.56575098       0.17742613       0.55254325 </v>
   <v>       0.52112283       0.65743314       0.56359863 </v>
   <v>       0.35888380       0.01882632       0.55706088 </v>
   <v>       0.28274885       0.62658339       0.55712730 </v>
   <v>       0.86936298       0.02816313       0.56575177 </v>
   <v>       0.98692678       0.18649120       0.58399242 </v>
   <v>       0.00399557       0.68456240       0.58472083 </v>
   <v>       0.56040543       0.25505166       0.56913703 </v>
   <v>       0.44810713       0.69403219       0.57730376 </v>
   <v>       0.28533861       0.43418312       0.57504715 </v>
   <v>       0.18238787       0.93531765       0.57133058 </v>
   <v>       0.67246156       0.02308488       0.57430518 </v>
   <v>       0.36531206       0.27810047       0.55825747 </v>
   <v>       0.48538988       0.87906470       0.55503466 </v>
   <v>       0.02062059       0.36204269       0.55935773 </v>
   <v>       0.99229236       0.86045594       0.55759651 </v>
   <v>       0.19852429       0.42015916       0.56321006 </v>
   <v>       0.13433634       0.99587413       0.55442773 </v>
   <v>       0.66790601       0.93554112       0.56125740 </v>
   <v>       0.43894067       0.18322590       0.54380274 </v>
   <v>       0.55672642       0.77205400       0.54844783 </v>
   <v>       0.05026651       0.24805583       0.54348889 </v>
   <v>       0.06276368       0.75968978       0.54538789 </v>
   <v>       0.18994329       0.53891175       0.54957629 </v>
   <v>       0.24175779       0.05760361       0.54333108 </v>
   <v>       0.79270140       0.93171180       0.55396444 </v>
   <v>       0.47523143       0.32859683       0.67045423 </v>
   <v>       0.43563720       0.81489131       0.67275004 </v>
   <v>       0.96888214       0.27902907       0.68034769 </v>
   <v>       0.91775050       0.75461602       0.67250597 </v>
   <v>       0.30738300       0.05387159       0.67186729 </v>
   <v>       0.30149668       0.54791930       0.67565607 </v>
   <v>       0.79114848       0.06484671       0.67485086 </v>
   <v>       0.77735607       0.59390214       0.66637797 </v>
   <v>       0.08515562       0.16457796       0.64520681 </v>
   <v>       0.10270893       0.70236536       0.65358843 </v>
   <v>       0.58446575       0.17326132       0.65089911 </v>
   <v>       0.56871839       0.67712536       0.65440549 </v>
   <v>       0.18313020       0.41111090       0.64871605 </v>
   <v>       0.16935369       0.92304829       0.65111827 </v>
   <v>       0.70772976       0.40591822       0.66144883 </v>
   <v>       0.67641300       0.91681478       0.65235539 </v>
   <v>       0.06685095       0.17696479       0.67272843 </v>
   <v>       0.03823235       0.67878099       0.67361758 </v>
   <v>       0.59299317       0.25302724       0.66670781 </v>
   <v>       0.53048587       0.70927806       0.67783547 </v>
   <v>       0.20732461       0.44113439       0.67466009 </v>
   <v>       0.20239568       0.95804048       0.67548130 </v>
   <v>       0.68811467       0.48967198       0.67414729 </v>
   <v>       0.69327217       0.96216629       0.67666238 </v>
   <v>       0.39637852       0.29244838       0.65758349 </v>
   <v>       0.42122057       0.84092475       0.64604847 </v>
   <v>       0.93461804       0.32324660       0.65803994 </v>
   <v>       0.91127626       0.81961770       0.65199656 </v>
   <v>       0.33312850       0.07323859       0.64535833 </v>
   <v>       0.32811335       0.58092383       0.65052532 </v>
   <v>       0.83138067       0.07765375       0.64935699 </v>
   <v>       0.84185907       0.57717139       0.64612838 </v>
   <v>       0.00411616       0.25585249       0.63408569 </v>
   <v>       0.02701358       0.79107120       0.63807818 </v>
   <v>       0.46007564       0.19323278       0.64289330 </v>
   <v>       0.50397350       0.75668538       0.63240450 </v>
   <v>       0.24857506       0.99288576       0.63054909 </v>
   <v>       0.25668895       0.49782547       0.63185331 </v>
   <v>       0.76243699       0.98424848       0.63361037 </v>
   <v>       0.80519824       0.45456013       0.64164976 </v>
   <v>       0.44874502       0.30128397       0.76888902 </v>
   <v>       0.44874501       0.80128391       0.76888902 </v>
   <v>       0.94874497       0.30128397       0.76888902 </v>
   <v>       0.94874501       0.80128391       0.76888902 </v>
   <v>       0.30127600       0.05129450       0.76887296 </v>
   <v>       0.30127601       0.55129450       0.76887296 </v>
   <v>       0.80127594       0.05129450       0.76887296 </v>
   <v>       0.80127598       0.55129450       0.76887296 </v>
   <v>       0.07877100       0.17118050       0.74344197 </v>
   <v>       0.07877101       0.67118045       0.74344197 </v>
   <v>       0.57877100       0.17118050       0.74344197 </v>
   <v>       0.57877099       0.67118045       0.74344197 </v>
   <v>       0.17119950       0.42117448       0.74342103 </v>
   <v>       0.17119950       0.92117451       0.74342103 </v>
   <v>       0.67119951       0.42117448       0.74342103 </v>
   <v>       0.67119950       0.92117451       0.74342103 </v>
   <v>       0.05125600       0.19871499       0.76888902 </v>
   <v>       0.05125600       0.69871493       0.76888902 </v>
   <v>       0.55125603       0.19871499       0.76888902 </v>
   <v>       0.55125602       0.69871493       0.76888902 </v>
   <v>       0.19872349       0.44870397       0.76887205 </v>
   <v>       0.19872349       0.94870397       0.76887205 </v>
   <v>       0.69872352       0.44870397       0.76887205 </v>
   <v>       0.69872351       0.94870397       0.76887205 </v>
   <v>       0.42123152       0.32881747       0.74344197 </v>
   <v>       0.42123151       0.82881744       0.74344197 </v>
   <v>       0.92123147       0.32881747       0.74344197 </v>
   <v>       0.92123151       0.82881744       0.74344197 </v>
   <v>       0.32880050       0.07882500       0.74342103 </v>
   <v>       0.32880049       0.57882496       0.74342103 </v>
   <v>       0.82880048       0.07882500       0.74342103 </v>
   <v>       0.82880052       0.57882496       0.74342103 </v>
   <v>       0.00000350       0.25000148       0.72582199 </v>
   <v>       0.00000350       0.75000145       0.72582199 </v>
   <v>       0.50000351       0.25000148       0.72582199 </v>
   <v>       0.50000350       0.75000145       0.72582199 </v>
   <v>       0.25000050       0.00000000       0.72580398 </v>
   <v>       0.25000052       0.50000000       0.72580398 </v>
   <v>       0.75000050       0.00000000       0.72580398 </v>
   <v>       0.75000049       0.50000000       0.72580398 </v>
   <v>       0.77535263       0.55522545       0.52044156 </v>
   <v>       0.72049298       0.47617773       0.52637469 </v>
   <v>       0.87401012       0.50105923       0.54225842 </v>
   <v>       0.85626668       0.47868926       0.56923898 </v>
   <v>       0.74300497       0.64135529       0.55979623 </v>
   <v>       0.80342052       0.59677291       0.57783487 </v>
   <v>       0.66884448       0.54859501       0.57055253 </v>
   <v>       0.67712968       0.45534914       0.56151563 </v>
   <v>       0.61514627       0.55183731       0.53757175 </v>
   <v>       0.66972313       0.63348595       0.53661728 </v>
   <v>       0.60598618       0.64531269       0.50549097 </v>
   <v>       0.68659969       0.60118748       0.49599764 </v>
   <v>       0.80215437       0.38960098       0.52988601 </v>
   <v>       0.77228024       0.37117836       0.55657110 </v>
   <v>       0.86722497       0.36302204       0.55011650 </v>
   <v>       0.86455727       0.69315327       0.55670082 </v>
   <v>       0.84668585       0.64739397       0.53228536 </v>
   <v>       0.90817212       0.60617555       0.55154861 </v>
   <v>       0.75480150       0.52540800       0.60028022 </v>
   <v>       0.77689173       0.43611254       0.59026137 </v>
   <v>       0.68756153       0.45528040       0.59972139 </v>
   <v>       0.53483379       0.52944533       0.50414969 </v>
   <v>       0.57573436       0.54707586       0.47883469 </v>
   <v>       0.69082028       0.47479549       0.46856479 </v>
   <v>       0.56114979       0.41921796       0.52412778 </v>
   <v>       0.75932731       0.35679386       0.47174444 </v>
   <v>       0.63030389       0.29976358       0.52720866 </v>
   <v>       0.72979656       0.26916464       0.50152225 </v>
   <v>       0.02155428       0.24927020       0.55885042 </v>
   <v>       0.02892488       0.75362274       0.56009231 </v>
   <v>       0.46513229       0.22628251       0.55394545 </v>
   <v>       0.50637465       0.76817236       0.55818800 </v>
   <v>       0.23888904       0.52288522       0.55883211 </v>
   <v>       0.24565793       0.01142353       0.55465641 </v>
   <v>       0.76954570       0.97932663       0.56255844 </v>
   <v>       0.01004955       0.24362576       0.65125410 </v>
   <v>       0.00769189       0.76092688       0.65231297 </v>
   <v>       0.48987527       0.23259278       0.65335620 </v>
   <v>       0.49522717       0.75879132       0.65004005 </v>
   <v>       0.25590486       0.49635717       0.64942475 </v>
   <v>       0.25090001       0.99807484       0.64804356 </v>
   <v>       0.77527372       0.49003290       0.65297631 </v>
   <v>       0.75378812       0.99638467       0.65066725 </v>
   <v>       0.49998898       0.24999498       0.74327702 </v>
   <v>       0.49998903       0.74999496       0.74327702 </v>
   <v>       0.99998898       0.24999498       0.74327702 </v>
   <v>       0.99998903       0.74999496       0.74327702 </v>
   <v>       0.25000050       0.00000100       0.74325596 </v>
   <v>       0.25000052       0.50000100       0.74325596 </v>
   <v>       0.75000050       0.00000100       0.74325596 </v>
   <v>       0.75000049       0.50000100       0.74325596 </v>
   <v>       0.62226424       0.45565996       0.49611382 </v>
   <v>       0.67779955       0.43733977       0.48129692 </v>
   <v>       0.60418070       0.40501173       0.51240180 </v>
   <v>       0.71674455       0.37028061       0.48313652 </v>
   <v>       0.64362400       0.33829914       0.51429452 </v>
   <v>       0.69989956       0.32111798       0.49977626 </v>
   <v>       0.73178174       0.53298753       0.53103987 </v>
   <v>       0.83297238       0.47611147       0.55303237 </v>
   <v>       0.79097263       0.60417467       0.56085949 </v>
   <v>       0.70678555       0.50140162       0.56905547 </v>
   <v>       0.66109318       0.57959317       0.52938713 </v>
   <v>       0.63655440       0.59232544       0.50588545 </v>
   <v>       0.81733238       0.39616191       0.54684283 </v>
   <v>       0.85702261       0.63825210       0.54940811 </v>
   <v>       0.73466195       0.47883018       0.59082252 </v>
   <v>       0.58746183       0.53161336       0.49556863 </v>
   <v>       0.01108419       0.18610047       0.56914912 </v>
   <v>       0.03390969       0.69177298       0.57097260 </v>
   <v>       0.53610992       0.22104331       0.55804796 </v>
   <v>       0.49056366       0.70353034       0.56671912 </v>
   <v>       0.42205947       0.28088315       0.56098891 </v>
   <v>       0.46652684       0.82890809       0.56076023 </v>
   <v>       0.00065595       0.31417709       0.56626603 </v>
   <v>       0.98615126       0.81022156       0.56528109 </v>
   <v>       0.24228487       0.45416616       0.56560000 </v>
   <v>       0.18424559       0.97705442       0.55978738 </v>
   <v>       0.69671236       0.98131781       0.56526766 </v>
   <v>       0.31190597       0.99512766       0.56251064 </v>
   <v>       0.28932374       0.57427032       0.56268750 </v>
   <v>       0.81474040       0.03007980       0.56979085 </v>
   <v>       0.05591253       0.19231129       0.65694152 </v>
   <v>       0.05098440       0.71079082       0.66034546 </v>
   <v>       0.55984355       0.21976320       0.65751890 </v>
   <v>       0.53372319       0.71231630       0.66175687 </v>
   <v>       0.21323569       0.44609883       0.65857661 </v>
   <v>       0.20456854       0.95766203       0.65914728 </v>
   <v>       0.71942608       0.46028430       0.66350911 </v>
   <v>       0.70493828       0.95621699       0.66080282 </v>
   <v>       0.45229406       0.29026179       0.66080917 </v>
   <v>       0.44774188       0.80801567       0.65699579 </v>
   <v>       0.96856522       0.28410201       0.66428203 </v>
   <v>       0.94188185       0.78004894       0.65962046 </v>
   <v>       0.30038412       0.04482202       0.65602739 </v>
   <v>       0.29761205       0.54432082       0.65944440 </v>
   <v>       0.79456406       0.05024562       0.65920894 </v>
   <v>       0.79930163       0.55855946       0.65517841 </v>
   <v>       0.04586250       0.20411950       0.75272599 </v>
   <v>       0.04586250       0.70411946       0.75272599 </v>
   <v>       0.54586251       0.20411950       0.75272599 </v>
   <v>       0.54586250       0.70411946       0.75272599 </v>
   <v>       0.20411900       0.45410100       0.75270499 </v>
   <v>       0.20411899       0.95410095       0.75270499 </v>
   <v>       0.70411898       0.45410100       0.75270499 </v>
   <v>       0.70411896       0.95410095       0.75270499 </v>
   <v>       0.45414002       0.29588849       0.75272697 </v>
   <v>       0.45414001       0.79588852       0.75272697 </v>
   <v>       0.95414002       0.29588849       0.75272697 </v>
   <v>       0.95414006       0.79588852       0.75272697 </v>
   <v>       0.29588249       0.04590050       0.75270499 </v>
   <v>       0.29588248       0.54590053       0.75270499 </v>
   <v>       0.79588244       0.04590050       0.75270499 </v>
   <v>       0.79588248       0.54590053       0.75270499 </v>
   <v>       0.76577002       0.52796552       0.55335451 </v>
   <v>       0.50576494       0.01901936       0.55258605 </v>
   <v>       0.47377073       0.50273666       0.55562261 </v>
   <v>       0.99580847       0.00089739       0.55010221 </v>
   <v>       0.03911844       0.49865725       0.55292425 </v>
   <v>       0.23053069       0.23621748       0.55318010 </v>
   <v>       0.25080502       0.76734603       0.55394264 </v>
   <v>       0.73762755       0.20407146       0.55530681 </v>
   <v>       0.70784139       0.79139110       0.55053925 </v>
   <v>       0.00175700       0.98600235       0.65444181 </v>
   <v>       0.01053124       0.49359004       0.65539372 </v>
   <v>       0.50095335       0.00904035       0.65480510 </v>
   <v>       0.51256913       0.48972837       0.65566929 </v>
   <v>       0.26003038       0.24440125       0.65450292 </v>
   <v>       0.25126064       0.75338299       0.65482336 </v>
   <v>       0.74937747       0.26425546       0.65464204 </v>
   <v>       0.74575358       0.75368948       0.65420269 </v>
   <v>       0.13605709       0.10670688       0.60812407 </v>
   <v>       0.14757877       0.60838392       0.61026568 </v>
   <v>       0.64946909       0.10563828       0.61178667 </v>
   <v>       0.61748094       0.63506487       0.61357743 </v>
   <v>       0.36000089       0.38686382       0.60740384 </v>
   <v>       0.36857479       0.88430640       0.60744028 </v>
   <v>       0.89314647       0.36313183       0.61327336 </v>
   <v>       0.87322157       0.87185522       0.60863767 </v>
   <v>       0.12314375       0.35992936       0.61052946 </v>
   <v>       0.12323979       0.87150322       0.60645296 </v>
   <v>       0.58205729       0.33078774       0.60327624 </v>
   <v>       0.61546327       0.87202148       0.61087194 </v>
   <v>       0.38617267       0.13381471       0.60610157 </v>
   <v>       0.38499256       0.63121591       0.61092346 </v>
   <v>       0.88876228       0.13814792       0.61315865 </v>
   <v>       0.90825120       0.64215111       0.61404433 </v>
   <v>       0.00000000       0.00000000       0.75492797 </v>
   <v>       0.00000000       0.50000000       0.75492797 </v>
   <v>       0.50000000       0.00000000       0.75492797 </v>
   <v>       0.49999999       0.50000000       0.75492797 </v>
   <v>       0.25000050       0.25000000       0.75493902 </v>
   <v>       0.25000051       0.74999997       0.75493902 </v>
   <v>       0.75000047       0.25000000       0.75493902 </v>
   <v>       0.75000046       0.74999997       0.75493902 </v>
   <v>       0.13579050       0.11421000       0.70478299 </v>
   <v>       0.13579050       0.61420998       0.70478299 </v>
   <v>       0.63579045       0.11421000       0.70478299 </v>
   <v>       0.63579049       0.61420998       0.70478299 </v>
   <v>       0.36420952       0.38578999       0.70478299 </v>
   <v>       0.36420950       0.88578996       0.70478299 </v>
   <v>       0.86420954       0.38578999       0.70478299 </v>
   <v>       0.86420953       0.88578996       0.70478299 </v>
   <v>       0.11421799       0.36421899       0.70478098 </v>
   <v>       0.11421799       0.86421899       0.70478098 </v>
   <v>       0.61421800       0.36421899       0.70478098 </v>
   <v>       0.61421799       0.86421899       0.70478098 </v>
   <v>       0.38578201       0.13578149       0.70478202 </v>
   <v>       0.38578200       0.63578149       0.70478202 </v>
   <v>       0.88578199       0.13578149       0.70478202 </v>
   <v>       0.88578203       0.63578149       0.70478202 </v>
   <v>       0.13466700       0.11533200       0.80125603 </v>
   <v>       0.13466699       0.61533199       0.80125603 </v>
   <v>       0.63466699       0.11533200       0.80125603 </v>
   <v>       0.63466698       0.61533199       0.80125603 </v>
   <v>       0.36533300       0.38466799       0.80125603 </v>
   <v>       0.36533299       0.88466796       0.80125603 </v>
   <v>       0.86533295       0.38466799       0.80125603 </v>
   <v>       0.86533294       0.88466796       0.80125603 </v>
   <v>       0.11532850       0.36533700       0.80126500 </v>
   <v>       0.11532850       0.86533698       0.80126500 </v>
   <v>       0.61532850       0.36533700       0.80126500 </v>
   <v>       0.61532849       0.86533698       0.80126500 </v>
   <v>       0.38467151       0.13466300       0.80126500 </v>
   <v>       0.38467150       0.63466297       0.80126500 </v>
   <v>       0.88467149       0.13466300       0.80126500 </v>
   <v>       0.88467153       0.63466297       0.80126500 </v>
   <v>       0.99374939       0.99669016       0.60578901 </v>
   <v>       0.00973299       0.49967661       0.60590232 </v>
   <v>       0.49988311       0.00780434       0.60449774 </v>
   <v>       0.49711085       0.49209117       0.60449279 </v>
   <v>       0.24354475       0.24045616       0.60353740 </v>
   <v>       0.24851712       0.74756600       0.60382457 </v>
   <v>       0.73861015       0.24938351       0.60244282 </v>
   <v>       0.73252871       0.75600814       0.60158572 </v>
   <v>       0.00000050       0.00000050       0.70482896 </v>
   <v>       0.00000050       0.50000048       0.70482896 </v>
   <v>       0.50000048       0.00000050       0.70482896 </v>
   <v>       0.50000046       0.50000048       0.70482896 </v>
   <v>       0.24999999       0.24999947       0.70482499 </v>
   <v>       0.25000001       0.74999950       0.70482499 </v>
   <v>       0.74999999       0.24999947       0.70482499 </v>
   <v>       0.74999998       0.74999950       0.70482499 </v>
   <v>       0.00000000       0.00000000       0.80731797 </v>
   <v>       0.00000000       0.50000000       0.80731797 </v>
   <v>       0.50000000       0.00000000       0.80731797 </v>
   <v>       0.49999999       0.50000000       0.80731797 </v>
   <v>       0.24999999       0.25000000       0.80731797 </v>
   <v>       0.25000001       0.74999997       0.80731797 </v>
   <v>       0.74999999       0.25000000       0.80731797 </v>
   <v>       0.74999998       0.74999997       0.80731797 </v>
  </varray>
 </structure>
</modeling>
