 vasp.6.2.1 16May21 (build Nov 15 2021 14:57:28) complex                         
 executed on             LinuxPGI date 2023.07.30  14:10:24
 running on    4 total cores
 distrk:  each k-point on    4 cores,    1 groups
 distr:  one band on NCORE=   1 cores,    4 groups


--------------------------------------------------------------------------------------------------------


 INCAR:
   SYSTEM = PSC
   ISTART = 1
   ICHARG = 1
   PREC = Normal
   ENCUT = 500
   GGA_COMPAT = F
   NELM = 600
   ISYM = 0
   LREAL = Auto
   ISMEAR = 0
   SIGMA = 0.05
   AMIN = 0.01
   BMIX = 0.01
   LVTOT = T
   LWAVE = F
   LDIPOL = T
   IDIPOL = 3
   LVDW = T
   IVDW = 12

 POTCAR:    PAW_PBE H 15Jun2001                   
 POTCAR:    PAW_PBE C 08Apr2002                   
 POTCAR:    PAW_PBE N 08Apr2002                   
 POTCAR:    PAW_PBE I 08Apr2002                   
 POTCAR:    PAW_PBE Pb 08Apr2002                  
 WARNING: For LVTOT=.TRUE., VASP.5.x writes the TOTAL local potential to the
     file LOCPOT. If you want only the Hartree contributions, use LVHAR=.TRUE.
     instead. 

 POTCAR:    PAW_PBE H 15Jun2001                   
   SHA256 =  030f79b5d3ab3cf0e668861823c8fb652ff669f3e15e46930bd03bfd63a607b6 H/POTCAR              
   COPYR  = (c) Copyright 15Jun2001 Georg Kresse                                                    
   COPYR  = This file is part of the software VASP. Any use, copying, and all other rights are regul
   COPYR  = If you do not have a valid VASP license, you may not use, copy or distribute this file. 
   VRHFIN =H: ultrasoft test                                                                        
   LEXCH  = PE                                                                                      
   EATOM  =    12.4884 eV,    0.9179 Ry                                                             
                                                                                                    
   TITEL  = PAW_PBE H 15Jun2001                                                                     
   LULTRA =        F    use ultrasoft PP ?                                                          
   IUNSCR =        0    unscreen: 0-lin 1-nonlin 2-no                                               
   RPACOR =    0.000    partial core radius                                                         
   POMASS =    1.000; ZVAL   =    1.000    mass and valenz                                          
   RCORE  =    1.100    outmost cutoff radius                                                       
   RWIGS  =    0.700; RWIGS  =    0.370    wigner-seitz radius (au A)                               
   ENMAX  =  250.000; ENMIN  =  200.000 eV                                                          
   RCLOC  =    0.701    cutoff for local pot                                                        
   LCOR   =        T    correct aug charges                                                         
   LPAW   =        T    paw PP                                                                      
   EAUG   =  400.000                                                                                
   RMAX   =    1.123    core radius for proj-oper                                                   
   RAUG   =    1.200    factor for augmentation sphere                                              
   RDEP   =    1.112    radius for radial grids                                                     
   RDEPT  =    0.926    core radius for aug-charge                                                  
                                                                                                    
   Atomic configuration                                                                             
    2 entries                                                                                       
     n  l   j            E        occ.                                                              
     1  0  0.50        -6.4927   1.0000                                                             
     2  1  0.50        -3.4015   0.0000                                                             
   Description                                                                                      
     l       E           TYP  RCUT    TYP  RCUT                                                     
     0     -6.4927494     23  1.100                                                                 
     0      6.8029130     23  1.100                                                                 
     1     -4.0817478     23  1.100                                                                 
  local pseudopotential read in
  atomic valenz-charges read in
  non local Contribution for L=            0  read in
    real space projection operators read in
  non local Contribution for L=            0  read in
    real space projection operators read in
  non local Contribution for L=            1  read in
    real space projection operators read in
    PAW grid and wavefunctions read in
 
   number of l-projection  operators is LMAX  =            3
   number of lm-projection operators is LMMAX =            5
 
 POTCAR:    PAW_PBE C 08Apr2002                   
   SHA256 =  253f7b50bb8d59471dbedb8285d89021f4a42ed1a2c5d38a03a736e69125dd95 C/POTCAR              
   COPYR  = (c) Copyright 08Apr2002 Georg Kresse                                                    
   COPYR  = This file is part of the software VASP. Any use, copying, and all other rights are regul
   COPYR  = If you do not have a valid VASP license, you may not use, copy or distribute this file. 
   VRHFIN =C: s2p2                                                                                  
   LEXCH  = PE                                                                                      
   EATOM  =   147.1560 eV,   10.8157 Ry                                                             
                                                                                                    
   TITEL  = PAW_PBE C 08Apr2002                                                                     
   LULTRA =        F    use ultrasoft PP ?                                                          
   IUNSCR =        1    unscreen: 0-lin 1-nonlin 2-no                                               
   RPACOR =    1.200    partial core radius                                                         
   POMASS =   12.011; ZVAL   =    4.000    mass and valenz                                          
   RCORE  =    1.500    outmost cutoff radius                                                       
   RWIGS  =    1.630; RWIGS  =    0.863    wigner-seitz radius (au A)                               
   ENMAX  =  400.000; ENMIN  =  300.000 eV                                                          
   ICORE  =        2    local potential                                                             
   LCOR   =        T    correct aug charges                                                         
   LPAW   =        T    paw PP                                                                      
   EAUG   =  644.873                                                                                
   DEXC   =    0.000                                                                                
   RMAX   =    1.529    core radius for proj-oper                                                   
   RAUG   =    1.300    factor for augmentation sphere                                              
   RDEP   =    1.501    radius for radial grids                                                     
   RDEPT  =    1.300    core radius for aug-charge                                                  
                                                                                                    
   Atomic configuration                                                                             
    4 entries                                                                                       
     n  l   j            E        occ.                                                              
     1  0  0.50      -273.3789   2.0000                                                             
     2  0  0.50       -13.7508   2.0000                                                             
     2  1  0.50        -5.2854   2.0000                                                             
     3  2  1.50        -5.4423   0.0000                                                             
   Description                                                                                      
     l       E           TYP  RCUT    TYP  RCUT                                                     
     0    -13.7508458     23  1.200                                                                 
     0     -8.2022199     23  1.200                                                                 
     1     -5.2854383     23  1.500                                                                 
     1     34.0145650     23  1.500                                                                 
     2     -5.4423304      7  1.500                                                                 
  local pseudopotential read in
  partial core-charges read in
  partial kinetic energy density read in
  atomic valenz-charges read in
  non local Contribution for L=            0  read in
    real space projection operators read in
  non local Contribution for L=            0  read in
    real space projection operators read in
  non local Contribution for L=            1  read in
    real space projection operators read in
  non local Contribution for L=            1  read in
    real space projection operators read in
    PAW grid and wavefunctions read in
 
   number of l-projection  operators is LMAX  =            4
   number of lm-projection operators is LMMAX =            8
 
 POTCAR:    PAW_PBE N 08Apr2002                   
   SHA256 =  e053789ff3a61a86a1b75d8a110fcc91f86041011e7b0817c7c99e4e8a6349d7 N/POTCAR              
   COPYR  = (c) Copyright 08Apr2002 Georg Kresse                                                    
   COPYR  = This file is part of the software VASP. Any use, copying, and all other rights are regul
   COPYR  = If you do not have a valid VASP license, you may not use, copy or distribute this file. 
   VRHFIN =N: s2p3                                                                                  
   LEXCH  = PE                                                                                      
   EATOM  =   264.5486 eV,   19.4438 Ry                                                             
                                                                                                    
   TITEL  = PAW_PBE N 08Apr2002                                                                     
   LULTRA =        F    use ultrasoft PP ?                                                          
   IUNSCR =        1    unscreen: 0-lin 1-nonlin 2-no                                               
   RPACOR =    1.200    partial core radius                                                         
   POMASS =   14.001; ZVAL   =    5.000    mass and valenz                                          
   RCORE  =    1.500    outmost cutoff radius                                                       
   RWIGS  =    1.400; RWIGS  =    0.741    wigner-seitz radius (au A)                               
   ENMAX  =  400.000; ENMIN  =  300.000 eV                                                          
   ICORE  =        2    local potential                                                             
   LCOR   =        T    correct aug charges                                                         
   LPAW   =        T    paw PP                                                                      
   EAUG   =  627.112                                                                                
   DEXC   =    0.000                                                                                
   RMAX   =    1.529    core radius for proj-oper                                                   
   RAUG   =    1.300    factor for augmentation sphere                                              
   RDEP   =    1.514    radius for radial grids                                                     
   RDEPT  =    1.338    core radius for aug-charge                                                  
                                                                                                    
   Atomic configuration                                                                             
    4 entries                                                                                       
     n  l   j            E        occ.                                                              
     1  0  0.50      -384.7179   2.0000                                                             
     2  0  0.50       -18.5828   2.0000                                                             
     2  1  0.50        -7.0898   3.0000                                                             
     3  2  1.50        -6.8029   0.0000                                                             
   Description                                                                                      
     l       E           TYP  RCUT    TYP  RCUT                                                     
     0    -18.5828119     23  1.200                                                                 
     0    -13.5018863     23  1.200                                                                 
     1     -7.0897853     23  1.500                                                                 
     1      9.5240782     23  1.500                                                                 
     2     -6.8029130      7  1.500                                                                 
  local pseudopotential read in
  partial core-charges read in
  partial kinetic energy density read in
  atomic valenz-charges read in
  non local Contribution for L=            0  read in
    real space projection operators read in
  non local Contribution for L=            0  read in
    real space projection operators read in
  non local Contribution for L=            1  read in
    real space projection operators read in
  non local Contribution for L=            1  read in
    real space projection operators read in
    PAW grid and wavefunctions read in
 
   number of l-projection  operators is LMAX  =            4
   number of lm-projection operators is LMMAX =            8
 
 POTCAR:    PAW_PBE I 08Apr2002                   
   SHA256 =  e40f3f59b681c1fc3e3091736183c4589116986673d2b852a5012aec72758799 I/POTCAR              
   COPYR  = (c) Copyright 08Apr2002 Georg Kresse                                                    
   COPYR  = This file is part of the software VASP. Any use, copying, and all other rights are regul
   COPYR  = If you do not have a valid VASP license, you may not use, copy or distribute this file. 
   VRHFIN =I : s2p5                                                                                 
   LEXCH  = PE                                                                                      
   EATOM  =   315.8678 eV,   23.2156 Ry                                                             
                                                                                                    
   TITEL  = PAW_PBE I 08Apr2002                                                                     
   LULTRA =        F    use ultrasoft PP ?                                                          
   IUNSCR =        1    unscreen: 0-lin 1-nonlin 2-no                                               
   RPACOR =    2.200    partial core radius                                                         
   POMASS =  126.904; ZVAL   =    7.000    mass and valenz                                          
   RCORE  =    2.300    outmost cutoff radius                                                       
   RWIGS  =    2.810; RWIGS  =    1.487    wigner-seitz radius (au A)                               
   ENMAX  =  175.647; ENMIN  =  131.735 eV                                                          
   ICORE  =        3    local potential                                                             
   LCOR   =        T    correct aug charges                                                         
   LPAW   =        T    paw PP                                                                      
   EAUG   =  370.139                                                                                
   DEXC   =    0.000                                                                                
   RMAX   =    2.359    core radius for proj-oper                                                   
   RAUG   =    1.300    factor for augmentation sphere                                              
   RDEP   =    2.392    radius for radial grids                                                     
   RDEPT  =    2.170    core radius for aug-charge                                                  
                                                                                                    
   Atomic configuration                                                                             
   13 entries                                                                                       
     n  l   j            E        occ.                                                              
     1  0  0.50    -32976.3739   2.0000                                                             
     2  0  0.50     -5094.5933   2.0000                                                             
     2  1  1.50     -4572.0131   6.0000                                                             
     3  0  0.50     -1028.2813   2.0000                                                             
     3  1  1.50      -859.0250   6.0000                                                             
     3  2  2.50      -605.7620  10.0000                                                             
     4  0  0.50      -180.5540   2.0000                                                             
     4  1  1.50      -127.5306   6.0000                                                             
     4  2  2.50       -50.2720  10.0000                                                             
     5  0  0.50       -17.4058   2.0000                                                             
     5  1  0.50        -7.0851   5.0000                                                             
     5  2  1.50        -7.0750   0.0000                                                             
     4  3  2.50        -7.0750   0.0000                                                             
   Description                                                                                      
     l       E           TYP  RCUT    TYP  RCUT                                                     
     0    -17.4058016     23  2.300                                                                 
     0    -18.7663842     23  2.300                                                                 
     1     -7.0850686     23  2.300                                                                 
     1     -4.2150896     23  2.300                                                                 
     2     -7.0750295     23  2.300                                                                 
     3     -1.3605826     23  2.300                                                                 
  local pseudopotential read in
  partial core-charges read in
  partial kinetic energy density read in
  atomic valenz-charges read in
  non local Contribution for L=            0  read in
    real space projection operators read in
  non local Contribution for L=            0  read in
    real space projection operators read in
  non local Contribution for L=            1  read in
    real space projection operators read in
  non local Contribution for L=            1  read in
    real space projection operators read in
  non local Contribution for L=            2  read in
    real space projection operators read in
    PAW grid and wavefunctions read in
 
   number of l-projection  operators is LMAX  =            5
   number of lm-projection operators is LMMAX =           13
 
 POTCAR:    PAW_PBE Pb 08Apr2002                  
   SHA256 =  797118a27cf1bcd06b9881c67a26cdde129e3cd1a551dd4a281f9681ce847303 Pb/POTCAR             
   COPYR  = (c) Copyright 08Apr2002 Georg Kresse                                                    
   COPYR  = This file is part of the software VASP. Any use, copying, and all other rights are regul
   COPYR  = If you do not have a valid VASP license, you may not use, copy or distribute this file. 
   VRHFIN =Pb:                                                                                      
   LEXCH  = PE                                                                                      
   EATOM  =    96.9868 eV,    7.1283 Ry                                                             
                                                                                                    
   TITEL  = PAW_PBE Pb 08Apr2002                                                                    
   LULTRA =        F    use ultrasoft PP ?                                                          
   IUNSCR =        1    unscreen: 0-lin 1-nonlin 2-no                                               
   RPACOR =    2.200    partial core radius                                                         
   POMASS =  207.200; ZVAL   =    4.000    mass and valenz                                          
   RCORE  =    3.100    outmost cutoff radius                                                       
   RWIGS  =    3.260; RWIGS  =    1.725    wigner-seitz radius (au A)                               
   ENMAX  =   97.973; ENMIN  =   73.480 eV                                                          
   ICORE  =        3    local potential                                                             
   LCOR   =        T    correct aug charges                                                         
   LPAW   =        T    paw PP                                                                      
   EAUG   =  234.873                                                                                
   DEXC   =    0.000                                                                                
   RMAX   =    3.158    core radius for proj-oper                                                   
   RAUG   =    1.300    factor for augmentation sphere                                              
   RDEP   =    3.202    radius for radial grids                                                     
   RDEPT  =    2.659    core radius for aug-charge                                                  
                                                                                                    
   Atomic configuration                                                                             
   17 entries                                                                                       
     n  l   j            E        occ.                                                              
     1  0  0.50    -88091.8466   2.0000                                                             
     2  0  0.50    -15753.4197   2.0000                                                             
     2  1  1.50    -13508.1797   6.0000                                                             
     3  0  0.50     -3781.7194   2.0000                                                             
     3  1  1.50     -3138.2529   6.0000                                                             
     3  2  2.50     -2483.2977  10.0000                                                             
     4  0  0.50      -856.2895   2.0000                                                             
     4  1  1.50      -645.4943   6.0000                                                             
     4  2  2.50      -401.8768  10.0000                                                             
     4  3  3.50      -132.9059  14.0000                                                             
     5  0  0.50      -144.0950   2.0000                                                             
     5  1  1.50       -85.7879   6.0000                                                             
     5  2  2.50       -21.1769  10.0000                                                             
     6  0  0.50       -12.0372   2.0000                                                             
     6  1  1.50        -3.4971   2.0000                                                             
     6  2  2.50        -1.3606   0.0000                                                             
     5  3  2.50        -2.7212   0.0000                                                             
   Description                                                                                      
     l       E           TYP  RCUT    TYP  RCUT                                                     
     0    -12.0371566     23  3.100                                                                 
     0    -13.3977392     23  3.100                                                                 
     1     -3.4971341     23  3.100                                                                 
     1     -5.4423304     23  3.100                                                                 
     2     -1.3605826     23  3.100                                                                 
     3     -1.3605826     23  3.100                                                                 
  local pseudopotential read in
  partial core-charges read in
  partial kinetic energy density read in
  atomic valenz-charges read in
  non local Contribution for L=            0  read in
    real space projection operators read in
  non local Contribution for L=            0  read in
    real space projection operators read in
  non local Contribution for L=            1  read in
    real space projection operators read in
  non local Contribution for L=            1  read in
    real space projection operators read in
  non local Contribution for L=            2  read in
    real space projection operators read in
    PAW grid and wavefunctions read in
 
   number of l-projection  operators is LMAX  =            5
   number of lm-projection operators is LMMAX =           13
 
 Optimization of the real space projectors (new method)

 maximal supplied QI-value         = 34.20
 optimisation between [QCUT,QGAM] = [ 11.29, 22.57] = [ 35.68,142.71] Ry 
 Optimized for a Real-space Cutoff    1.16 Angstroem

   l    n(q)    QCUT    max X(q) W(low)/X(q) W(high)/X(q)  e(spline) 
   0      8    11.287    19.460    0.40E-03    0.73E-03    0.16E-06
   0      8    11.287    12.209    0.38E-03    0.70E-03    0.15E-06
   1      7    11.287     4.655    0.22E-03    0.25E-04    0.22E-06
 Optimization of the real space projectors (new method)

 maximal supplied QI-value         = 25.13
 optimisation between [QCUT,QGAM] = [ 11.31, 22.87] = [ 35.82,146.48] Ry 
 Optimized for a Real-space Cutoff    1.00 Angstroem

   l    n(q)    QCUT    max X(q) W(low)/X(q) W(high)/X(q)  e(spline) 
   0      7    11.310   115.676    0.43E-03    0.13E-02    0.19E-06
   0      7    11.310    87.132    0.43E-03    0.13E-02    0.18E-06
   1      6    11.310     4.429    0.42E-03    0.74E-03    0.11E-06
   1      6    11.310     2.733    0.34E-03    0.55E-03    0.92E-07
 Optimization of the real space projectors (new method)

 maximal supplied QI-value         = 25.13
 optimisation between [QCUT,QGAM] = [ 11.31, 22.87] = [ 35.82,146.48] Ry 
 Optimized for a Real-space Cutoff    1.27 Angstroem

   l    n(q)    QCUT    max X(q) W(low)/X(q) W(high)/X(q)  e(spline) 
   0      9    11.310    79.467    0.75E-04    0.16E-03    0.36E-06
   0      9    11.310    66.151    0.74E-04    0.16E-03    0.36E-06
   1      8    11.310    17.416    0.35E-03    0.12E-03    0.95E-06
   1      8    11.310    12.382    0.37E-03    0.13E-03    0.98E-06
 Optimization of the real space projectors (new method)

 maximal supplied QI-value         = 16.25
 optimisation between [QCUT,QGAM] = [ 11.38, 22.75] = [ 36.24,144.96] Ry 
 Optimized for a Real-space Cutoff    1.31 Angstroem

   l    n(q)    QCUT    max X(q) W(low)/X(q) W(high)/X(q)  e(spline) 
   0      9    11.376   194.483    0.24E-03    0.23E-03    0.67E-07
   0      9    11.376   190.334    0.23E-03    0.22E-03    0.65E-07
   1      8    11.376   116.687    0.25E-03    0.63E-04    0.16E-06
   1      8    11.376    88.696    0.25E-03    0.61E-04    0.16E-06
   2      8    11.376     4.877    0.17E-03    0.14E-03    0.29E-07
 Optimization of the real space projectors (new method)

 maximal supplied QI-value         = 12.09
 optimisation between [QCUT,QGAM] = [ 11.37, 22.86] = [ 36.19,146.31] Ry 
 Optimized for a Real-space Cutoff    1.66 Angstroem

   l    n(q)    QCUT    max X(q) W(low)/X(q) W(high)/X(q)  e(spline) 
   0     11    11.369   135.111    0.12E-03    0.69E-04    0.19E-05
   0     11    11.369   146.850    0.11E-03    0.65E-04    0.18E-05
   1     11    11.369   148.016    0.17E-03    0.32E-03    0.89E-06
   1     11    11.369   122.989    0.17E-03    0.32E-03    0.91E-06
   2     10    11.369     8.916    0.12E-03    0.45E-04    0.33E-06
  PAW_PBE H 15Jun2001                   :
 energy of atom  1       EATOM=  -12.4884
 kinetic energy error for atom=    0.0020 (will be added to EATOM!!)
  PAW_PBE C 08Apr2002                   :
 energy of atom  2       EATOM= -147.1560
 kinetic energy error for atom=    0.0076 (will be added to EATOM!!)
  PAW_PBE N 08Apr2002                   :
 energy of atom  3       EATOM= -264.5486
 kinetic energy error for atom=    0.0138 (will be added to EATOM!!)
  PAW_PBE I 08Apr2002                   :
 energy of atom  4       EATOM= -315.8678
 kinetic energy error for atom=    0.0009 (will be added to EATOM!!)
  PAW_PBE Pb 08Apr2002                  :
 energy of atom  5       EATOM=  -96.9868
 kinetic energy error for atom=    0.0000 (will be added to EATOM!!)
 
 
 POSCAR:  H  C  N  I Pb
  positions in cartesian coordinates
  No initial velocities read in
 exchange correlation table for  LEXCH =        8
   RHO(1)=    0.500       N(1)  =     2000
   RHO(2)=  100.500       N(2)  =     4000
 


--------------------------------------------------------------------------------------------------------


 ion  position               nearest neighbor table
   1  0.408  0.283  0.562- 187 1.03
   2  0.415  0.696  0.572- 188 1.03
   3  0.926  0.292  0.580- 189 1.03
   4  0.929  0.816  0.573- 190 1.03
   5  0.323  0.092  0.564- 194 1.03
   6  0.323  0.574  0.569- 195 1.02
   7  0.801  0.102  0.566- 196 1.03
   8  0.110  0.241  0.562- 183 1.02
   9  0.078  0.681  0.569- 184 1.02
  10  0.586  0.187  0.565- 185 1.02
  11  0.599  0.759  0.559- 186 1.03
  12  0.378  0.018  0.554- 194 1.03
  13  0.254  0.622  0.555- 195 1.04
  14  0.875  0.047  0.557- 196 1.03
  15  0.064  0.289  0.582- 183 1.03
  16  0.992  0.695  0.582- 184 1.03
  17  0.492  0.173  0.571- 185 1.03
  18  0.552  0.693  0.574- 186 1.03
  19  0.308  0.438  0.572- 191 1.03
  20  0.190  0.068  0.569- 192 1.03
  21  0.683  0.034  0.573- 193 1.02
  22  0.455  0.365  0.556- 187 1.03
  23  0.375  0.762  0.555- 188 1.03
  24  0.885  0.243  0.559- 189 1.02
  25  0.976  0.873  0.555- 190 1.03
  26  0.234  0.398  0.559- 191 1.02
  27  0.155  0.985  0.560- 192 1.02
  28  0.681  0.941  0.565- 193 1.03
  29  0.571  0.307  0.555- 146 1.09
  30  0.491  0.811  0.545- 147 1.09
  31  0.000  0.204  0.545- 144 1.10
  32  0.072  0.790  0.550- 145 1.09
  33  0.189  0.513  0.547- 148 1.10
  34  0.272  0.941  0.550- 149 1.09
  35  0.802  0.941  0.554- 150 1.10
  36  0.454  0.296  0.673- 205 1.02
  37  0.442  0.814  0.671- 206 1.02
  38  0.958  0.284  0.677- 207 1.02
  39  0.913  0.739  0.665- 208 1.02
  40  0.298  0.042  0.675- 209 1.01
  41  0.302  0.561  0.673- 210 1.02
  42  0.798  0.053  0.675- 211 1.02
  43  0.832  0.480  0.667- 212 1.02
  44  0.091  0.171  0.647- 197 1.02
  45  0.107  0.700  0.654- 198 1.02
  46  0.578  0.164  0.647- 199 1.02
  47  0.575  0.674  0.652- 200 1.03
  48  0.186  0.411  0.651- 201 1.03
  49  0.163  0.929  0.645- 202 1.03
  50  0.636  0.477  0.653- 203 1.02
  51  0.673  0.918  0.650- 204 1.03
  52  0.064  0.189  0.673- 197 1.02
  53  0.026  0.656  0.662- 198 1.02
  54  0.546  0.188  0.672- 199 1.02
  55  0.543  0.714  0.676- 200 1.01
  56  0.215  0.447  0.676- 201 1.01
  57  0.185  0.954  0.672- 202 1.02
  58  0.700  0.435  0.670- 203 1.02
  59  0.698  0.949  0.675- 204 1.01
  60  0.437  0.337  0.648- 205 1.02
  61  0.417  0.830  0.644- 206 1.02
  62  0.926  0.320  0.653- 207 1.02
  63  0.927  0.831  0.658- 208 1.02
  64  0.342  0.062  0.651- 209 1.03
  65  0.320  0.589  0.647- 210 1.02
  66  0.828  0.079  0.650- 211 1.03
  67  0.847  0.551  0.648- 212 1.02
  68  0.007  0.252  0.632- 151 1.09
  69  0.051  0.814  0.649- 152 1.10
  70  0.513  0.256  0.629- 153 1.10
  71  0.498  0.743  0.630- 154 1.10
  72  0.260  0.994  0.630- 156 1.09
  73  0.249  0.498  0.631- 155 1.09
  74  0.753  0.996  0.632- 158 1.09
  75  0.724  0.553  0.637- 157 1.10
  76  0.449  0.301  0.769- 221 1.02
  77  0.449  0.801  0.769- 222 1.02
  78  0.949  0.301  0.769- 223 1.02
  79  0.949  0.801  0.769- 224 1.02
  80  0.301  0.051  0.769- 225 1.02
  81  0.301  0.551  0.769- 226 1.02
  82  0.801  0.051  0.769- 227 1.02
  83  0.801  0.551  0.769- 228 1.02
  84  0.079  0.171  0.743- 213 1.02
  85  0.079  0.671  0.743- 214 1.02
  86  0.579  0.171  0.743- 215 1.02
  87  0.579  0.671  0.743- 216 1.02
  88  0.171  0.421  0.743- 217 1.02
  89  0.171  0.921  0.743- 218 1.02
  90  0.671  0.421  0.743- 219 1.02
  91  0.671  0.921  0.743- 220 1.02
  92  0.051  0.199  0.769- 213 1.02
  93  0.051  0.699  0.769- 214 1.02
  94  0.551  0.199  0.769- 215 1.02
  95  0.551  0.699  0.769- 216 1.02
  96  0.199  0.449  0.769- 217 1.02
  97  0.199  0.949  0.769- 218 1.02
  98  0.699  0.449  0.769- 219 1.02
  99  0.699  0.949  0.769- 220 1.02
 100  0.421  0.329  0.743- 221 1.02
 101  0.421  0.829  0.743- 222 1.02
 102  0.921  0.329  0.743- 223 1.02
 103  0.921  0.829  0.743- 224 1.02
 104  0.329  0.079  0.743- 225 1.02
 105  0.329  0.579  0.743- 226 1.02
 106  0.829  0.079  0.743- 227 1.02
 107  0.829  0.579  0.743- 228 1.02
 108  0.000  0.250  0.726- 161 1.09
 109  0.000  0.750  0.726- 162 1.09
 110  0.500  0.250  0.726- 159 1.09
 111  0.500  0.750  0.726- 160 1.09
 112  0.250  0.000  0.726- 163 1.09
 113  0.250  0.500  0.726- 164 1.09
 114  0.750  0.000  0.726- 165 1.09
 115  0.750  0.500  0.726- 166 1.09
 116  0.799  0.508  0.514- 173 1.10
 117  0.878  0.501  0.531- 173 1.10
 118  0.759  0.619  0.532- 174 1.09
 119  0.757  0.622  0.560- 174 1.10
 120  0.687  0.444  0.550- 175 1.10
 121  0.669  0.536  0.557- 175 1.10
 122  0.796  0.423  0.566- 176 1.10
 123  0.865  0.494  0.569- 176 1.10
 124  0.857  0.374  0.539- 177 1.10
 125  0.763  0.376  0.532- 177 1.10
 126  0.784  0.383  0.495- 178 1.10
 127  0.877  0.409  0.498- 178 1.10
 128  0.897  0.618  0.532- 179 1.10
 129  0.900  0.605  0.560- 179 1.09
 130  0.864  0.689  0.549- 179 1.10
 131  0.600  0.509  0.525- 180 1.10
 132  0.680  0.483  0.511- 180 1.10
 133  0.666  0.577  0.519- 180 1.10
 134  0.706  0.503  0.587- 181 1.09
 135  0.776  0.571  0.591- 181 1.09
 136  0.787  0.481  0.601- 181 1.10
 137  0.821  0.258  0.512- 182 1.10
 138  0.847  0.274  0.486- 182 1.10
 139  0.924  0.159  0.499- 168 1.10
 140  0.973  0.385  0.517- 169 1.10
 141  0.056  0.126  0.504- 170 1.09
 142  0.103  0.351  0.522- 171 1.09
 143  0.147  0.223  0.515- 172 1.09
 144  0.998  0.238  0.559-  31 1.10 183 1.31 189 1.31
 145  0.026  0.775  0.560-  32 1.09 184 1.31 190 1.32
 146  0.521  0.275  0.559-  29 1.09 187 1.32 185 1.32
 147  0.488  0.763  0.555-  30 1.09 186 1.31 188 1.32
 148  0.241  0.510  0.556-  33 1.10 195 1.31 191 1.32
 149  0.267  0.997  0.556-  34 1.09 194 1.31 192 1.31
 150  0.778  0.993  0.560-  35 1.10 196 1.31 193 1.32
 151  0.009  0.245  0.650-  68 1.09 197 1.31 207 1.31
 152  0.018  0.767  0.655-  69 1.10 198 1.31 208 1.31
 153  0.507  0.251  0.647-  70 1.10 205 1.31 199 1.31
 154  0.496  0.752  0.648-  71 1.10 206 1.32 200 1.32
 155  0.253  0.500  0.649-  73 1.09 201 1.31 210 1.32
 156  0.252  0.996  0.648-  72 1.09 202 1.30 209 1.31
 157  0.741  0.515  0.650-  75 1.10 203 1.31 212 1.32
 158  0.751  0.998  0.650-  74 1.09 204 1.31 211 1.32
 159  0.500  0.250  0.743- 110 1.09 221 1.31 215 1.31
 160  0.500  0.750  0.743- 111 1.09 222 1.31 216 1.31
 161  1.000  0.250  0.743- 108 1.09 223 1.31 213 1.31
 162  1.000  0.750  0.743- 109 1.09 224 1.31 214 1.31
 163  0.250  0.000  0.743- 112 1.09 225 1.31 218 1.31
 164  0.250  0.500  0.743- 113 1.09 226 1.31 217 1.31
 165  0.750  0.000  0.743- 114 1.09 227 1.31 220 1.31
 166  0.750  0.500  0.743- 115 1.09 228 1.31 219 1.31
 167  0.938  0.274  0.507- 168 1.40 169 1.41 182 1.52
 168  0.964  0.202  0.504- 139 1.10 170 1.40 167 1.40
 169  0.990  0.328  0.514- 140 1.10 171 1.40 167 1.41
 170  0.038  0.183  0.506- 141 1.09 172 1.39 168 1.40
 171  0.065  0.309  0.517- 142 1.09 169 1.40 172 1.40
 172  0.089  0.237  0.513- 143 1.09 170 1.39 171 1.40
 173  0.821  0.482  0.529- 117 1.10 116 1.10 229 1.51 177 1.52
 174  0.788  0.601  0.546- 118 1.09 119 1.10 179 1.52 229 1.52
 175  0.695  0.502  0.545- 121 1.10 120 1.10 180 1.52 229 1.53
 176  0.805  0.484  0.568- 123 1.10 122 1.10 181 1.51 229 1.53
 177  0.818  0.398  0.528- 125 1.10 124 1.10 173 1.52 178 1.54
 178  0.834  0.374  0.505- 126 1.10 127 1.10 177 1.54 182 1.54
 179  0.867  0.628  0.547- 129 1.09 128 1.10 130 1.10 174 1.52
 180  0.660  0.518  0.524- 133 1.10 131 1.10 132 1.10 175 1.52
 181  0.765  0.512  0.588- 134 1.09 135 1.09 136 1.10 176 1.51
 182  0.858  0.292  0.502- 137 1.10 138 1.10 167 1.52 178 1.54
 183  0.060  0.256  0.569-   8 1.02  15 1.03 144 1.31
 184  0.031  0.711  0.570-   9 1.02  16 1.03 145 1.31
 185  0.533  0.205  0.564-  10 1.02  17 1.03 146 1.32
 186  0.550  0.735  0.563-  11 1.03  18 1.03 147 1.31
 187  0.457  0.309  0.558-  22 1.03   1 1.03 146 1.32
 188  0.422  0.737  0.560-  23 1.03   2 1.03 147 1.32
 189  0.933  0.260  0.567-  24 1.02   3 1.03 144 1.31
 190  0.969  0.821  0.562-   4 1.03  25 1.03 145 1.32
 191  0.264  0.445  0.562-  26 1.02  19 1.03 148 1.32
 192  0.200  0.019  0.562-  27 1.02  20 1.03 149 1.31
 193  0.708  0.990  0.566-  21 1.02  28 1.03 150 1.32
 194  0.326  0.039  0.558-   5 1.03  12 1.03 149 1.31
 195  0.277  0.572  0.559-   6 1.02  13 1.04 148 1.31
 196  0.821  0.052  0.561-   7 1.03  14 1.03 150 1.31
 197  0.057  0.198  0.657-  44 1.02  52 1.02 151 1.31
 198  0.052  0.703  0.657-  53 1.02  45 1.02 152 1.31
 199  0.546  0.197  0.656-  54 1.02  46 1.02 153 1.31
 200  0.540  0.710  0.659-  55 1.01  47 1.03 154 1.32
 201  0.216  0.450  0.660-  56 1.01  48 1.03 155 1.31
 202  0.197  0.958  0.656-  57 1.02  49 1.03 156 1.30
 203  0.690  0.472  0.658-  58 1.02  50 1.02 157 1.31
 204  0.705  0.952  0.659-  59 1.01  51 1.03 158 1.31
 205  0.464  0.297  0.657-  36 1.02  60 1.02 153 1.31
 206  0.448  0.801  0.655-  37 1.02  61 1.02 154 1.32
 207  0.962  0.285  0.661-  38 1.02  62 1.02 151 1.31
 208  0.948  0.779  0.660-  63 1.02  39 1.02 152 1.31
 209  0.299  0.036  0.659-  40 1.01  64 1.03 156 1.31
 210  0.294  0.553  0.657-  41 1.02  65 1.02 155 1.32
 211  0.794  0.046  0.659-  42 1.02  66 1.03 158 1.32
 212  0.811  0.515  0.656-  67 1.02  43 1.02 157 1.32
 213  0.046  0.204  0.753-  92 1.02  84 1.02 161 1.31
 214  0.046  0.704  0.753-  93 1.02  85 1.02 162 1.31
 215  0.546  0.204  0.753-  94 1.02  86 1.02 159 1.31
 216  0.546  0.704  0.753-  95 1.02  87 1.02 160 1.31
 217  0.204  0.454  0.753-  96 1.02  88 1.02 164 1.31
 218  0.204  0.954  0.753-  97 1.02  89 1.02 163 1.31
 219  0.704  0.454  0.753-  98 1.02  90 1.02 166 1.31
 220  0.704  0.954  0.753-  99 1.02  91 1.02 165 1.31
 221  0.454  0.296  0.753-  76 1.02 100 1.02 159 1.31
 222  0.454  0.796  0.753-  77 1.02 101 1.02 160 1.31
 223  0.954  0.296  0.753-  78 1.02 102 1.02 161 1.31
 224  0.954  0.796  0.753-  79 1.02 103 1.02 162 1.31
 225  0.296  0.046  0.753-  80 1.02 104 1.02 163 1.31
 226  0.296  0.546  0.753-  81 1.02 105 1.02 164 1.31
 227  0.796  0.046  0.753-  82 1.02 106 1.02 165 1.31
 228  0.796  0.546  0.753-  83 1.02 107 1.02 166 1.31
 229  0.778  0.517  0.547- 173 1.51 174 1.52 175 1.53 176 1.53
 230  0.511  0.981  0.553- 304 3.16
 231  0.473  0.510  0.553- 305 3.13
 232  0.008  0.013  0.551- 302 3.32
 233  0.032  0.489  0.554- 303 3.12
 234  0.258  0.240  0.555- 306 3.21
 235  0.230  0.766  0.551- 307 3.28
 236  0.735  0.229  0.555- 308 3.23
 237  0.731  0.796  0.554- 309 3.26
 238  0.996  0.984  0.654- 302 3.15 310 3.18
 239  0.009  0.505  0.655- 311 3.11 303 3.20
 240  0.497  0.001  0.654- 312 3.15 304 3.20
 241  0.494  0.502  0.654- 313 3.18 305 3.22
 242  0.263  0.241  0.655- 306 3.10 314 3.11
 243  0.246  0.755  0.654- 307 3.16 315 3.20
 244  0.744  0.263  0.655- 316 3.10 308 3.11
 245  0.749  0.734  0.655- 317 3.13 309 3.16
 246  0.136  0.118  0.609- 306 3.21 302 3.22
 247  0.147  0.609  0.606- 303 3.15 307 3.20
 248  0.639  0.112  0.609- 308 3.19 304 3.29
 249  0.619  0.631  0.607- 305 3.20 309 3.31
 250  0.368  0.385  0.608- 306 3.19 305 3.19
 251  0.364  0.886  0.606- 304 3.16 307 3.19
 252  0.887  0.366  0.612- 308 3.28 303 3.34
 253  0.862  0.891  0.606- 309 3.14 302 3.21
 254  0.127  0.369  0.611- 306 3.21 303 3.21
 255  0.116  0.873  0.606- 307 3.14 302 3.23
 256  0.615  0.367  0.602- 305 3.18 308 3.19
 257  0.616  0.863  0.612- 309 3.13 304 3.18
 258  0.396  0.140  0.604- 306 3.22 304 3.25
 259  0.379  0.633  0.607- 305 3.26 307 3.31
 260  0.882  0.134  0.612- 302 3.14 308 3.24
 261  0.902  0.648  0.610- 303 3.31 309 3.40
 262  0.000  0.000  0.755- 310 3.13 318 3.27
 263  0.000  0.500  0.755- 311 3.13 319 3.27
 264  0.500  0.000  0.755- 312 3.13 320 3.27
 265  0.500  0.500  0.755- 313 3.13 321 3.27
 266  0.250  0.250  0.755- 314 3.13 322 3.27
 267  0.250  0.750  0.755- 315 3.13 323 3.27
 268  0.750  0.250  0.755- 316 3.13 324 3.27
 269  0.750  0.750  0.755- 317 3.13 325 3.27
 270  0.136  0.114  0.705- 310 3.20 314 3.20
 271  0.136  0.614  0.705- 311 3.20 315 3.20
 272  0.636  0.114  0.705- 312 3.20 316 3.20
 273  0.636  0.614  0.705- 313 3.20 317 3.20
 274  0.364  0.386  0.705- 313 3.20 314 3.20
 275  0.364  0.886  0.705- 312 3.20 315 3.20
 276  0.864  0.386  0.705- 311 3.20 316 3.20
 277  0.864  0.886  0.705- 310 3.20 317 3.20
 278  0.114  0.364  0.705- 314 3.21 311 3.21
 279  0.114  0.864  0.705- 315 3.21 310 3.21
 280  0.614  0.364  0.705- 316 3.21 313 3.21
 281  0.614  0.864  0.705- 317 3.21 312 3.21
 282  0.386  0.136  0.705- 314 3.21 312 3.21
 283  0.386  0.636  0.705- 315 3.21 313 3.21
 284  0.886  0.136  0.705- 316 3.21 310 3.21
 285  0.886  0.636  0.705- 317 3.21 311 3.21
 286  0.135  0.115  0.801- 318 3.22 322 3.22
 287  0.135  0.615  0.801- 319 3.22 323 3.22
 288  0.635  0.115  0.801- 320 3.22 324 3.22
 289  0.635  0.615  0.801- 321 3.22 325 3.22
 290  0.365  0.385  0.801- 321 3.22 322 3.22
 291  0.365  0.885  0.801- 320 3.22 323 3.22
 292  0.865  0.385  0.801- 319 3.22 324 3.22
 293  0.865  0.885  0.801- 318 3.22 325 3.22
 294  0.115  0.365  0.801- 319 3.23 322 3.23
 295  0.115  0.865  0.801- 318 3.23 323 3.23
 296  0.615  0.365  0.801- 321 3.23 324 3.23
 297  0.615  0.865  0.801- 320 3.23 325 3.23
 298  0.385  0.135  0.801- 320 3.23 322 3.23
 299  0.385  0.635  0.801- 321 3.23 323 3.23
 300  0.885  0.135  0.801- 318 3.23 324 3.23
 301  0.885  0.635  0.801- 319 3.23 325 3.23
 302  0.997  0.007  0.604- 260 3.14 238 3.15 253 3.21 246 3.22 255 3.23 232 3.32
 303  0.010  0.501  0.604- 233 3.12 247 3.15 239 3.20 254 3.21 261 3.31 252 3.34
 304  0.502  0.994  0.603- 230 3.16 251 3.16 257 3.18 240 3.20 258 3.25 248 3.29
 305  0.500  0.500  0.603- 231 3.13 256 3.18 250 3.19 249 3.20 241 3.22 259 3.26
 306  0.255  0.248  0.606- 242 3.10 250 3.19 234 3.21 246 3.21 254 3.21 258 3.22
 307  0.244  0.756  0.603- 255 3.14 243 3.16 251 3.19 247 3.20 235 3.28 259 3.31
 308  0.748  0.251  0.606- 244 3.11 248 3.19 256 3.19 236 3.23 260 3.24 252 3.28
 309  0.751  0.758  0.605- 257 3.13 253 3.14 245 3.16 237 3.26 249 3.31 261 3.40
 310  0.000  0.000  0.705- 262 3.13 238 3.18 270 3.20 277 3.20 279 3.21 284 3.21
 311  0.000  0.500  0.705- 239 3.11 263 3.13 271 3.20 276 3.20 278 3.21 285 3.21
 312  0.500  0.000  0.705- 264 3.13 240 3.15 272 3.20 275 3.20 281 3.21 282 3.21
 313  0.500  0.500  0.705- 265 3.13 241 3.18 273 3.20 274 3.20 280 3.21 283 3.21
 314  0.250  0.250  0.705- 242 3.11 266 3.13 270 3.20 274 3.20 282 3.21 278 3.21
 315  0.250  0.750  0.705- 267 3.13 243 3.20 271 3.20 275 3.20 283 3.21 279 3.21
 316  0.750  0.250  0.705- 244 3.10 268 3.13 272 3.20 276 3.20 284 3.21 280 3.21
 317  0.750  0.750  0.705- 245 3.13 269 3.13 273 3.20 277 3.20 285 3.21 281 3.21
 318  0.000  0.000  0.807- 286 3.22 293 3.22 300 3.23 295 3.23 262 3.27
 319  0.000  0.500  0.807- 287 3.22 292 3.22 301 3.23 294 3.23 263 3.27
 320  0.500  0.000  0.807- 288 3.22 291 3.22 298 3.23 297 3.23 264 3.27
 321  0.500  0.500  0.807- 289 3.22 290 3.22 299 3.23 296 3.23 265 3.27
 322  0.250  0.250  0.807- 290 3.22 286 3.22 294 3.23 298 3.23 266 3.27
 323  0.250  0.750  0.807- 291 3.22 287 3.22 299 3.23 295 3.23 267 3.27
 324  0.750  0.250  0.807- 292 3.22 288 3.22 296 3.23 300 3.23 268 3.27
 325  0.750  0.750  0.807- 293 3.22 289 3.22 297 3.23 301 3.23 269 3.27
 

IMPORTANT INFORMATION: All symmetrisations will be switched off!
NOSYMM: (Re-)initialisation of all symmetry stuff for point group C_1.


----------------------------------------------------------------------------------------

                                     Primitive cell                                     

  volume of cell :   20385.2105

  direct lattice vectors                    reciprocal lattice vectors
    18.060800552  0.000000000  0.000000000     0.055368531  0.000015077 -0.000000000
    -0.004918649 18.062799454  0.000000000     0.000000000  0.055362404  0.000000000
     0.000000000  0.000000000 62.487499237     0.000000000 -0.000000000  0.016003201

  length of vectors
    18.060800552 18.062800123 62.487499237     0.055368533  0.055362404  0.016003201

  position of ions in fractional coordinates (direct lattice)
     0.407859399  0.282991437  0.562479996
     0.415250641  0.696025516  0.571723055
     0.926053513  0.292464480  0.579973607
     0.928581684  0.815736070  0.572997785
     0.323441647  0.091974034  0.563597040
     0.323165229  0.574014407  0.568833561
     0.801027393  0.102276872  0.565886683
     0.110205290  0.241437269  0.562047719
     0.078235530  0.681331651  0.569433046
     0.585934988  0.186964255  0.564961815
     0.599465917  0.759402347  0.558847494
     0.377964357  0.017762266  0.554251177
     0.254450725  0.622459097  0.554762937
     0.875328757  0.046687953  0.556510723
     0.063794720  0.288546124  0.582185170
     0.992489139  0.694589207  0.581675363
     0.491699270  0.172903250  0.570556562
     0.551804859  0.693103004  0.573789386
     0.308499809  0.437806312  0.572141413
     0.189641888  0.068485656  0.569090143
     0.682537903  0.033752139  0.573365229
     0.454918752  0.364865837  0.555529142
     0.374505578  0.762047353  0.554864459
     0.884992166  0.243449943  0.559193633
     0.975546885  0.873265028  0.555321581
     0.234386686  0.397599779  0.558603671
     0.155135429  0.984718921  0.560025220
     0.680643283  0.940577519  0.565101553
     0.570897067  0.307374392  0.554964027
     0.491438247  0.811133958  0.544930099
     0.000045831  0.203573990  0.545047615
     0.071586971  0.790058963  0.549750826
     0.189478636  0.512696105  0.546527708
     0.272491772  0.940654920  0.550175838
     0.801925394  0.941047326  0.554042883
     0.454290725  0.295520411  0.672841852
     0.442041375  0.814141527  0.670692252
     0.958427908  0.283687838  0.677061019
     0.913480310  0.738994715  0.665365869
     0.297842463  0.042249200  0.674819481
     0.301540330  0.560544076  0.673342196
     0.797831634  0.052509414  0.675334172
     0.832398243  0.480356773  0.667040032
     0.091097576  0.171035954  0.646982615
     0.107477755  0.699910001  0.653973942
     0.577673976  0.163686487  0.646572010
     0.574608538  0.673880364  0.651796078
     0.185813495  0.411409943  0.651300556
     0.163263395  0.929296933  0.645213584
     0.635999966  0.477345456  0.653120867
     0.673060313  0.918240566  0.649905929
     0.063552090  0.188699755  0.673137443
     0.025958792  0.656309236  0.662028166
     0.545807084  0.187712847  0.671876937
     0.543298519  0.713636612  0.675608458
     0.214613563  0.446737994  0.675892267
     0.185129957  0.953554795  0.671540139
     0.699520938  0.435448129  0.670271208
     0.697673538  0.949311552  0.675309875
     0.437391972  0.337468502  0.648278712
     0.416975237  0.829538974  0.644043428
     0.926483072  0.319737027  0.652897555
     0.926884473  0.830642921  0.658174368
     0.341796475  0.062206729  0.650970595
     0.319857386  0.589171413  0.647215083
     0.827643141  0.079064698  0.649833527
     0.846823997  0.550871959  0.648342506
     0.006515671  0.252251373  0.632170998
     0.050617805  0.814148707  0.649137160
     0.512825587  0.256424081  0.629397677
     0.497758329  0.743169165  0.630352946
     0.259737780  0.994137952  0.630417656
     0.249111830  0.497663121  0.631477866
     0.752572112  0.996211977  0.632199629
     0.724191298  0.553390832  0.637405382
     0.448745018  0.301283966  0.768889017
     0.448745007  0.801283913  0.768889017
     0.948744965  0.301283966  0.768889017
     0.948745007  0.801283913  0.768889017
     0.301275995  0.051294496  0.768872961
     0.301276011  0.551294499  0.768872961
     0.801275943  0.051294496  0.768872961
     0.801275984  0.551294499  0.768872961
     0.078771004  0.171180501  0.743441971
     0.078771006  0.671180448  0.743441971
     0.578771004  0.171180501  0.743441971
     0.578770992  0.671180448  0.743441971
     0.171199499  0.421174482  0.743421032
     0.171199501  0.921174508  0.743421032
     0.671199512  0.421174482  0.743421032
     0.671199501  0.921174508  0.743421032
     0.051256000  0.198714991  0.768889017
     0.051256002  0.698714925  0.768889017
     0.551256027  0.198714991  0.768889017
     0.551256016  0.698714925  0.768889017
     0.198723491  0.448703970  0.768872046
     0.198723493  0.948703970  0.768872046
     0.698723518  0.448703970  0.768872046
     0.698723507  0.948703970  0.768872046
     0.421231519  0.328817467  0.743441971
     0.421231508  0.828817440  0.743441971
     0.921231466  0.328817467  0.743441971
     0.921231508  0.828817440  0.743441971
     0.328800503  0.078824997  0.743421032
     0.328800492  0.578824964  0.743421032
     0.828800477  0.078824997  0.743421032
     0.828800519  0.578824964  0.743421032
     0.000003500  0.250001478  0.725821992
     0.000003500  0.750001452  0.725821992
     0.500003506  0.250001478  0.725821992
     0.500003495  0.750001452  0.725821992
     0.250000502  0.000000000  0.725803983
     0.250000517  0.500000000  0.725803983
     0.750000502  0.000000000  0.725803983
     0.750000490  0.500000000  0.725803983
     0.799356642  0.508303864  0.514065405
     0.878323035  0.500582042  0.530909716
     0.759061529  0.619057553  0.532050753
     0.757199943  0.621976315  0.560286442
     0.687229815  0.444022292  0.549856743
     0.668883709  0.536352327  0.557490167
     0.796341141  0.423393226  0.566387271
     0.864673256  0.493760367  0.568791072
     0.857278481  0.373907602  0.538969434
     0.763076495  0.376487905  0.532250622
     0.784425916  0.382872969  0.494935053
     0.877470485  0.409126627  0.497507039
     0.896894848  0.617741570  0.531569638
     0.899603071  0.605460349  0.559855020
     0.864287896  0.688619740  0.548856299
     0.600433171  0.509083634  0.525282675
     0.680423938  0.482697929  0.510647882
     0.666488523  0.576619815  0.518870565
     0.705690235  0.502517394  0.587337567
     0.776495350  0.570747760  0.590782104
     0.786632857  0.481044199  0.601440486
     0.820985086  0.257820053  0.512250100
     0.847336262  0.274064322  0.485760305
     0.924445748  0.159447452  0.498581900
     0.973421312  0.384591349  0.517265630
     0.055851871  0.126328192  0.503738907
     0.103097732  0.351216100  0.522184827
     0.147195896  0.222554249  0.515333359
     0.997707328  0.238308081  0.559482753
     0.025822839  0.775183527  0.560378806
     0.521497161  0.275294086  0.558929359
     0.487642275  0.762935516  0.555458266
     0.241359390  0.510041278  0.555623033
     0.267077223  0.997098020  0.556330267
     0.777995905  0.992703852  0.560085840
     0.008647278  0.245336669  0.649502528
     0.018280056  0.767011763  0.655221690
     0.507465788  0.250698250  0.646824746
     0.495713570  0.751528625  0.647752178
     0.252886502  0.499928301  0.648940465
     0.251869709  0.995982041  0.647723547
     0.740858390  0.514692650  0.650082112
     0.750525897  0.998062796  0.649695865
     0.499988984  0.249994984  0.743277021
     0.499989025  0.749994958  0.743277021
     0.999988984  0.249994984  0.743277021
     0.999989025  0.749994958  0.743277021
     0.250000502  0.000001000  0.743255960
     0.250000517  0.500001003  0.743255960
     0.750000502  0.000001000  0.743255960
     0.750000491  0.500001003  0.743255960
     0.938457439  0.274446841  0.507062753
     0.963755375  0.202202161  0.503635462
     0.990391024  0.327682527  0.513738374
     0.038156630  0.183210299  0.506292579
     0.064740111  0.308697080  0.516597527
     0.089397794  0.236609895  0.512596727
     0.820574318  0.482307437  0.528804193
     0.788179501  0.600776506  0.546466356
     0.694948861  0.502040948  0.545159637
     0.804716631  0.483509166  0.568085670
     0.817534954  0.398189081  0.527677686
     0.834261091  0.373685878  0.504623331
     0.867446650  0.628488542  0.546587474
     0.660121273  0.518498203  0.523550456
     0.765382702  0.512254347  0.587686880
     0.857676873  0.292242888  0.502327156
     0.060429893  0.256453331  0.568615683
     0.030519053  0.711485528  0.570313899
     0.532613577  0.205307787  0.563890861
     0.549794581  0.734617521  0.562519982
     0.456793213  0.308592884  0.558100274
     0.421755209  0.737188030  0.560460304
     0.932603734  0.259673912  0.566547032
     0.969314904  0.820911829  0.561591451
     0.263574320  0.444515528  0.562265658
     0.200161558  0.018760522  0.561680641
     0.707969150  0.990330853  0.565826795
     0.326156839  0.039069769  0.557597916
     0.276656412  0.571950492  0.559491239
     0.820551201  0.051525186  0.561062170
     0.057128851  0.198475184  0.657228988
     0.052236217  0.703464131  0.657259390
     0.545791321  0.197305939  0.655868670
     0.540075543  0.710319068  0.659484871
     0.215943410  0.449947039  0.659697744
     0.196830553  0.957979427  0.655627777
     0.689593765  0.472286433  0.658293471
     0.705033438  0.952355907  0.659233661
     0.463795006  0.297310306  0.656833645
     0.448467520  0.801074254  0.654911691
     0.961941223  0.284967496  0.660817352
     0.948219877  0.778798164  0.659647074
     0.298866821  0.035832412  0.658686921
     0.293820189  0.552988408  0.657291134
     0.794159029  0.046452673  0.659155521
     0.811141530  0.515212549  0.655681987
     0.045862501  0.204119496  0.752725994
     0.045862500  0.704119456  0.752725994
     0.545862507  0.204119496  0.752725994
     0.545862496  0.704119456  0.752725994
     0.204119002  0.454101003  0.752704994
     0.204118991  0.954100951  0.752704994
     0.704118976  0.454101003  0.752704994
     0.704118964  0.954100951  0.752704994
     0.454140018  0.295888490  0.752726971
     0.454140007  0.795888516  0.752726971
     0.954140018  0.295888490  0.752726971
     0.954140060  0.795888516  0.752726971
     0.295882492  0.045900498  0.752704994
     0.295882481  0.545900528  0.752704994
     0.795882439  0.045900498  0.752704994
     0.795882481  0.545900528  0.752704994
     0.777811575  0.517199274  0.546998628
     0.511146997  0.980840572  0.552928769
     0.473279122  0.509880298  0.553185107
     0.007903084  0.012830056  0.551130558
     0.031690691  0.489387820  0.554412830
     0.257806828  0.240358031  0.554507637
     0.230014373  0.766397462  0.550854807
     0.734815585  0.229216448  0.554652991
     0.730609350  0.795528541  0.554190129
     0.996167530  0.983850080  0.654177169
     0.008926528  0.504606705  0.655117543
     0.497417363  0.001494708  0.654447487
     0.493918880  0.501786674  0.654032975
     0.263034395  0.240996170  0.655286705
     0.245846195  0.755243525  0.653624935
     0.744102451  0.263496994  0.655367776
     0.749093917  0.734453004  0.654955950
     0.135722833  0.117799951  0.608951265
     0.147290090  0.608510261  0.606232826
     0.638932009  0.112328142  0.608794984
     0.618559547  0.630560377  0.607486251
     0.367555629  0.384645810  0.608105943
     0.364315077  0.885661665  0.605582916
     0.887334426  0.365600993  0.611647606
     0.862361249  0.890834308  0.605999137
     0.126556692  0.369230016  0.611214536
     0.115541627  0.872681719  0.605753543
     0.614967541  0.366899605  0.601732109
     0.615572967  0.863187266  0.612151063
     0.396020839  0.139593892  0.603708151
     0.379081232  0.633364832  0.607422884
     0.882172385  0.134027021  0.612222428
     0.902132620  0.647517943  0.610155852
     0.000000000  0.000000000  0.754927972
     0.000000000  0.500000000  0.754927972
     0.500000000  0.000000000  0.754927972
     0.499999989  0.500000000  0.754927972
     0.250000496  0.250000000  0.754939022
     0.250000511  0.749999974  0.754939022
     0.750000470  0.250000000  0.754939022
     0.750000458  0.749999974  0.754939022
     0.135790500  0.114209997  0.704782994
     0.135790502  0.614209984  0.704782994
     0.635790447  0.114209997  0.704782994
     0.635790488  0.614209984  0.704782994
     0.364209516  0.385789989  0.704782994
     0.364209505  0.885789963  0.704782994
     0.864209542  0.385789989  0.704782994
     0.864209531  0.885789963  0.704782994
     0.114217990  0.364218986  0.704780979
     0.114217992  0.864218986  0.704780979
     0.614218004  0.364218986  0.704780979
     0.614217992  0.864218986  0.704780979
     0.385782012  0.135781489  0.704782017
     0.385782001  0.635781489  0.704782017
     0.885781985  0.135781489  0.704782017
     0.885782027  0.635781489  0.704782017
     0.134667000  0.115332001  0.801256025
     0.134666989  0.615331988  0.801256025
     0.634666987  0.115332001  0.801256025
     0.634666976  0.615331988  0.801256025
     0.365333002  0.384667985  0.801256025
     0.365332990  0.884667959  0.801256025
     0.865332949  0.384667985  0.801256025
     0.865332938  0.884667959  0.801256025
     0.115328503  0.365337004  0.801264999
     0.115328505  0.865336978  0.801264999
     0.615328503  0.365337004  0.801264999
     0.615328492  0.865336978  0.801264999
     0.384671513  0.134662996  0.801264999
     0.384671501  0.634662970  0.801264999
     0.884671486  0.134662996  0.801264999
     0.884671528  0.634662970  0.801264999
     0.997411051  0.006554152  0.604182245
     0.009916381  0.501163186  0.603841784
     0.501667933  0.993896141  0.603298218
     0.499759716  0.500131044  0.602540071
     0.255410072  0.248488243  0.605763799
     0.244317417  0.756468431  0.603067459
     0.747857490  0.251160705  0.605754459
     0.750713354  0.757542442  0.604859505
     0.000000500  0.000000500  0.704828963
     0.000000500  0.500000475  0.704828963
     0.500000475  0.000000500  0.704828963
     0.500000464  0.500000475  0.704828963
     0.249999994  0.249999472  0.704824995
     0.250000010  0.749999498  0.704824995
     0.749999994  0.249999472  0.704824995
     0.749999983  0.749999498  0.704824995
     0.000000000  0.000000000  0.807317968
     0.000000000  0.500000000  0.807317968
     0.500000000  0.000000000  0.807317968
     0.499999989  0.500000000  0.807317968
     0.249999994  0.250000000  0.807317968
     0.250000010  0.749999974  0.807317968
     0.749999994  0.250000000  0.807317968
     0.749999983  0.749999974  0.807317968

  ion indices of the primitive-cell ions
   primitive index   ion index
                 1           1
                 2           2
                 3           3
                 4           4
                 5           5
                 6           6
                 7           7
                 8           8
                 9           9
                10          10
                11          11
                12          12
                13          13
                14          14
                15          15
                16          16
                17          17
                18          18
                19          19
                20          20
                21          21
                22          22
                23          23
                24          24
                25          25
                26          26
                27          27
                28          28
                29          29
                30          30
                31          31
                32          32
                33          33
                34          34
                35          35
                36          36
                37          37
                38          38
                39          39
                40          40
                41          41
                42          42
                43          43
                44          44
                45          45
                46          46
                47          47
                48          48
                49          49
                50          50
                51          51
                52          52
                53          53
                54          54
                55          55
                56          56
                57          57
                58          58
                59          59
                60          60
                61          61
                62          62
                63          63
                64          64
                65          65
                66          66
                67          67
                68          68
                69          69
                70          70
                71          71
                72          72
                73          73
                74          74
                75          75
                76          76
                77          77
                78          78
                79          79
                80          80
                81          81
                82          82
                83          83
                84          84
                85          85
                86          86
                87          87
                88          88
                89          89
                90          90
                91          91
                92          92
                93          93
                94          94
                95          95
                96          96
                97          97
                98          98
                99          99
               100         100
               101         101
               102         102
               103         103
               104         104
               105         105
               106         106
               107         107
               108         108
               109         109
               110         110
               111         111
               112         112
               113         113
               114         114
               115         115
               116         116
               117         117
               118         118
               119         119
               120         120
               121         121
               122         122
               123         123
               124         124
               125         125
               126         126
               127         127
               128         128
               129         129
               130         130
               131         131
               132         132
               133         133
               134         134
               135         135
               136         136
               137         137
               138         138
               139         139
               140         140
               141         141
               142         142
               143         143
               144         144
               145         145
               146         146
               147         147
               148         148
               149         149
               150         150
               151         151
               152         152
               153         153
               154         154
               155         155
               156         156
               157         157
               158         158
               159         159
               160         160
               161         161
               162         162
               163         163
               164         164
               165         165
               166         166
               167         167
               168         168
               169         169
               170         170
               171         171
               172         172
               173         173
               174         174
               175         175
               176         176
               177         177
               178         178
               179         179
               180         180
               181         181
               182         182
               183         183
               184         184
               185         185
               186         186
               187         187
               188         188
               189         189
               190         190
               191         191
               192         192
               193         193
               194         194
               195         195
               196         196
               197         197
               198         198
               199         199
               200         200
               201         201
               202         202
               203         203
               204         204
               205         205
               206         206
               207         207
               208         208
               209         209
               210         210
               211         211
               212         212
               213         213
               214         214
               215         215
               216         216
               217         217
               218         218
               219         219
               220         220
               221         221
               222         222
               223         223
               224         224
               225         225
               226         226
               227         227
               228         228
               229         229
               230         230
               231         231
               232         232
               233         233
               234         234
               235         235
               236         236
               237         237
               238         238
               239         239
               240         240
               241         241
               242         242
               243         243
               244         244
               245         245
               246         246
               247         247
               248         248
               249         249
               250         250
               251         251
               252         252
               253         253
               254         254
               255         255
               256         256
               257         257
               258         258
               259         259
               260         260
               261         261
               262         262
               263         263
               264         264
               265         265
               266         266
               267         267
               268         268
               269         269
               270         270
               271         271
               272         272
               273         273
               274         274
               275         275
               276         276
               277         277
               278         278
               279         279
               280         280
               281         281
               282         282
               283         283
               284         284
               285         285
               286         286
               287         287
               288         288
               289         289
               290         290
               291         291
               292         292
               293         293
               294         294
               295         295
               296         296
               297         297
               298         298
               299         299
               300         300
               301         301
               302         302
               303         303
               304         304
               305         305
               306         306
               307         307
               308         308
               309         309
               310         310
               311         311
               312         312
               313         313
               314         314
               315         315
               316         316
               317         317
               318         318
               319         319
               320         320
               321         321
               322         322
               323         323
               324         324
               325         325

----------------------------------------------------------------------------------------

 
 
 KPOINTS: Automatic Mesh                          

Automatic generation of k-mesh.
 Grid dimensions read from file:
 generate k-points for:    3    3    1

 Generating k-lattice:

  Cartesian coordinates                     Fractional coordinates (reciprocal lattice)
     0.018456177  0.000005026 -0.000000000     0.333333333  0.000000000  0.000000000
     0.000000000  0.018454135  0.000000000     0.000000000  0.333333333  0.000000000
     0.000000000 -0.000000000  0.016003201     0.000000000  0.000000000  1.000000000

  Length of vectors
     0.018456178  0.018454135  0.016003201

  Shift w.r.t. Gamma in fractional coordinates (k-lattice)
     0.000000000  0.000000000  0.000000000

 
 Subroutine IBZKPT returns following result:
 ===========================================
 
 Found      5 irreducible k-points:
 
 Following reciprocal coordinates:
            Coordinates               Weight
  0.000000  0.000000  0.000000      1.000000
  0.333333  0.000000  0.000000      2.000000
  0.000000  0.333333  0.000000      2.000000
  0.333333  0.333333  0.000000      2.000000
 -0.333333  0.333333  0.000000      2.000000
 
 Following cartesian coordinates:
            Coordinates               Weight
  0.000000  0.000000  0.000000      1.000000
  0.018456  0.000005  0.000000      2.000000
  0.000000  0.018454  0.000000      2.000000
  0.018456  0.018459  0.000000      2.000000
 -0.018456  0.018449  0.000000      2.000000
 


--------------------------------------------------------------------------------------------------------




 Dimension of arrays:
   k-points           NKPTS =      5   k-points in BZ     NKDIM =      5   number of bands    NBANDS=    732
   number of dos      NEDOS =    301   number of ions     NIONS =    325
   non local maximal  LDIM  =      5   non local SUM 2l+1 LMDIM =     13
   total plane-waves  NPLWV = ******
   max r-space proj   IRMAX =   3336   max aug-charges    IRDMAX=  19845
   dimension x,y,z NGX =   100 NGY =  100 NGZ =  350
   dimension x,y,z NGXF=   200 NGYF=  200 NGZF=  700
   support grid    NGXF=   200 NGYF=  200 NGZF=  700
   ions per type =             143  39  47  72  24
   NGX,Y,Z   is equivalent  to a cutoff of   9.20,  9.20,  9.31 a.u.
   NGXF,Y,Z  is equivalent  to a cutoff of  18.41, 18.41, 18.62 a.u.

 SYSTEM =  PSC                                     
 POSCAR =   H  C  N  I Pb                          

 Startparameter for this run:
   NWRITE =      2    write-flag & timer
   PREC   = normal    normal or accurate (medium, high low for compatibility)
   ISTART =      0    job   : 0-new  1-cont  2-samecut
   ICHARG =      1    charge: 1-file 2-atom 10-const
   ISPIN  =      1    spin polarized calculation?
   LNONCOLLINEAR =      F non collinear calculations
   LSORBIT =      F    spin-orbit coupling
   INIWAV =      1    electr: 0-lowe 1-rand  2-diag
   LASPH  =      F    aspherical Exc in radial PAW
 Electronic Relaxation 1
   ENCUT  =  500.0 eV  36.75 Ry    6.06 a.u.  32.93 32.93113.93*2*pi/ulx,y,z
   ENINI  =  500.0     initial cutoff
   ENAUG  =  644.9 eV  augmentation charge cutoff
   NELM   =    600;   NELMIN=  2; NELMDL=  0     # of ELM steps 
   EDIFF  = 0.1E-03   stopping-criterion for ELM
   LREAL  =      T    real-space projection
   NLSPLINE    = F    spline interpolate recip. space projectors
   LCOMPAT=      F    compatible to vasp.4.4
   GGA_COMPAT  = F    GGA compatible to vasp.4.4-vasp.4.6
   LMAXPAW     = -100 max onsite density
   LMAXMIX     =    2 max onsite mixed and CHGCAR
   VOSKOWN=      0    Vosko Wilk Nusair interpolation
   ROPT   =   -0.00050  -0.00050  -0.00050  -0.00050
   ROPT   =   -0.00050
 Ionic relaxation
   EDIFFG = 0.1E-02   stopping-criterion for IOM
   NSW    =      0    number of steps for IOM
   NBLOCK =      1;   KBLOCK =      1    inner block; outer block 
   IBRION =     -1    ionic relax: 0-MD 1-quasi-New 2-CG
   NFREE  =      0    steps in history (QN), initial steepest desc. (CG)
   ISIF   =      2    stress and relaxation
   IWAVPR =     10    prediction:  0-non 1-charg 2-wave 3-comb
   ISYM   =      0    0-nonsym 1-usesym 2-fastsym
   LCORR  =      T    Harris-Foulkes like correction to forces

   POTIM  = 0.5000    time-step for ionic-motion
   TEIN   =    0.0    initial temperature
   TEBEG  =    0.0;   TEEND  =   0.0 temperature during run
   SMASS  =  -3.00    Nose mass-parameter (am)
   estimated Nose-frequenzy (Omega)   =  0.10E-29 period in steps = 0.13E+47 mass=  -0.745E-26a.u.
   SCALEE = 1.0000    scale energy and forces
   NPACO  =    256;   APACO  = 16.0  distance and # of slots for P.C.
   PSTRESS=    0.0 pullay stress

  Mass of Ions in am
   POMASS =   1.00 12.01 14.00126.90207.20
  Ionic Valenz
   ZVAL   =   1.00  4.00  5.00  7.00  4.00
  Atomic Wigner-Seitz radii
   RWIGS  =  -1.00 -1.00 -1.00 -1.00 -1.00
  virtual crystal weights 
   VCA    =   1.00  1.00  1.00  1.00  1.00
   NELECT =    1134.0000    total number of electrons
   NUPDOWN=      -1.0000    fix difference up-down

 DOS related values:
   EMIN   =  10.00;   EMAX   =-10.00  energy-range for DOS
   EFERMI =   0.00
   ISMEAR =     0;   SIGMA  =   0.05  broadening in eV -4-tet -1-fermi 0-gaus

 Electronic relaxation 2 (details)
   IALGO  =     38    algorithm
   LDIAG  =      T    sub-space diagonalisation (order eigenvalues)
   LSUBROT=      F    optimize rotation matrix (better conditioning)
   TURBO    =      0    0=normal 1=particle mesh
   IRESTART =      0    0=no restart 2=restart with 2 vectors
   NREBOOT  =      0    no. of reboots
   NMIN     =      0    reboot dimension
   EREF     =   0.00    reference energy to select bands
   IMIX   =      4    mixing-type and parameters
     AMIX     =   0.40;   BMIX     =  0.01
     AMIX_MAG =   1.60;   BMIX_MAG =  0.01
     AMIN     =   0.01
     WC   =   100.;   INIMIX=   1;  MIXPRE=   1;  MAXMIX= -45

 Intra band minimization:
   WEIMIN = 0.0000     energy-eigenvalue tresh-hold
   EBREAK =  0.34E-07  absolut break condition
   DEPER  =   0.30     relativ break condition  

   TIME   =   0.40     timestep for ELM

  volume/ion in A,a.u.               =      62.72       423.28
  Fermi-wavevector in a.u.,A,eV,Ry     =   0.624944  1.180972  5.313816  0.390554
  Thomas-Fermi vector in A             =   1.685677
 
 Write flags
   LWAVE        =      F    write WAVECAR
   LDOWNSAMPLE  =      F    k-point downsampling of WAVECAR
   LCHARG       =      T    write CHGCAR
   LVTOT        =      T    write LOCPOT, total local potential
   LVHAR        =      F    write LOCPOT, Hartree potential only
   LELF         =      F    write electronic localiz. function (ELF)
   LORBIT       =      0    0 simple, 1 ext, 2 COOP (PROOUT), +10 PAW based schemes


 Dipole corrections
   LMONO  =      F    monopole corrections only (constant potential shift)
   LDIPOL =      T    correct potential (dipole corrections)
   IDIPOL =      3    1-x, 2-y, 3-z, 4-all directions 
   EPSILON=  1.0000000 bulk dielectric constant

 Exchange correlation treatment:
   GGA     =    --    GGA type
   LEXCH   =     8    internal setting for exchange type
   VOSKOWN=      0    Vosko Wilk Nusair interpolation
   LHFCALC =     F    Hartree Fock is set to
   LHFONE  =     F    Hartree Fock one center treatment
   AEXX    =    0.0000 exact exchange contribution

 Linear response parameters
   LEPSILON=     F    determine dielectric tensor
   LRPA    =     F    only Hartree local field effects (RPA)
   LNABLA  =     F    use nabla operator in PAW spheres
   LVEL    =     F    velocity operator in full k-point grid
   LINTERFAST=   F  fast interpolation
   KINTER  =     0    interpolate to denser k-point grid
   CSHIFT  =0.1000    complex shift for real part using Kramers Kronig
   OMEGAMAX=  -1.0    maximum frequency
   DEG_THRESHOLD= 0.2000000E-02 threshold for treating states as degnerate
   RTIME   =   -0.100 relaxation time in fs
  (WPLASMAI=    0.000 imaginary part of plasma frequency in eV, 0.658/RTIME)
   DFIELD  = 0.0000000 0.0000000 0.0000000 field for delta impulse in time
 
 Orbital magnetization related:
   ORBITALMAG=     F  switch on orbital magnetization
   LCHIMAG   =     F  perturbation theory with respect to B field
   DQ        =  0.001000  dq finite difference perturbation B field
   LLRAUG    =     F  two centre corrections for induced B field



--------------------------------------------------------------------------------------------------------


 Static calculation
 charge density and potential will be updated during run
 non-spin polarized calculation
 Variant of blocked Davidson
 Davidson routine will perform the subspace rotation
 perform sub-space diagonalisation
    after iterative eigenvector-optimisation
 modified Broyden-mixing scheme, WC =      100.0
 initial mixing is a Kerker type mixing with AMIX =  0.4000 and BMIX =      0.0100
 Hartree-type preconditioning will be used
 using additional bands           165
 real space projection scheme for non local part
[...]
     13.54561      0.00000     45.35368         0.005119     -0.007338      0.012363
     13.54315      9.03140     45.35368        -0.004617      0.010452     -0.005050
     14.43452      9.18139     32.12266         0.019110     -0.117779      0.098252
     15.86075      9.04191     33.17522        -0.083986     -0.085747     -0.019684
     13.70621     11.18191     33.24652         0.012636      0.120193     -0.009834
     13.67258     11.23463     35.01090         0.052344      0.019088     -0.074380
     12.40974      8.02029     34.35917        -0.063463     -0.003409     -0.028947
     12.07794      9.68802     34.83617        -0.039578     -0.013674      0.016649
     14.38048      7.64767     35.39212         0.016645      0.149935      0.032472
     15.61426      8.91869     35.54233        -0.025925     -0.029119     -0.051537
     15.48130      6.75382     33.67885         0.075136      0.019841     -0.034232
     13.77992      6.80043     33.25901        -0.047965     -0.025792      0.016175
     14.16548      6.91576     30.92725        -0.099039      0.028409     -0.069960
     15.84581      7.38997     31.08797         0.000507      0.024278      0.031809
     16.19560     11.15814     33.21646         0.007602     -0.005797      0.009836
     16.24457     10.93631     34.98394         0.053507     -0.000799      0.012787
     15.60634     12.43840     34.29666         0.007022      0.058125     -0.026931
     10.84180      9.19548     32.82360        -0.051929     -0.054956      0.016954
     12.28663      8.71888     31.90911         0.026260     -0.011806     -0.000955
     12.03448     10.41537     32.42292         0.034897      0.030650     -0.070453
     12.74286      9.07687     36.70126        -0.015714     -0.014065     -0.017650
     14.02132     10.30930     36.91650        -0.000201      0.031330     -0.028741
     14.20485      8.68900     37.58251         0.053819      0.019082     -0.016081
     14.82638      4.65695     32.00923         0.013799     -0.101239      0.106301
     15.30222      4.95037     30.35395        -0.040134      0.053340     -0.022189
     16.69545      2.88007     31.15514         0.031686      0.066632      0.028058
     17.57888      6.94680     32.32264         0.048842     -0.150896     -0.052076
      1.00811      2.28184     31.47738         0.004001     -0.097592     -0.042883
      1.86030      6.34395     32.63002         0.026928     -0.037189      0.001688
      2.65738      4.01995     32.20189         0.091739     -0.056208     -0.068522
     18.01822      4.30451     34.96068        -0.062473     -0.031695     -0.213930
      0.46257     14.00198     35.01667        -0.082202     -0.097472     -0.118654
      9.41730      4.97258     34.92610         0.001330     -0.137931      0.039176
      8.80346     13.78075     34.70920        -0.068750     -0.134339      0.123098
      4.35664      9.21277     34.71949        -0.033910     -0.205924      0.022703
      4.81872     18.01038     34.76369        -0.090907      0.066816     -0.035639
     14.04635     17.93101     34.99836        -0.063191      0.015216      0.095294
      0.15497      4.43147     40.58579        -0.047710      0.002329     -0.029795
      0.32638     13.85438     40.94316         0.106108      0.296775     -0.057550
      9.16401      4.52831     40.41846         0.170566     -0.184617     -0.203120
      8.94929     13.57471     40.47641        -0.093097     -0.000810     -0.115489
      4.56487      9.03010     40.55067         0.279729      0.381380     -0.027887
      4.54407     17.99022     40.47462         0.112631      0.056829     -0.288369
     13.37796      9.29679     40.62201         0.272969      0.298880     -0.174379
     13.55019     18.02781     40.59787         0.249501      0.335571     -0.100207
      9.02897      4.51561     46.44552         0.009462      0.004547      0.027459
      9.02651     13.54701     46.44552         0.027711     -0.011730      0.042862
     18.05937      4.51561     46.44552         0.018479     -0.000700      0.039354
     18.05691     13.54701     46.44552         0.016124     -0.000921     -0.006696
      4.51521      0.00002     46.44421         0.000119     -0.001974      0.053682
      4.51275      9.03142     46.44421        -0.004432     -0.002917      0.031270
     13.54561      0.00002     46.44421        -0.009079     -0.010481      0.035168
     13.54315      9.03142     46.44421         0.001311      0.008652      0.022520
     16.94794      4.95728     31.68508        -0.104532      0.323318     -0.003503
     17.40520      3.65234     31.47092        -0.028668     -0.349314     -0.078638
     17.88564      5.91886     32.10223        -0.184409     -0.037952      0.012124
      0.68824      3.30929     31.63696        -0.082225     -0.054912      0.012183
      1.16774      5.57593     32.28089         0.047990      0.037630     -0.082949
      1.61343      4.27384     32.03089        -0.035520      0.290607      0.175992
     14.81786      8.71182     33.04365         0.130971      0.267875      0.028399
     14.23220     10.85171     34.14732         0.005126     -0.059698      0.082829
     12.54886      9.06826     34.06566        -0.020059     -0.013745     -0.107734
     14.53145      8.73353     35.49825         0.024752     -0.028415     -0.077124
     14.76338      7.19241     32.97326         0.012998      0.074407     -0.268992
     15.06559      6.74981     31.53265         0.219233     -0.264359     -0.014560
     15.66369     11.35226     34.15488        -0.143782     -0.080893      0.046571
     11.91977      9.36553     32.71536         0.117033     -0.041259      0.070402
     13.82090      9.25275     36.72308        -0.029378     -0.073994      0.003192
     15.48889      5.27872     31.38917         0.100872      0.197179     -0.058572
      1.09015      4.63227     35.53137         0.203594     -0.021040      0.068129
      0.54770     12.85142     35.63749         0.080336     -0.100167      0.081572
      9.61842      3.70843     35.23613        -0.261824     -0.005259      0.098863
      9.92612     13.26925     35.15047        -0.025608     -0.077894      0.115627
      8.24853      5.57405     34.87429        -0.290418     -0.143858      0.155320
      7.61361     13.31568     35.02176         0.032569      0.111267     -0.116815
     16.84229      4.69044     35.40211         0.029108      0.039880     -0.005445
     17.50257     14.82797     35.09245        -0.119203      0.152764      0.092068
      4.75818      8.02919     35.13457        -0.139625     -0.039390     -0.134583
      3.61499      0.33887     35.09802        -0.305887      0.045198      0.147517
     12.78162     17.88815     35.35710         0.058723     -0.139835     -0.007365
      5.89046      0.70571     34.84290         0.000202      0.048919     -0.016118
      4.99382     10.33103     34.96121        -0.221400      0.590630     -0.214298
     14.81956      0.93069     35.05937         0.055458      0.007858     -0.121460
      1.03082      3.58502     41.06860        -0.209734      0.188897     -0.017312
      0.93997     12.70653     41.07050        -0.036799     -0.082182     -0.046195
      9.85646      3.56390     40.98359        -0.202581      0.282361     -0.147295
      9.75070     12.83035     41.20956         0.013413     -0.031129     -0.641995
      3.89790      8.12730     41.22286        -0.240061     -0.348084     -0.338128
      3.55021     17.30379     40.96854        -0.481819     -0.383098     -0.177108
     12.45229      8.53082     41.13511         0.002495     -0.009147     -0.113395
     12.72878     17.20221     41.19386        -0.152664     -0.209033     -0.310369
      8.37505      5.37026     41.04389         0.043517     -0.019272     -0.192836
      8.09574     14.46964     40.92379         0.128188     -0.134663     -0.153744
     17.37203      5.14731     41.29282        -0.131550      0.175044     -0.146916
     17.12178     14.06728     41.21970        -0.065678      0.077311     -0.031063
      5.39760      0.64723     41.15970         0.663869      0.485825     -0.240452
      5.30391      9.98852     41.07248        -0.149729     -0.160609     -0.202611
     14.34292      0.83907     41.18898        -0.098679     -0.114494     -0.197524
     14.64733      9.30618     40.97193        -0.109616     -0.057820     -0.045044
      0.82731      3.68697     47.03596         0.016549     -0.022173     -0.096775
      0.82485     12.71837     47.03596         0.024296     -0.019932     -0.056785
      9.85771      3.68697     47.03596         0.024533     -0.024770     -0.082764
      9.85525     12.71837     47.03596         0.006916     -0.010679     -0.081622
      3.68432      8.20234     47.03465        -0.009375     -0.015290     -0.067544
      3.68186     17.23373     47.03465        -0.010230     -0.007447     -0.068355
     12.71472      8.20234     47.03465        -0.012761     -0.020324     -0.055722
     12.71226     17.23373     47.03465        -0.011534     -0.004971     -0.075590
      8.20068      5.34457     47.03603        -0.020462      0.018162     -0.084181
      8.19822     14.37597     47.03603        -0.029676      0.027439     -0.086303
     17.23108      5.34457     47.03603        -0.029646      0.022743     -0.108324
     17.22862     14.37597     47.03603        -0.022911      0.029835     -0.062374
      5.34365      0.82909     47.03465         0.008410      0.011183     -0.073062
      5.34119      9.86049     47.03465         0.017818      0.014287     -0.060101
     14.37405      0.82909     47.03465         0.018463      0.021402     -0.068686
     14.37159      9.86049     47.03465         0.013206      0.008314     -0.063555
     14.04536      9.34207     34.18058        -0.072700     -0.126579      0.113536
      9.22690     17.71673     34.55114         0.026068     -0.001807      0.005806
      8.54529      9.20987     34.56715        -0.041967     -0.031427     -0.006974
      0.14267      0.23175     34.43877        -0.017941     -0.004965      0.027467
      0.56995      8.83971     34.64387        -0.032849     -0.027370     -0.034043
      4.65502      4.34154     34.64980        -0.007999      0.005878     -0.034772
      4.15047     13.84328     34.42154         0.020751     -0.018047     -0.000298
     13.27023      4.14029     34.65888         0.009794     -0.015188      0.013148
     13.19148     14.36947     34.62996         0.089619     -0.067500      0.003251
     17.98674     17.77109     40.87790        -0.010129      0.022037      0.008328
      0.15874      9.11461     40.93666        -0.004642     -0.013827      0.012777
      8.98375      0.02700     40.89479        -0.011597      0.013870      0.033373
      8.91810      9.06367     40.86889         0.046059      0.011163     -0.016440
      4.74943      4.35307     40.94723         0.003051      0.011441     -0.001441
      4.43646     13.64181     40.84339        -0.000191     -0.006617      0.008784
     13.43779      4.75949     40.95229         0.012543      0.026008     -0.032270
     13.52562     13.26628     40.92656         0.011583      0.005699     -0.088204
      2.45068      2.12780     38.05184        -0.000835     -0.048550     -0.024126
      2.65718     10.99140     37.88197        -0.018843      0.001251      0.010235
     11.53907      2.02896     38.04208        -0.033257     -0.014960     -0.016412
     11.16858     11.38969     37.96030        -0.032631      0.044794     -0.002859
      6.63646      6.94778     37.99902         0.014838     -0.007097      0.019673
      6.57547     15.99753     37.84136         0.014051      0.000050     -0.014206
     16.02417      6.60378     38.22033         0.044657      0.081947      0.016227
     15.57055     16.09096     37.86737        -0.008975     -0.014345      0.014783
      2.28390      6.66933     38.19327         0.011508     -0.017228      0.044022
      2.08248     15.76307     37.85202         0.024170      0.006383      0.020319
     11.10500      6.62723     37.60073        -0.005169      0.011685      0.024446
     11.11349     15.59158     38.25179         0.024809      0.065692      0.031977
      7.15177      2.52146     37.72421         0.014393     -0.012284      0.019320
      6.84340     11.44034     37.95634         0.009350     -0.000005     -0.008556
     15.93208      2.42090     38.25625        -0.015902      0.031328      0.014266
     16.29005     11.69599     38.12711         0.011616      0.003177     -0.018312
      0.00000      0.00000     47.17356         0.001123      0.006421      0.360617
     -0.00246      9.03140     47.17356        -0.001670     -0.007829      0.459828
      9.03040      0.00000     47.17356         0.000660     -0.000836      0.433608
      9.02794      9.03140     47.17356        -0.004247     -0.000368      0.401693
      4.51398      4.51570     47.17425        -0.001466     -0.005295      0.429017
      4.51152     13.54710     47.17425         0.003822      0.004669      0.345365
     13.54438      4.51570     47.17425         0.005705      0.001380      0.423645
     13.54192     13.54710     47.17425        -0.002613      0.000413      0.430739
      2.45192      2.06295     44.04013         0.007014     -0.036054     -0.031968
      2.44946     11.09435     44.04013         0.070996     -0.021020      0.002159
     11.48232      2.06295     44.04013         0.006801      0.004394     -0.065369
     11.47986     11.09435     44.04013        -0.075386      0.013853      0.010077
      6.57602      6.96845     44.04013        -0.001735     -0.025932     -0.055907
      6.57356     15.99985     44.04013         0.028405     -0.015255     -0.065617
     15.60642      6.96845     44.04013        -0.010702      0.022388     -0.102756
     15.60396     15.99985     44.04013        -0.048706      0.052138     -0.024766
      2.06108      6.57881     44.04000         0.022002     -0.055175     -0.043133
      2.05862     15.61021     44.04000         0.052791      0.075747     -0.035338
     11.09148      6.57881     44.04000        -0.006016      0.004478     -0.027786
     11.08902     15.61021     44.04000        -0.033849     -0.007415     -0.036545
      6.96686      2.45259     44.04007         0.024608     -0.017678     -0.010056
      6.96440     11.48399     44.04007        -0.023691      0.015613     -0.050908
     15.99726      2.45259     44.04007         0.024941      0.023682     -0.050058
     15.99481     11.48399     44.04007         0.023283     -0.012887     -0.074307
      2.43163      2.08322     50.06849         0.004929     -0.014186      0.021210
      2.42917     11.11462     50.06849         0.019873     -0.002871      0.026815
     11.46203      2.08322     50.06849         0.011697     -0.009104      0.022652
     11.45957     11.11462     50.06849         0.006284     -0.013106      0.025664
      6.59631      6.94818     50.06849        -0.011113      0.008640      0.024184
      6.59385     15.97958     50.06849        -0.014793      0.006495      0.023633
     15.62671      6.94818     50.06849        -0.012658      0.003700      0.022053
     15.62425     15.97958     50.06849        -0.003131      0.020468      0.026163
      2.08113      6.59901     50.06905        -0.006136     -0.015839      0.023969
      2.07867     15.63041     50.06905        -0.009230     -0.007533      0.024302
     11.11153      6.59901     50.06905        -0.010236     -0.011113      0.024623
     11.10907     15.63041     50.06905        -0.012072     -0.006870      0.024462
      6.94681      2.43239     50.06905         0.009206      0.009602      0.023103
      6.94435     11.46379     50.06905         0.005409      0.015543      0.025170
     15.97721      2.43239     50.06905         0.015434      0.006084      0.022250
     15.97475     11.46379     50.06905         0.009184      0.010188      0.026666
     18.01401      0.11839     37.75384         0.012907     -0.004767     -0.028443
      0.17663      9.05241     37.73256        -0.006346      0.045238     -0.002810
      9.05564     17.95255     37.69860         0.014905      0.002282     -0.000188
      9.02360      9.03377     37.65122        -0.008614      0.008808      0.074837
      4.61169      4.48839     37.85266         0.022851     -0.003621      0.007546
      4.40885     13.66394     37.68418        -0.038661     -0.020976     -0.011900
     13.50567      4.53667     37.85208        -0.001438      0.007899      0.006004
     13.55476     13.68334     37.79616         0.037264      0.019247     -0.110425
      0.00001      0.00001     44.04300        -0.046462     -0.111072      0.112182
     -0.00245      9.03141     44.04300         0.078739      0.108935      0.181829
      9.03041      0.00001     44.04300        -0.015707      0.000893      0.055687
      9.02795      9.03141     44.04300         0.061294      0.023151      0.098772
      4.51397      4.51569     44.04275         0.029661      0.043898      0.183847
      4.51151     13.54709     44.04275        -0.087516     -0.029074      0.116461
     13.54437      4.51569     44.04275        -0.077098     -0.023931      0.180478
     13.54191     13.54709     44.04275         0.035933     -0.037328      0.185452
      0.00000      0.00000     50.44728        -0.004862     -0.003236     -0.617054
     -0.00246      9.03140     50.44728        -0.003745      0.003869     -0.645400
      9.03040      0.00000     50.44728         0.004295     -0.000635     -0.635642
      9.02794      9.03140     50.44728         0.004786      0.000215     -0.631018
      4.51397      4.51570     50.44728         0.002313      0.006435     -0.633856
      4.51151     13.54710     50.44728         0.000022     -0.006313     -0.616458
     13.54437      4.51570     50.44728        -0.002538      0.006047     -0.630403
     13.54191     13.54710     50.44728         0.000961     -0.006023     -0.641321
 -----------------------------------------------------------------------------------
    total drift:                               -0.055575     -0.026116      0.870212


--------------------------------------------------------------------------------------------------------



  FREE ENERGIE OF THE ION-ELECTRON SYSTEM (eV)
  ---------------------------------------------------
  free  energy   TOTEN  =     -1576.30895207 eV

  energy  without entropy=    -1576.30895207  energy(sigma->0) =    -1576.30895207
 


--------------------------------------------------------------------------------------------------------


    POTLOK:  cpu time    0.5132: real time    0.5131


--------------------------------------------------------------------------------------------------------


     LOOP+:  cpu time  266.4384: real time  266.9755
 vacuum level on the upper side and lower side of the slab         2.324         1.532
    4ORBIT:  cpu time    0.0000: real time    0.0000

 total amount of memory used by VASP MPI-rank0  8653578. kBytes
=======================================================================

   base      :      30000. kBytes
   nonlr-proj:      53616. kBytes
   fftplans  :     249280. kBytes
   grid      :     701440. kBytes
   one-center:       2636. kBytes
   wavefun   :    7616606. kBytes
 
  
  
 General timing and accounting informations for this job:
 ========================================================
  
                  Total CPU time used (sec):      479.275
                            User time (sec):      396.333
                          System time (sec):       82.942
                         Elapsed time (sec):      482.389
  
                   Maximum memory used (kb):    10323080.
                   Average memory used (kb):          N/A
  
                          Minor page faults:      3577073
                          Major page faults:           12
                 Voluntary context switches:        10735
