<?xml version="1.0" encoding="ISO-8859-1"?>
<modeling>
 <generator>
  <i name="program" type="string">vasp </i>
  <i name="version" type="string">6.2.1  </i>
  <i name="subversion" type="string">16May21 (build Nov 15 2021 14:57:28) complex                          parallel </i>
  <i name="platform" type="string">LinuxPGI </i>
  <i name="date" type="string">2023 07 30 </i>
  <i name="time" type="string">14:10:24 </i>
 </generator>
 <incar>
  <i type="string" name="SYSTEM">PSC</i>
  <i type="int" name="ISTART">     1</i>
  <i type="string" name="PREC">Normal</i>
  <i name="BMIX">      0.01000000</i>
  <i name="AMIN">      0.01000000</i>
  <i type="int" name="ICHARG">     1</i>
  <i type="int" name="NELM">   600</i>
  <i type="int" name="ISYM">     0</i>
  <i name="ENCUT">    500.00000000</i>
  <i type="string" name="LREAL">Auto</i>
  <i type="int" name="ISMEAR">     0</i>
  <i name="SIGMA">      0.05000000</i>
  <i type="logical" name="LWAVE"> F  </i>
  <i type="logical" name="LVTOT"> T  </i>
  <i type="logical" name="GGA_COMPAT"> F  </i>
  <i type="logical" name="LDIPOL"> T  </i>
  <i type="int" name="IDIPOL">     3</i>
  <i type="int" name="IVDW">    12</i>
 </incar>
 <primitive_cell>
  <structure name="primitive_cell" >
   <crystal>
    <varray name="basis" >
     <v>      18.06080055       0.00000000       0.00000000 </v>
     <v>      -0.00491865      18.06279945       0.00000000 </v>
     <v>       0.00000000       0.00000000      62.48749924 </v>
    </varray>
    <i name="volume">  20385.21054034 </i>
    <varray name="rec_basis" >
     <v>       0.05536853       0.00001508      -0.00000000 </v>
     <v>       0.00000000       0.05536240       0.00000000 </v>
     <v>       0.00000000      -0.00000000       0.01600320 </v>
    </varray>
   </crystal>
   <varray name="positions" >
    <v>       0.40785940       0.28299144       0.56248000 </v>
    <v>       0.41525064       0.69602552       0.57172306 </v>
    <v>       0.92605351       0.29246448       0.57997361 </v>
    <v>       0.92858168       0.81573607       0.57299779 </v>
    <v>       0.32344165       0.09197403       0.56359704 </v>
    <v>       0.32316523       0.57401441       0.56883356 </v>
    <v>       0.80102739       0.10227687       0.56588668 </v>
    <v>       0.11020529       0.24143727       0.56204772 </v>
    <v>       0.07823553       0.68133165       0.56943305 </v>
    <v>       0.58593499       0.18696426       0.56496182 </v>
    <v>       0.59946592       0.75940235       0.55884749 </v>
    <v>       0.37796436       0.01776227       0.55425118 </v>
    <v>       0.25445073       0.62245910       0.55476294 </v>
    <v>       0.87532876       0.04668795       0.55651072 </v>
    <v>       0.06379472       0.28854612       0.58218517 </v>
    <v>       0.99248914       0.69458921       0.58167536 </v>
    <v>       0.49169927       0.17290325       0.57055656 </v>
    <v>       0.55180486       0.69310300       0.57378939 </v>
    <v>       0.30849981       0.43780631       0.57214141 </v>
    <v>       0.18964189       0.06848566       0.56909014 </v>
    <v>       0.68253790       0.03375214       0.57336523 </v>
    <v>       0.45491875       0.36486584       0.55552914 </v>
    <v>       0.37450558       0.76204735       0.55486446 </v>
    <v>       0.88499217       0.24344994       0.55919363 </v>
    <v>       0.97554689       0.87326503       0.55532158 </v>
    <v>       0.23438669       0.39759978       0.55860367 </v>
    <v>       0.15513543       0.98471892       0.56002522 </v>
    <v>       0.68064328       0.94057752       0.56510155 </v>
    <v>       0.57089707       0.30737439       0.55496403 </v>
    <v>       0.49143825       0.81113396       0.54493010 </v>
    <v>       0.00004583       0.20357399       0.54504761 </v>
    <v>       0.07158697       0.79005896       0.54975083 </v>
    <v>       0.18947864       0.51269611       0.54652771 </v>
    <v>       0.27249177       0.94065492       0.55017584 </v>
    <v>       0.80192539       0.94104733       0.55404288 </v>
    <v>       0.45429072       0.29552041       0.67284185 </v>
    <v>       0.44204138       0.81414153       0.67069225 </v>
    <v>       0.95842791       0.28368784       0.67706102 </v>
    <v>       0.91348031       0.73899471       0.66536587 </v>
    <v>       0.29784246       0.04224920       0.67481948 </v>
    <v>       0.30154033       0.56054408       0.67334220 </v>
    <v>       0.79783163       0.05250941       0.67533417 </v>
    <v>       0.83239824       0.48035677       0.66704003 </v>
    <v>       0.09109758       0.17103595       0.64698261 </v>
    <v>       0.10747776       0.69991000       0.65397394 </v>
    <v>       0.57767398       0.16368649       0.64657201 </v>
    <v>       0.57460854       0.67388036       0.65179608 </v>
    <v>       0.18581349       0.41140994       0.65130056 </v>
    <v>       0.16326340       0.92929693       0.64521358 </v>
    <v>       0.63599997       0.47734546       0.65312087 </v>
    <v>       0.67306031       0.91824057       0.64990593 </v>
    <v>       0.06355209       0.18869976       0.67313744 </v>
    <v>       0.02595879       0.65630924       0.66202817 </v>
    <v>       0.54580708       0.18771285       0.67187694 </v>
    <v>       0.54329852       0.71363661       0.67560846 </v>
    <v>       0.21461356       0.44673799       0.67589227 </v>
    <v>       0.18512996       0.95355479       0.67154014 </v>
    <v>       0.69952094       0.43544813       0.67027121 </v>
    <v>       0.69767354       0.94931155       0.67530987 </v>
    <v>       0.43739197       0.33746850       0.64827871 </v>
    <v>       0.41697524       0.82953897       0.64404343 </v>
    <v>       0.92648307       0.31973703       0.65289756 </v>
    <v>       0.92688447       0.83064292       0.65817437 </v>
    <v>       0.34179647       0.06220673       0.65097060 </v>
    <v>       0.31985739       0.58917141       0.64721508 </v>
    <v>       0.82764314       0.07906470       0.64983353 </v>
    <v>       0.84682400       0.55087196       0.64834251 </v>
    <v>       0.00651567       0.25225137       0.63217100 </v>
    <v>       0.05061780       0.81414871       0.64913716 </v>
    <v>       0.51282559       0.25642408       0.62939768 </v>
    <v>       0.49775833       0.74316917       0.63035295 </v>
    <v>       0.25973778       0.99413795       0.63041766 </v>
    <v>       0.24911183       0.49766312       0.63147787 </v>
    <v>       0.75257211       0.99621198       0.63219963 </v>
    <v>       0.72419130       0.55339083       0.63740538 </v>
    <v>       0.44874502       0.30128397       0.76888902 </v>
    <v>       0.44874501       0.80128391       0.76888902 </v>
    <v>       0.94874497       0.30128397       0.76888902 </v>
    <v>       0.94874501       0.80128391       0.76888902 </v>
    <v>       0.30127600       0.05129450       0.76887296 </v>
    <v>       0.30127601       0.55129450       0.76887296 </v>
    <v>       0.80127594       0.05129450       0.76887296 </v>
    <v>       0.80127598       0.55129450       0.76887296 </v>
    <v>       0.07877100       0.17118050       0.74344197 </v>
    <v>       0.07877101       0.67118045       0.74344197 </v>
    <v>       0.57877100       0.17118050       0.74344197 </v>
    <v>       0.57877099       0.67118045       0.74344197 </v>
    <v>       0.17119950       0.42117448       0.74342103 </v>
    <v>       0.17119950       0.92117451       0.74342103 </v>
    <v>       0.67119951       0.42117448       0.74342103 </v>
    <v>       0.67119950       0.92117451       0.74342103 </v>
    <v>       0.05125600       0.19871499       0.76888902 </v>
    <v>       0.05125600       0.69871493       0.76888902 </v>
    <v>       0.55125603       0.19871499       0.76888902 </v>
    <v>       0.55125602       0.69871493       0.76888902 </v>
    <v>       0.19872349       0.44870397       0.76887205 </v>
    <v>       0.19872349       0.94870397       0.76887205 </v>
    <v>       0.69872352       0.44870397       0.76887205 </v>
    <v>       0.69872351       0.94870397       0.76887205 </v>
    <v>       0.42123152       0.32881747       0.74344197 </v>
    <v>       0.42123151       0.82881744       0.74344197 </v>
    <v>       0.92123147       0.32881747       0.74344197 </v>
    <v>       0.92123151       0.82881744       0.74344197 </v>
    <v>       0.32880050       0.07882500       0.74342103 </v>
    <v>       0.32880049       0.57882496       0.74342103 </v>
    <v>       0.82880048       0.07882500       0.74342103 </v>
    <v>       0.82880052       0.57882496       0.74342103 </v>
    <v>       0.00000350       0.25000148       0.72582199 </v>
    <v>       0.00000350       0.75000145       0.72582199 </v>
    <v>       0.50000351       0.25000148       0.72582199 </v>
    <v>       0.50000350       0.75000145       0.72582199 </v>
    <v>       0.25000050       0.00000000       0.72580398 </v>
    <v>       0.25000052       0.50000000       0.72580398 </v>
    <v>       0.75000050       0.00000000       0.72580398 </v>
    <v>       0.75000049       0.50000000       0.72580398 </v>
    <v>       0.79935664       0.50830386       0.51406540 </v>
    <v>       0.87832303       0.50058204       0.53090972 </v>
    <v>       0.75906153       0.61905755       0.53205075 </v>
    <v>       0.75719994       0.62197632       0.56028644 </v>
    <v>       0.68722982       0.44402229       0.54985674 </v>
    <v>       0.66888371       0.53635233       0.55749017 </v>
    <v>       0.79634114       0.42339323       0.56638727 </v>
    <v>       0.86467326       0.49376037       0.56879107 </v>
    <v>       0.85727848       0.37390760       0.53896943 </v>
    <v>       0.76307650       0.37648791       0.53225062 </v>
    <v>       0.78442592       0.38287297       0.49493505 </v>
    <v>       0.87747049       0.40912663       0.49750704 </v>
    <v>       0.89689485       0.61774157       0.53156964 </v>
    <v>       0.89960307       0.60546035       0.55985502 </v>
    <v>       0.86428790       0.68861974       0.54885630 </v>
    <v>       0.60043317       0.50908363       0.52528268 </v>
    <v>       0.68042394       0.48269793       0.51064788 </v>
    <v>       0.66648852       0.57661982       0.51887057 </v>
    <v>       0.70569024       0.50251739       0.58733757 </v>
    <v>       0.77649535       0.57074776       0.59078210 </v>
    <v>       0.78663286       0.48104420       0.60144049 </v>
    <v>       0.82098509       0.25782005       0.51225010 </v>
    <v>       0.84733626       0.27406432       0.48576030 </v>
    <v>       0.92444575       0.15944745       0.49858190 </v>
    <v>       0.97342131       0.38459135       0.51726563 </v>
    <v>       0.05585187       0.12632819       0.50373891 </v>
    <v>       0.10309773       0.35121610       0.52218483 </v>
    <v>       0.14719590       0.22255425       0.51533336 </v>
    <v>       0.99770733       0.23830808       0.55948275 </v>
    <v>       0.02582284       0.77518353       0.56037881 </v>
    <v>       0.52149716       0.27529409       0.55892936 </v>
    <v>       0.48764228       0.76293552       0.55545827 </v>
    <v>       0.24135939       0.51004128       0.55562303 </v>
    <v>       0.26707722       0.99709802       0.55633027 </v>
    <v>       0.77799591       0.99270385       0.56008584 </v>
    <v>       0.00864728       0.24533667       0.64950253 </v>
    <v>       0.01828006       0.76701176       0.65522169 </v>
    <v>       0.50746579       0.25069825       0.64682475 </v>
    <v>       0.49571357       0.75152863       0.64775218 </v>
    <v>       0.25288650       0.49992830       0.64894046 </v>
    <v>       0.25186971       0.99598204       0.64772355 </v>
    <v>       0.74085839       0.51469265       0.65008211 </v>
    <v>       0.75052590       0.99806280       0.64969587 </v>
    <v>       0.49998898       0.24999498       0.74327702 </v>
    <v>       0.49998903       0.74999496       0.74327702 </v>
    <v>       0.99998898       0.24999498       0.74327702 </v>
    <v>       0.99998903       0.74999496       0.74327702 </v>
    <v>       0.25000050       0.00000100       0.74325596 </v>
    <v>       0.25000052       0.50000100       0.74325596 </v>
    <v>       0.75000050       0.00000100       0.74325596 </v>
    <v>       0.75000049       0.50000100       0.74325596 </v>
    <v>       0.93845744       0.27444684       0.50706275 </v>
    <v>       0.96375538       0.20220216       0.50363546 </v>
    <v>       0.99039102       0.32768253       0.51373837 </v>
    <v>       0.03815663       0.18321030       0.50629258 </v>
    <v>       0.06474011       0.30869708       0.51659753 </v>
    <v>       0.08939779       0.23660990       0.51259673 </v>
    <v>       0.82057432       0.48230744       0.52880419 </v>
    <v>       0.78817950       0.60077651       0.54646636 </v>
    <v>       0.69494886       0.50204095       0.54515964 </v>
    <v>       0.80471663       0.48350917       0.56808567 </v>
    <v>       0.81753495       0.39818908       0.52767769 </v>
    <v>       0.83426109       0.37368588       0.50462333 </v>
    <v>       0.86744665       0.62848854       0.54658747 </v>
    <v>       0.66012127       0.51849820       0.52355046 </v>
    <v>       0.76538270       0.51225435       0.58768688 </v>
    <v>       0.85767687       0.29224289       0.50232716 </v>
    <v>       0.06042989       0.25645333       0.56861568 </v>
    <v>       0.03051905       0.71148553       0.57031390 </v>
    <v>       0.53261358       0.20530779       0.56389086 </v>
    <v>       0.54979458       0.73461752       0.56251998 </v>
    <v>       0.45679321       0.30859288       0.55810027 </v>
    <v>       0.42175521       0.73718803       0.56046030 </v>
    <v>       0.93260373       0.25967391       0.56654703 </v>
    <v>       0.96931490       0.82091183       0.56159145 </v>
    <v>       0.26357432       0.44451553       0.56226566 </v>
    <v>       0.20016156       0.01876052       0.56168064 </v>
    <v>       0.70796915       0.99033085       0.56582680 </v>
    <v>       0.32615684       0.03906977       0.55759792 </v>
    <v>       0.27665641       0.57195049       0.55949124 </v>
    <v>       0.82055120       0.05152519       0.56106217 </v>
    <v>       0.05712885       0.19847518       0.65722899 </v>
    <v>       0.05223622       0.70346413       0.65725939 </v>
    <v>       0.54579132       0.19730594       0.65586867 </v>
    <v>       0.54007554       0.71031907       0.65948487 </v>
    <v>       0.21594341       0.44994704       0.65969774 </v>
    <v>       0.19683055       0.95797943       0.65562778 </v>
    <v>       0.68959377       0.47228643       0.65829347 </v>
    <v>       0.70503344       0.95235591       0.65923366 </v>
    <v>       0.46379501       0.29731031       0.65683365 </v>
    <v>       0.44846752       0.80107425       0.65491169 </v>
    <v>       0.96194122       0.28496750       0.66081735 </v>
    <v>       0.94821988       0.77879816       0.65964707 </v>
    <v>       0.29886682       0.03583241       0.65868692 </v>
    <v>       0.29382019       0.55298841       0.65729113 </v>
    <v>       0.79415903       0.04645267       0.65915552 </v>
    <v>       0.81114153       0.51521255       0.65568199 </v>
    <v>       0.04586250       0.20411950       0.75272599 </v>
    <v>       0.04586250       0.70411946       0.75272599 </v>
    <v>       0.54586251       0.20411950       0.75272599 </v>
    <v>       0.54586250       0.70411946       0.75272599 </v>
    <v>       0.20411900       0.45410100       0.75270499 </v>
    <v>       0.20411899       0.95410095       0.75270499 </v>
    <v>       0.70411898       0.45410100       0.75270499 </v>
    <v>       0.70411896       0.95410095       0.75270499 </v>
    <v>       0.45414002       0.29588849       0.75272697 </v>
    <v>       0.45414001       0.79588852       0.75272697 </v>
    <v>       0.95414002       0.29588849       0.75272697 </v>
    <v>       0.95414006       0.79588852       0.75272697 </v>
    <v>       0.29588249       0.04590050       0.75270499 </v>
    <v>       0.29588248       0.54590053       0.75270499 </v>
    <v>       0.79588244       0.04590050       0.75270499 </v>
    <v>       0.79588248       0.54590053       0.75270499 </v>
    <v>       0.77781157       0.51719927       0.54699863 </v>
    <v>       0.51114700       0.98084057       0.55292877 </v>
    <v>       0.47327912       0.50988030       0.55318511 </v>
    <v>       0.00790308       0.01283006       0.55113056 </v>
    <v>       0.03169069       0.48938782       0.55441283 </v>
    <v>       0.25780683       0.24035803       0.55450764 </v>
    <v>       0.23001437       0.76639746       0.55085481 </v>
    <v>       0.73481559       0.22921645       0.55465299 </v>
    <v>       0.73060935       0.79552854       0.55419013 </v>
    <v>       0.99616753       0.98385008       0.65417717 </v>
    <v>       0.00892653       0.50460671       0.65511754 </v>
    <v>       0.49741736       0.00149471       0.65444749 </v>
    <v>       0.49391888       0.50178667       0.65403298 </v>
    <v>       0.26303439       0.24099617       0.65528670 </v>
    <v>       0.24584619       0.75524352       0.65362493 </v>
    <v>       0.74410245       0.26349699       0.65536778 </v>
    <v>       0.74909392       0.73445300       0.65495595 </v>
    <v>       0.13572283       0.11779995       0.60895127 </v>
    <v>       0.14729009       0.60851026       0.60623283 </v>
    <v>       0.63893201       0.11232814       0.60879498 </v>
    <v>       0.61855955       0.63056038       0.60748625 </v>
    <v>       0.36755563       0.38464581       0.60810594 </v>
    <v>       0.36431508       0.88566166       0.60558292 </v>
    <v>       0.88733443       0.36560099       0.61164761 </v>
    <v>       0.86236125       0.89083431       0.60599914 </v>
    <v>       0.12655669       0.36923002       0.61121454 </v>
    <v>       0.11554163       0.87268172       0.60575354 </v>
    <v>       0.61496754       0.36689960       0.60173211 </v>
    <v>       0.61557297       0.86318727       0.61215106 </v>
    <v>       0.39602084       0.13959389       0.60370815 </v>
    <v>       0.37908123       0.63336483       0.60742288 </v>
    <v>       0.88217239       0.13402702       0.61222243 </v>
    <v>       0.90213262       0.64751794       0.61015585 </v>
    <v>       0.00000000       0.00000000       0.75492797 </v>
    <v>       0.00000000       0.50000000       0.75492797 </v>
    <v>       0.50000000       0.00000000       0.75492797 </v>
    <v>       0.49999999       0.50000000       0.75492797 </v>
    <v>       0.25000050       0.25000000       0.75493902 </v>
    <v>       0.25000051       0.74999997       0.75493902 </v>
    <v>       0.75000047       0.25000000       0.75493902 </v>
    <v>       0.75000046       0.74999997       0.75493902 </v>
    <v>       0.13579050       0.11421000       0.70478299 </v>
    <v>       0.13579050       0.61420998       0.70478299 </v>
    <v>       0.63579045       0.11421000       0.70478299 </v>
    <v>       0.63579049       0.61420998       0.70478299 </v>
    <v>       0.36420952       0.38578999       0.70478299 </v>
    <v>       0.36420950       0.88578996       0.70478299 </v>
    <v>       0.86420954       0.38578999       0.70478299 </v>
    <v>       0.86420953       0.88578996       0.70478299 </v>
    <v>       0.11421799       0.36421899       0.70478098 </v>
    <v>       0.11421799       0.86421899       0.70478098 </v>
    <v>       0.61421800       0.36421899       0.70478098 </v>
    <v>       0.61421799       0.86421899       0.70478098 </v>
    <v>       0.38578201       0.13578149       0.70478202 </v>
    <v>       0.38578200       0.63578149       0.70478202 </v>
    <v>       0.88578199       0.13578149       0.70478202 </v>
    <v>       0.88578203       0.63578149       0.70478202 </v>
    <v>       0.13466700       0.11533200       0.80125603 </v>
    <v>       0.13466699       0.61533199       0.80125603 </v>
    <v>       0.63466699       0.11533200       0.80125603 </v>
    <v>       0.63466698       0.61533199       0.80125603 </v>
    <v>       0.36533300       0.38466799       0.80125603 </v>
    <v>       0.36533299       0.88466796       0.80125603 </v>
    <v>       0.86533295       0.38466799       0.80125603 </v>
    <v>       0.86533294       0.88466796       0.80125603 </v>
    <v>       0.11532850       0.36533700       0.80126500 </v>
    <v>       0.11532850       0.86533698       0.80126500 </v>
    <v>       0.61532850       0.36533700       0.80126500 </v>
    <v>       0.61532849       0.86533698       0.80126500 </v>
    <v>       0.38467151       0.13466300       0.80126500 </v>
    <v>       0.38467150       0.63466297       0.80126500 </v>
    <v>       0.88467149       0.13466300       0.80126500 </v>
    <v>       0.88467153       0.63466297       0.80126500 </v>
    <v>       0.99741105       0.00655415       0.60418225 </v>
    <v>       0.00991638       0.50116319       0.60384178 </v>
    <v>       0.50166793       0.99389614       0.60329822 </v>
    <v>       0.49975972       0.50013104       0.60254007 </v>
    <v>       0.25541007       0.24848824       0.60576380 </v>
    <v>       0.24431742       0.75646843       0.60306746 </v>
    <v>       0.74785749       0.25116070       0.60575446 </v>
    <v>       0.75071335       0.75754244       0.60485950 </v>
    <v>       0.00000050       0.00000050       0.70482896 </v>
    <v>       0.00000050       0.50000048       0.70482896 </v>
    <v>       0.50000048       0.00000050       0.70482896 </v>
    <v>       0.50000046       0.50000048       0.70482896 </v>
    <v>       0.24999999       0.24999947       0.70482499 </v>
    <v>       0.25000001       0.74999950       0.70482499 </v>
    <v>       0.74999999       0.24999947       0.70482499 </v>
    <v>       0.74999998       0.74999950       0.70482499 </v>
    <v>       0.00000000       0.00000000       0.80731797 </v>
    <v>       0.00000000       0.50000000       0.80731797 </v>
    <v>       0.50000000       0.00000000       0.80731797 </v>
    <v>       0.49999999       0.50000000       0.80731797 </v>
    <v>       0.24999999       0.25000000       0.80731797 </v>
    <v>       0.25000001       0.74999997       0.80731797 </v>
    <v>       0.74999999       0.25000000       0.80731797 </v>
    <v>       0.74999998       0.74999997       0.80731797 </v>
   </varray>
  </structure>
  <varray name="primitive_index" >
   <v type="int" >        1 </v>
   <v type="int" >        2 </v>
   <v type="int" >        3 </v>
   <v type="int" >        4 </v>
   <v type="int" >        5 </v>
   <v type="int" >        6 </v>
   <v type="int" >        7 </v>
   <v type="int" >        8 </v>
   <v type="int" >        9 </v>
   <v type="int" >       10 </v>
   <v type="int" >       11 </v>
   <v type="int" >       12 </v>
   <v type="int" >       13 </v>
   <v type="int" >       14 </v>
   <v type="int" >       15 </v>
   <v type="int" >       16 </v>
   <v type="int" >       17 </v>
   <v type="int" >       18 </v>
   <v type="int" >       19 </v>
   <v type="int" >       20 </v>
   <v type="int" >       21 </v>
   <v type="int" >       22 </v>
   <v type="int" >       23 </v>
   <v type="int" >       24 </v>
   <v type="int" >       25 </v>
   <v type="int" >       26 </v>
   <v type="int" >       27 </v>
   <v type="int" >       28 </v>
   <v type="int" >       29 </v>
   <v type="int" >       30 </v>
   <v type="int" >       31 </v>
   <v type="int" >       32 </v>
   <v type="int" >       33 </v>
   <v type="int" >       34 </v>
   <v type="int" >       35 </v>
   <v type="int" >       36 </v>
   <v type="int" >       37 </v>
   <v type="int" >       38 </v>
   <v type="int" >       39 </v>
   <v type="int" >       40 </v>
   <v type="int" >       41 </v>
   <v type="int" >       42 </v>
   <v type="int" >       43 </v>
   <v type="int" >       44 </v>
   <v type="int" >       45 </v>
   <v type="int" >       46 </v>
   <v type="int" >       47 </v>
   <v type="int" >       48 </v>
   <v type="int" >       49 </v>
   <v type="int" >       50 </v>
   <v type="int" >       51 </v>
   <v type="int" >       52 </v>
   <v type="int" >       53 </v>
   <v type="int" >       54 </v>
   <v type="int" >       55 </v>
   <v type="int" >       56 </v>
   <v type="int" >       57 </v>
   <v type="int" >       58 </v>
   <v type="int" >       59 </v>
   <v type="int" >       60 </v>
   <v type="int" >       61 </v>
   <v type="int" >       62 </v>
   <v type="int" >       63 </v>
   <v type="int" >       64 </v>
   <v type="int" >       65 </v>
   <v type="int" >       66 </v>
   <v type="int" >       67 </v>
   <v type="int" >       68 </v>
   <v type="int" >       69 </v>
   <v type="int" >       70 </v>
   <v type="int" >       71 </v>
   <v type="int" >       72 </v>
   <v type="int" >       73 </v>
   <v type="int" >       74 </v>
   <v type="int" >       75 </v>
   <v type="int" >       76 </v>
   <v type="int" >       77 </v>
   <v type="int" >       78 </v>
   <v type="int" >       79 </v>
   <v type="int" >       80 </v>
   <v type="int" >       81 </v>
   <v type="int" >       82 </v>
   <v type="int" >       83 </v>
   <v type="int" >       84 </v>
   <v type="int" >       85 </v>
   <v type="int" >       86 </v>
   <v type="int" >       87 </v>
   <v type="int" >       88 </v>
   <v type="int" >       89 </v>
   <v type="int" >       90 </v>
   <v type="int" >       91 </v>
   <v type="int" >       92 </v>
   <v type="int" >       93 </v>
   <v type="int" >       94 </v>
   <v type="int" >       95 </v>
   <v type="int" >       96 </v>
   <v type="int" >       97 </v>
   <v type="int" >       98 </v>
   <v type="int" >       99 </v>
   <v type="int" >      100 </v>
   <v type="int" >      101 </v>
   <v type="int" >      102 </v>
   <v type="int" >      103 </v>
   <v type="int" >      104 </v>
   <v type="int" >      105 </v>
   <v type="int" >      106 </v>
   <v type="int" >      107 </v>
   <v type="int" >      108 </v>
   <v type="int" >      109 </v>
   <v type="int" >      110 </v>
   <v type="int" >      111 </v>
   <v type="int" >      112 </v>
   <v type="int" >      113 </v>
   <v type="int" >      114 </v>
   <v type="int" >      115 </v>
   <v type="int" >      116 </v>
   <v type="int" >      117 </v>
   <v type="int" >      118 </v>
   <v type="int" >      119 </v>
   <v type="int" >      120 </v>
   <v type="int" >      121 </v>
   <v type="int" >      122 </v>
   <v type="int" >      123 </v>
   <v type="int" >      124 </v>
   <v type="int" >      125 </v>
   <v type="int" >      126 </v>
   <v type="int" >      127 </v>
   <v type="int" >      128 </v>
   <v type="int" >      129 </v>
   <v type="int" >      130 </v>
   <v type="int" >      131 </v>
   <v type="int" >      132 </v>
   <v type="int" >      133 </v>
   <v type="int" >      134 </v>
   <v type="int" >      135 </v>
   <v type="int" >      136 </v>
   <v type="int" >      137 </v>
   <v type="int" >      138 </v>
   <v type="int" >      139 </v>
   <v type="int" >      140 </v>
   <v type="int" >      141 </v>
   <v type="int" >      142 </v>
   <v type="int" >      143 </v>
   <v type="int" >      144 </v>
   <v type="int" >      145 </v>
   <v type="int" >      146 </v>
   <v type="int" >      147 </v>
   <v type="int" >      148 </v>
   <v type="int" >      149 </v>
   <v type="int" >      150 </v>
   <v type="int" >      151 </v>
   <v type="int" >      152 </v>
   <v type="int" >      153 </v>
   <v type="int" >      154 </v>
   <v type="int" >      155 </v>
   <v type="int" >      156 </v>
   <v type="int" >      157 </v>
   <v type="int" >      158 </v>
   <v type="int" >      159 </v>
   <v type="int" >      160 </v>
   <v type="int" >      161 </v>
   <v type="int" >      162 </v>
   <v type="int" >      163 </v>
   <v type="int" >      164 </v>
   <v type="int" >      165 </v>
   <v type="int" >      166 </v>
   <v type="int" >      167 </v>
   <v type="int" >      168 </v>
   <v type="int" >      169 </v>
   <v type="int" >      170 </v>
   <v type="int" >      171 </v>
   <v type="int" >      172 </v>
   <v type="int" >      173 </v>
   <v type="int" >      174 </v>
   <v type="int" >      175 </v>
   <v type="int" >      176 </v>
   <v type="int" >      177 </v>
   <v type="int" >      178 </v>
   <v type="int" >      179 </v>
   <v type="int" >      180 </v>
   <v type="int" >      181 </v>
   <v type="int" >      182 </v>
   <v type="int" >      183 </v>
   <v type="int" >      184 </v>
   <v type="int" >      185 </v>
   <v type="int" >      186 </v>
   <v type="int" >      187 </v>
   <v type="int" >      188 </v>
   <v type="int" >      189 </v>
   <v type="int" >      190 </v>
   <v type="int" >      191 </v>
   <v type="int" >      192 </v>
   <v type="int" >      193 </v>
   <v type="int" >      194 </v>
   <v type="int" >      195 </v>
   <v type="int" >      196 </v>
   <v type="int" >      197 </v>
   <v type="int" >      198 </v>
   <v type="int" >      199 </v>
   <v type="int" >      200 </v>
   <v type="int" >      201 </v>
   <v type="int" >      202 </v>
   <v type="int" >      203 </v>
   <v type="int" >      204 </v>
   <v type="int" >      205 </v>
   <v type="int" >      206 </v>
   <v type="int" >      207 </v>
   <v type="int" >      208 </v>
   <v type="int" >      209 </v>
   <v type="int" >      210 </v>
   <v type="int" >      211 </v>
   <v type="int" >      212 </v>
   <v type="int" >      213 </v>
   <v type="int" >      214 </v>
   <v type="int" >      215 </v>
   <v type="int" >      216 </v>
   <v type="int" >      217 </v>
   <v type="int" >      218 </v>
   <v type="int" >      219 </v>
   <v type="int" >      220 </v>
   <v type="int" >      221 </v>
   <v type="int" >      222 </v>
   <v type="int" >      223 </v>
   <v type="int" >      224 </v>
   <v type="int" >      225 </v>
   <v type="int" >      226 </v>
   <v type="int" >      227 </v>
   <v type="int" >      228 </v>
   <v type="int" >      229 </v>
   <v type="int" >      230 </v>
   <v type="int" >      231 </v>
   <v type="int" >      232 </v>
   <v type="int" >      233 </v>
   <v type="int" >      234 </v>
   <v type="int" >      235 </v>
   <v type="int" >      236 </v>
   <v type="int" >      237 </v>
   <v type="int" >      238 </v>
   <v type="int" >      239 </v>
   <v type="int" >      240 </v>
   <v type="int" >      241 </v>
   <v type="int" >      242 </v>
   <v type="int" >      243 </v>
   <v type="int" >      244 </v>
   <v type="int" >      245 </v>
   <v type="int" >      246 </v>
   <v type="int" >      247 </v>
   <v type="int" >      248 </v>
   <v type="int" >      249 </v>
   <v type="int" >      250 </v>
   <v type="int" >      251 </v>
   <v type="int" >      252 </v>
   <v type="int" >      253 </v>
   <v type="int" >      254 </v>
   <v type="int" >      255 </v>
   <v type="int" >      256 </v>
   <v type="int" >      257 </v>
   <v type="int" >      258 </v>
   <v type="int" >      259 </v>
   <v type="int" >      260 </v>
   <v type="int" >      261 </v>
   <v type="int" >      262 </v>
   <v type="int" >      263 </v>
   <v type="int" >      264 </v>
   <v type="int" >      265 </v>
   <v type="int" >      266 </v>
   <v type="int" >      267 </v>
   <v type="int" >      268 </v>
   <v type="int" >      269 </v>
   <v type="int" >      270 </v>
   <v type="int" >      271 </v>
   <v type="int" >      272 </v>
   <v type="int" >      273 </v>
   <v type="int" >      274 </v>
   <v type="int" >      275 </v>
   <v type="int" >      276 </v>
   <v type="int" >      277 </v>
   <v type="int" >      278 </v>
   <v type="int" >      279 </v>
   <v type="int" >      280 </v>
   <v type="int" >      281 </v>
   <v type="int" >      282 </v>
   <v type="int" >      283 </v>
   <v type="int" >      284 </v>
   <v type="int" >      285 </v>
   <v type="int" >      286 </v>
   <v type="int" >      287 </v>
   <v type="int" >      288 </v>
   <v type="int" >      289 </v>
   <v type="int" >      290 </v>
   <v type="int" >      291 </v>
   <v type="int" >      292 </v>
   <v type="int" >      293 </v>
   <v type="int" >      294 </v>
   <v type="int" >      295 </v>
   <v type="int" >      296 </v>
   <v type="int" >      297 </v>
   <v type="int" >      298 </v>
   <v type="int" >      299 </v>
   <v type="int" >      300 </v>
   <v type="int" >      301 </v>
   <v type="int" >      302 </v>
   <v type="int" >      303 </v>
   <v type="int" >      304 </v>
   <v type="int" >      305 </v>
   <v type="int" >      306 </v>
   <v type="int" >      307 </v>
   <v type="int" >      308 </v>
   <v type="int" >      309 </v>
   <v type="int" >      310 </v>
   <v type="int" >      311 </v>
   <v type="int" >      312 </v>
   <v type="int" >      313 </v>
   <v type="int" >      314 </v>
   <v type="int" >      315 </v>
   <v type="int" >      316 </v>
   <v type="int" >      317 </v>
   <v type="int" >      318 </v>
   <v type="int" >      319 </v>
   <v type="int" >      320 </v>
   <v type="int" >      321 </v>
   <v type="int" >      322 </v>
   <v type="int" >      323 </v>
   <v type="int" >      324 </v>
   <v type="int" >      325 </v>
  </varray>
 </primitive_cell>
 <kpoints>
  <generation param="Gamma">
   <v type="int" name="divisions">       3        3        1 </v>
   <v name="usershift">      0.00000000       0.00000000       0.00000000 </v>
   <v name="genvec1">      0.33333333       0.00000000       0.00000000 </v>
   <v name="genvec2">      0.00000000       0.33333333       0.00000000 </v>
   <v name="genvec3">      0.00000000       0.00000000       1.00000000 </v>
   <v name="shift">      0.00000000       0.00000000       0.00000000 </v>
  </generation>
  <varray name="kpointlist" >
   <v>       0.00000000       0.00000000       0.00000000 </v>
   <v>       0.33333333       0.00000000       0.00000000 </v>
   <v>       0.00000000       0.33333333       0.00000000 </v>
   <v>       0.33333333       0.33333333       0.00000000 </v>
   <v>      -0.33333333       0.33333333       0.00000000 </v>
  </varray>
  <varray name="weights" >
   <v>       0.11111111 </v>
   <v>       0.22222222 </v>
   <v>       0.22222222 </v>
   <v>       0.22222222 </v>
   <v>       0.22222222 </v>
  </varray>
 </kpoints>
 <parameters>
  <separator name="general" >
   <i type="string" name="SYSTEM">PSC</i>
   <i type="logical" name="LCOMPAT"> F  </i>
  </separator>
  <separator name="electronic" >
   <i type="string" name="PREC">normal</i>
   <i name="ENMAX">    500.00000000</i>
   <i name="ENAUG">    644.87300000</i>
   <i name="EDIFF">      0.00010000</i>
   <i type="int" name="IALGO">    38</i>
   <i type="int" name="IWAVPR">    10</i>
   <i type="int" name="NBANDS">   732</i>
   <i type="int" name="NBANDSLOW">    -1</i>
   <i type="int" name="NBANDSHIGH">    -1</i>
   <i name="NELECT">   1134.00000000</i>
   <i type="int" name="TURBO">     0</i>
   <i type="int" name="IRESTART">     0</i>
   <i type="int" name="NREBOOT">     0</i>
   <i type="int" name="NMIN">     0</i>
   <i name="EREF">      0.00000000</i>
   <separator name="electronic smearing" >
    <i type="int" name="ISMEAR">     0</i>
    <i name="SIGMA">      0.05000000</i>
    <i name="KSPACING">      0.50000000</i>
    <i type="logical" name="KGAMMA"> T  </i>
    <i type="logical" name="KBLOWUP"> T  </i>
   </separator>
   <separator name="electronic projectors" >
    <i type="logical" name="LREAL"> T  </i>
    <v name="ROPT">     -0.00050000     -0.00050000     -0.00050000     -0.00050000     -0.00050000</v>
    <i type="int" name="LMAXPAW">  -100</i>
    <i type="int" name="LMAXMIX">     2</i>
    <i type="logical" name="NLSPLINE"> F  </i>
   </separator>
   <separator name="electronic startup" >
    <i type="int" name="ISTART">     0</i>
    <i type="int" name="ICHARG">     1</i>
    <i type="int" name="INIWAV">     1</i>
   </separator>
   <separator name="electronic spin" >
    <i type="int" name="ISPIN">     1</i>
    <i type="logical" name="LNONCOLLINEAR"> F  </i>
    <v name="MAGMOM">      1.00000000      1.00000000      1.00000000      1.00000000      1.00000000      1.00000000      1.00000000      1.00000000      1.00000000      1.00000000      1.00000000      1.00000000      1.00000000      1.00000000      1.00000000      1.00000000      1.00000000      1.00000000      1.00000000      1.00000000
      1.00000000      1.00000000      1.00000000      1.00000000      1.00000000      1.00000000      1.00000000      1.00000000      1.00000000      1.00000000      1.00000000      1.00000000      1.00000000      1.00000000      1.00000000      1.00000000      1.00000000      1.00000000      1.00000000      1.00000000
      1.00000000      1.00000000      1.00000000      1.00000000      1.00000000      1.00000000      1.00000000      1.00000000      1.00000000      1.00000000      1.00000000      1.00000000      1.00000000      1.00000000      1.00000000      1.00000000      1.00000000      1.00000000      1.00000000      1.00000000
      1.00000000      1.00000000      1.00000000      1.00000000      1.00000000      1.00000000      1.00000000      1.00000000      1.00000000      1.00000000      1.00000000      1.00000000      1.00000000      1.00000000      1.00000000      1.00000000      1.00000000      1.00000000      1.00000000      1.00000000
      1.00000000      1.00000000      1.00000000      1.00000000      1.00000000      1.00000000      1.00000000      1.00000000      1.00000000      1.00000000      1.00000000      1.00000000      1.00000000      1.00000000      1.00000000      1.00000000      1.00000000      1.00000000      1.00000000      1.00000000
      1.00000000      1.00000000      1.00000000      1.00000000      1.00000000      1.00000000      1.00000000      1.00000000      1.00000000      1.00000000      1.00000000      1.00000000      1.00000000      1.00000000      1.00000000      1.00000000      1.00000000      1.00000000      1.00000000      1.00000000
      1.00000000      1.00000000      1.00000000      1.00000000      1.00000000      1.00000000      1.00000000      1.00000000      1.00000000      1.00000000      1.00000000      1.00000000      1.00000000      1.00000000      1.00000000      1.00000000      1.00000000      1.00000000      1.00000000      1.00000000
      1.00000000      1.00000000      1.00000000      1.00000000      1.00000000      1.00000000      1.00000000      1.00000000      1.00000000      1.00000000      1.00000000      1.00000000      1.00000000      1.00000000      1.00000000      1.00000000      1.00000000      1.00000000      1.00000000      1.00000000
      1.00000000      1.00000000      1.00000000      1.00000000      1.00000000      1.00000000      1.00000000      1.00000000      1.00000000      1.00000000      1.00000000      1.00000000      1.00000000      1.00000000      1.00000000      1.00000000      1.00000000      1.00000000      1.00000000      1.00000000
      1.00000000      1.00000000      1.00000000      1.00000000      1.00000000      1.00000000      1.00000000      1.00000000      1.00000000      1.00000000      1.00000000      1.00000000      1.00000000      1.00000000      1.00000000      1.00000000      1.00000000      1.00000000      1.00000000      1.00000000
      1.00000000      1.00000000      1.00000000      1.00000000      1.00000000      1.00000000      1.00000000      1.00000000      1.00000000      1.00000000      1.00000000      1.00000000      1.00000000      1.00000000      1.00000000      1.00000000      1.00000000      1.00000000      1.00000000      1.00000000
      1.00000000      1.00000000      1.00000000      1.00000000      1.00000000      1.00000000      1.00000000      1.00000000      1.00000000      1.00000000      1.00000000      1.00000000      1.00000000      1.00000000      1.00000000      1.00000000      1.00000000      1.00000000      1.00000000      1.00000000
      1.00000000      1.00000000      1.00000000      1.00000000      1.00000000      1.00000000      1.00000000      1.00000000      1.00000000      1.00000000      1.00000000      1.00000000      1.00000000      1.00000000      1.00000000      1.00000000      1.00000000      1.00000000      1.00000000      1.00000000
      1.00000000      1.00000000      1.00000000      1.00000000      1.00000000      1.00000000      1.00000000      1.00000000      1.00000000      1.00000000      1.00000000      1.00000000      1.00000000      1.00000000      1.00000000      1.00000000      1.00000000      1.00000000      1.00000000      1.00000000
      1.00000000      1.00000000      1.00000000      1.00000000      1.00000000      1.00000000      1.00000000      1.00000000      1.00000000      1.00000000      1.00000000      1.00000000      1.00000000      1.00000000      1.00000000      1.00000000      1.00000000      1.00000000      1.00000000      1.00000000
      1.00000000      1.00000000      1.00000000      1.00000000      1.00000000      1.00000000      1.00000000      1.00000000      1.00000000      1.00000000      1.00000000      1.00000000      1.00000000      1.00000000      1.00000000      1.00000000      1.00000000      1.00000000      1.00000000      1.00000000
      1.00000000      1.00000000      1.00000000      1.00000000      1.00000000</v>
    <i name="NUPDOWN">     -1.00000000</i>
    <i type="logical" name="LSORBIT"> F  </i>
    <v name="SAXIS">      0.00000000      0.00000000      1.00000000</v>
    <i type="logical" name="LSPIRAL"> F  </i>
    <v name="QSPIRAL">      0.00000000      0.00000000      0.00000000</v>
    <i type="logical" name="LZEROZ"> F  </i>
   </separator>
   <separator name="electronic exchange-correlation" >
    <i type="logical" name="LASPH"> F  </i>
    <i type="logical" name="LMETAGGA"> F  </i>
   </separator>
   <separator name="electronic convergence" >
    <i type="int" name="NELM">   600</i>
    <i type="int" name="NELMDL">     0</i>
    <i type="int" name="NELMIN">     2</i>
    <i name="ENINI">    500.00000000</i>
    <separator name="electronic convergence detail" >
     <i type="logical" name="LDIAG"> T  </i>
     <i type="logical" name="LSUBROT"> F  </i>
     <i name="WEIMIN">      0.00000000</i>
     <i name="EBREAK">      0.00000003</i>
     <i name="DEPER">      0.30000000</i>
     <i type="int" name="NRMM">     4</i>
     <i name="TIME">      0.40000000</i>
    </separator>
   </separator>
   <separator name="electronic mixer" >
    <i name="AMIX">      0.40000000</i>
    <i name="BMIX">      0.01000000</i>
    <i name="AMIN">      0.01000000</i>
    <i name="AMIX_MAG">      1.60000000</i>
    <i name="BMIX_MAG">      0.01000000</i>
    <separator name="electronic mixer details" >
     <i type="int" name="IMIX">     4</i>
     <i type="logical" name="MIXFIRST"> F  </i>
     <i type="int" name="MAXMIX">   -45</i>
     <i name="WC">    100.00000000</i>
     <i type="int" name="INIMIX">     1</i>
     <i type="int" name="MIXPRE">     1</i>
     <i type="int" name="MREMOVE">     5</i>
    </separator>
   </separator>
   <separator name="electronic dipolcorrection" >
    <i type="logical" name="LDIPOL"> T  </i>
    <i type="logical" name="LMONO"> F  </i>
    <i type="int" name="IDIPOL">     3</i>
    <i name="EPSILON">      1.00000000</i>
    <v name="DIPOL">   -100.00000000   -100.00000000   -100.00000000</v>
    <i name="EFIELD">      0.00000000</i>
   </separator>
  </separator>
  <separator name="grids" >
   <i type="int" name="NGX">   100</i>
   <i type="int" name="NGY">   100</i>
   <i type="int" name="NGZ">   350</i>
   <i type="int" name="NGXF">   200</i>
   <i type="int" name="NGYF">   200</i>
   <i type="int" name="NGZF">   700</i>
   <i type="logical" name="ADDGRID"> F  </i>
  </separator>
  <separator name="ionic" >
   <i type="int" name="NSW">     0</i>
   <i type="int" name="IBRION">    -1</i>
   <i type="int" name="MDALGO">     0</i>
   <i type="int" name="ISIF">     2</i>
   <i name="PSTRESS">      0.00000000</i>
   <i name="EDIFFG">      0.00100000</i>
   <i type="int" name="NFREE">     0</i>
   <i name="POTIM">      0.50000000</i>
   <i name="SMASS">     -3.00000000</i>
   <i name="SCALEE">      1.00000000</i>
  </separator>
  <separator name="ionic md" >
   <i name="TEBEG">      0.00010000</i>
   <i name="TEEND">      0.00010000</i>
   <i type="int" name="NBLOCK">     1</i>
   <i type="int" name="KBLOCK">     1</i>
   <i type="int" name="NPACO">   256</i>
   <i name="APACO">     16.00000000</i>
  </separator>
  <separator name="symmetry" >
   <i type="int" name="ISYM">     0</i>
   <i name="SYMPREC">      0.00001000</i>
  </separator>
  <separator name="dos" >
   <i type="int" name="LORBIT">     0</i>
   <v name="RWIGS">     -1.00000000     -1.00000000     -1.00000000     -1.00000000     -1.00000000</v>
   <i type="int" name="NEDOS">   301</i>
   <i name="EMIN">     10.00000000</i>
   <i name="EMAX">    -10.00000000</i>
   <i name="EFERMI">      0.00000000</i>
  </separator>
  <separator name="writing" >
   <i type="int" name="NWRITE">     2</i>
   <i type="logical" name="LWAVE"> F  </i>
   <i type="logical" name="LDOWNSAMPLE"> F  </i>
   <i type="logical" name="LCHARG"> T  </i>
   <i type="logical" name="LPARD"> F  </i>
   <i type="logical" name="LVTOT"> T  </i>
   <i type="logical" name="LVHAR"> F  </i>
   <i type="logical" name="LELF"> F  </i>
   <i type="logical" name="LOPTICS"> F  </i>
   <v name="STM">      0.00000000      0.00000000      0.00000000      0.00000000      0.00000000      0.00000000      0.00000000</v>
  </separator>
  <separator name="performance" >
   <i type="int" name="NPAR">     4</i>
   <i type="int" name="NSIM">     4</i>
   <i type="int" name="NBLK">    -1</i>
   <i type="logical" name="LPLANE"> T  </i>
   <i type="logical" name="LSCALAPACK"> T  </i>
   <i type="logical" name="LSCAAWARE"> F  </i>
   <i type="logical" name="LSCALU"> F  </i>
   <i type="logical" name="LASYNC"> F  </i>
   <i type="logical" name="LORBITALREAL"> F  </i>
  </separator>
  <separator name="miscellaneous" >
   <i type="int" name="IDIOT">     3</i>
   <i type="int" name="PHON_NSTRUCT">    -1</i>
   <i type="logical" name="LMUSIC"> F  </i>
   <v name="POMASS">      1.00000000     12.01100000     14.00100000    126.90400000    207.20000000</v>
   <v name="DARWINR">      0.00000000      0.00000000      0.00000000      0.00000000      0.00000000</v>
   <v name="DARWINV">      1.00000000      1.00000000      1.00000000      1.00000000      1.00000000</v>
   <i type="logical" name="LCORR"> T  </i>
  </separator>
  <i type="logical" name="GGA_COMPAT"> F  </i>
  <i type="logical" name="LBERRY"> F  </i>
  <i type="int" name="ICORELEVEL">     0</i>
  <i type="logical" name="LDAU"> F  </i>
  <i type="int" name="I_CONSTRAINED_M">     0</i>
  <separator name="electronic exchange-correlation" >
   <i type="string" name="GGA">--</i>
   <i type="int" name="VOSKOWN">     0</i>
   <i type="logical" name="LHFCALC"> F  </i>
   <i type="string" name="PRECFOCK"></i>
   <i type="logical" name="LSYMGRAD"> F  </i>
   <i type="logical" name="LHFONE"> F  </i>
   <i type="logical" name="LRHFCALC"> F  </i>
   <i type="logical" name="LTHOMAS"> F  </i>
   <i type="logical" name="LMODELHF"> F  </i>
   <i type="logical" name="LFOCKACE"> F  </i>
   <i name="ENCUT4O">     -1.00000000</i>
   <i type="int" name="EXXOEP">     0</i>
   <i type="int" name="FOURORBIT">     0</i>
   <i name="AEXX">      0.00000000</i>
   <i name="HFALPHA">      0.00000000</i>
   <i name="MCALPHA">      0.00000000</i>
   <i name="ALDAX">      1.00000000</i>
   <i name="AGGAX">      1.00000000</i>
   <i name="ALDAC">      1.00000000</i>
   <i name="AGGAC">      1.00000000</i>
   <i type="int" name="NKREDX">     1</i>
   <i type="int" name="NKREDY">     1</i>
   <i type="int" name="NKREDZ">     1</i>
   <i type="logical" name="SHIFTRED"> F  </i>
   <i type="logical" name="ODDONLY"> F  </i>
   <i type="logical" name="EVENONLY"> F  </i>
   <i type="int" name="LMAXFOCK">     0</i>
   <i type="int" name="NMAXFOCKAE">     0</i>
   <i type="logical" name="LFOCKAEDFT"> F  </i>
   <i name="HFSCREEN">      0.00000000</i>
   <i name="HFSCREENC">      0.00000000</i>
   <i type="int" name="NBANDSGWLOW">     0</i>
  </separator>
  <separator name="vdW DFT" >
   <i type="logical" name="LUSE_VDW"> F  </i>
   <i name="Zab_VDW">     -0.84910000</i>
   <i name="PARAM1">      0.12340000</i>
   <i name="PARAM2">      1.00000000</i>
   <i name="PARAM3">      0.00000000</i>
  </separator>
  <separator name="model GW" >
   <i type="int" name="MODEL_GW">     0</i>
   <i name="MODEL_EPS0">     37.63423484</i>
   <i name="MODEL_ALPHA">      1.00000000</i>
  </separator>
  <separator name="linear response parameters" >
   <i type="logical" name="LEPSILON"> F  </i>
   <i type="logical" name="LRPA"> F  </i>
   <i type="logical" name="LNABLA"> F  </i>
   <i type="logical" name="LVEL"> F  </i>
   <i type="int" name="KINTER">     0</i>
   <i name="CSHIFT">      0.10000000</i>
   <i name="OMEGAMAX">     -1.00000000</i>
   <i name="DEG_THRESHOLD">      0.00200000</i>
   <i name="RTIME">     -0.10000000</i>
   <i name="WPLASMAI">      0.00000000</i>
   <v name="DFIELD">      0.00000000      0.00000000      0.00000000</v>
   <v name="WPLASMA">      0.00000000      0.00000000      0.00000000      0.00000000      0.00000000      0.00000000      0.00000000      0.00000000      0.00000000</v>
  </separator>
  <separator name="orbital magnetization" >
   <i type="logical" name="NUCIND"> F  </i>
   <v name="MAGPOS">      0.00000000      0.00000000      0.00000000</v>
   <i type="logical" name="LNICSALL"> T  </i>
   <i type="logical" name="ORBITALMAG"> F  </i>
   <i type="logical" name="LMAGBLOCH"> F  </i>
   <i type="logical" name="LCHIMAG"> F  </i>
   <i type="logical" name="LGAUGE"> T  </i>
   <i type="int" name="MAGATOM">     0</i>
   <v name="MAGDIPOL">      0.00000000      0.00000000      0.00000000</v>
   <v name="AVECCONST">      0.00000000      0.00000000      0.00000000</v>
  </separator>
  <separator name="response functions" >
   <i type="logical" name="LFINITE_TEMPERATURE"> F  </i>
   <i type="logical" name="LADDER"> F  </i>
   <i type="logical" name="LRPAFORCE"> F  </i>
   <i type="logical" name="LFXC"> F  </i>
   <i type="logical" name="LHARTREE"> T  </i>
   <i type="int" name="IBSE">     0</i>
   <v type="int" name="KPOINT">    -1     0     0     0</v>
   <i type="logical" name="LTCTC"> F  </i>
   <i type="logical" name="LTCTE"> F  </i>
   <i type="logical" name="LTETE"> F  </i>
   <i type="logical" name="LTRIPLET"> F  </i>
   <i type="logical" name="LFXCEPS"> F  </i>
   <i type="logical" name="LFXHEG"> F  </i>
   <i type="int" name="NATURALO">     2</i>
   <i type="logical" name="LHOLEGF"> F  </i>
   <i type="logical" name="L2ORDER"> F  </i>
   <i type="logical" name="LDMP1"> F  </i>
   <i type="logical" name="LMP2LT"> F  </i>
   <i type="logical" name="LSMP2LT"> F  </i>
   <i type="logical" name="LGWLF"> F  </i>
   <i name="ENCUTGW">     -2.00000000</i>
   <i name="ENCUTGWSOFT">     -2.00000000</i>
   <i name="ENCUTLF">     -1.00000000</i>
   <i type="logical" name="LESF_SPLINES"> F  </i>
   <i type="int" name="LMAXMP2">    -1</i>
   <i name="SCISSOR">      0.00000000</i>
   <i type="int" name="NOMEGA">     0</i>
   <i type="int" name="NOMEGAR">     0</i>
   <i type="int" name="NBANDSGW">    -1</i>
   <i type="int" name="NBANDSO">    -1</i>
   <i type="int" name="NBANDSV">    -1</i>
   <i type="int" name="NELM">   600</i>
   <i type="int" name="NELMHF">     1</i>
   <i type="int" name="DIM">     3</i>
   <i type="int" name="IESPILON">     4</i>
   <i type="int" name="ANTIRES">     0</i>
   <i name="OMEGAMAX">    -30.00000000</i>
   <i name="OMEGAMIN">    -30.00000000</i>
   <i name="OMEGATL">   -200.00000000</i>
   <i type="int" name="OMEGAGRID">     0</i>
   <i name="CSHIFT">     -0.10000000</i>
   <i type="logical" name="LSELFENERGY"> F  </i>
   <i type="logical" name="LSPECTRAL"> F  </i>
   <i type="logical" name="LSPECTRALGW"> F  </i>
   <i type="logical" name="LSINGLES"> F  </i>
   <i type="logical" name="LFERMIGW"> F  </i>
   <i type="logical" name="ODDONLYGW"> F  </i>
   <i type="logical" name="EVENONLYGW"> F  </i>
   <i type="int" name="NKREDLFX">     1</i>
   <i type="int" name="NKREDLFY">     1</i>
   <i type="int" name="NKREDLFZ">     1</i>
   <i type="int" name="MAXMEM">  2800</i>
   <i type="int" name="TELESCOPE">     0</i>
   <i type="int" name="NTAUPAR">    -1</i>
   <i type="int" name="NOMEGAPAR">    -1</i>
   <i name="DAMP_NEWTON">      0.80000001</i>
   <i name="LAMBDA">      1.00000000</i>
  </separator>
  <separator name="External order field" >
   <i name="OFIELD_KAPPA">      0.00000000</i>
   <v name="OFIELD_K">      0.00000000      0.00000000      0.00000000</v>
   <i name="OFIELD_Q6_NEAR">      0.00000000</i>
   <i name="OFIELD_Q6_FAR">      0.00000000</i>
   <i name="OFIELD_A">      0.00000000</i>
  </separator>
 </parameters>
 <atominfo>
  <atoms>     325 </atoms>
  <types>       5 </types>
  <array name="atoms" >
   <dimension dim="1">ion</dimension>
   <field type="string">element</field>
   <field type="int">atomtype</field>
   <set>
    <rc><c>H </c><c>   1</c></rc>
    <rc><c>H </c><c>   1</c></rc>
    <rc><c>H </c><c>   1</c></rc>
    <rc><c>H </c><c>   1</c></rc>
    <rc><c>H </c><c>   1</c></rc>
    <rc><c>H </c><c>   1</c></rc>
    <rc><c>H </c><c>   1</c></rc>
    <rc><c>H </c><c>   1</c></rc>
    <rc><c>H </c><c>   1</c></rc>
    <rc><c>H </c><c>   1</c></rc>
    <rc><c>H </c><c>   1</c></rc>
    <rc><c>H </c><c>   1</c></rc>
    <rc><c>H </c><c>   1</c></rc>
    <rc><c>H </c><c>   1</c></rc>
    <rc><c>H </c><c>   1</c></rc>
    <rc><c>H </c><c>   1</c></rc>
    <rc><c>H </c><c>   1</c></rc>
    <rc><c>H </c><c>   1</c></rc>
    <rc><c>H </c><c>   1</c></rc>
    <rc><c>H </c><c>   1</c></rc>
    <rc><c>H </c><c>   1</c></rc>
    <rc><c>H </c><c>   1</c></rc>
    <rc><c>H </c><c>   1</c></rc>
    <rc><c>H </c><c>   1</c></rc>
    <rc><c>H </c><c>   1</c></rc>
    <rc><c>H </c><c>   1</c></rc>
    <rc><c>H </c><c>   1</c></rc>
    <rc><c>H </c><c>   1</c></rc>
    <rc><c>H </c><c>   1</c></rc>
    <rc><c>H </c><c>   1</c></rc>
    <rc><c>H </c><c>   1</c></rc>
    <rc><c>H </c><c>   1</c></rc>
    <rc><c>H </c><c>   1</c></rc>
    <rc><c>H </c><c>   1</c></rc>
    <rc><c>H </c><c>   1</c></rc>
    <rc><c>H </c><c>   1</c></rc>
    <rc><c>H </c><c>   1</c></rc>
    <rc><c>H </c><c>   1</c></rc>
    <rc><c>H </c><c>   1</c></rc>
    <rc><c>H </c><c>   1</c></rc>
    <rc><c>H </c><c>   1</c></rc>
    <rc><c>H </c><c>   1</c></rc>
    <rc><c>H </c><c>   1</c></rc>
    <rc><c>H </c><c>   1</c></rc>
    <rc><c>H </c><c>   1</c></rc>
    <rc><c>H </c><c>   1</c></rc>
    <rc><c>H </c><c>   1</c></rc>
    <rc><c>H </c><c>   1</c></rc>
    <rc><c>H </c><c>   1</c></rc>
    <rc><c>H </c><c>   1</c></rc>
    <rc><c>H </c><c>   1</c></rc>
    <rc><c>H </c><c>   1</c></rc>
    <rc><c>H </c><c>   1</c></rc>
    <rc><c>H </c><c>   1</c></rc>
    <rc><c>H </c><c>   1</c></rc>
    <rc><c>H </c><c>   1</c></rc>
    <rc><c>H </c><c>   1</c></rc>
    <rc><c>H </c><c>   1</c></rc>
    <rc><c>H </c><c>   1</c></rc>
    <rc><c>H </c><c>   1</c></rc>
    <rc><c>H </c><c>   1</c></rc>
    <rc><c>H </c><c>   1</c></rc>
    <rc><c>H </c><c>   1</c></rc>
    <rc><c>H </c><c>   1</c></rc>
    <rc><c>H </c><c>   1</c></rc>
    <rc><c>H </c><c>   1</c></rc>
    <rc><c>H </c><c>   1</c></rc>
    <rc><c>H </c><c>   1</c></rc>
    <rc><c>H </c><c>   1</c></rc>
    <rc><c>H </c><c>   1</c></rc>
    <rc><c>H </c><c>   1</c></rc>
    <rc><c>H </c><c>   1</c></rc>
    <rc><c>H </c><c>   1</c></rc>
    <rc><c>H </c><c>   1</c></rc>
    <rc><c>H </c><c>   1</c></rc>
    <rc><c>H </c><c>   1</c></rc>
    <rc><c>H </c><c>   1</c></rc>
    <rc><c>H </c><c>   1</c></rc>
    <rc><c>H </c><c>   1</c></rc>
    <rc><c>H </c><c>   1</c></rc>
    <rc><c>H </c><c>   1</c></rc>
    <rc><c>H </c><c>   1</c></rc>
    <rc><c>H </c><c>   1</c></rc>
    <rc><c>H </c><c>   1</c></rc>
    <rc><c>H </c><c>   1</c></rc>
    <rc><c>H </c><c>   1</c></rc>
    <rc><c>H </c><c>   1</c></rc>
    <rc><c>H </c><c>   1</c></rc>
    <rc><c>H </c><c>   1</c></rc>
    <rc><c>H </c><c>   1</c></rc>
    <rc><c>H </c><c>   1</c></rc>
    <rc><c>H </c><c>   1</c></rc>
    <rc><c>H </c><c>   1</c></rc>
    <rc><c>H </c><c>   1</c></rc>
    <rc><c>H </c><c>   1</c></rc>
    <rc><c>H </c><c>   1</c></rc>
    <rc><c>H </c><c>   1</c></rc>
    <rc><c>H </c><c>   1</c></rc>
    <rc><c>H </c><c>   1</c></rc>
    <rc><c>H </c><c>   1</c></rc>
    <rc><c>H </c><c>   1</c></rc>
    <rc><c>H </c><c>   1</c></rc>
    <rc><c>H </c><c>   1</c></rc>
    <rc><c>H </c><c>   1</c></rc>
    <rc><c>H </c><c>   1</c></rc>
    <rc><c>H </c><c>   1</c></rc>
    <rc><c>H </c><c>   1</c></rc>
    <rc><c>H </c><c>   1</c></rc>
    <rc><c>H </c><c>   1</c></rc>
    <rc><c>H </c><c>   1</c></rc>
    <rc><c>H </c><c>   1</c></rc>
    <rc><c>H </c><c>   1</c></rc>
    <rc><c>H </c><c>   1</c></rc>
    <rc><c>H </c><c>   1</c></rc>
    <rc><c>H </c><c>   1</c></rc>
    <rc><c>H </c><c>   1</c></rc>
    <rc><c>H </c><c>   1</c></rc>
    <rc><c>H </c><c>   1</c></rc>
    <rc><c>H </c><c>   1</c></rc>
    <rc><c>H </c><c>   1</c></rc>
    <rc><c>H </c><c>   1</c></rc>
    <rc><c>H </c><c>   1</c></rc>
    <rc><c>H </c><c>   1</c></rc>
    <rc><c>H </c><c>   1</c></rc>
    <rc><c>H </c><c>   1</c></rc>
    <rc><c>H </c><c>   1</c></rc>
    <rc><c>H </c><c>   1</c></rc>
    <rc><c>H </c><c>   1</c></rc>
    <rc><c>H </c><c>   1</c></rc>
    <rc><c>H </c><c>   1</c></rc>
    <rc><c>H </c><c>   1</c></rc>
    <rc><c>H </c><c>   1</c></rc>
    <rc><c>H </c><c>   1</c></rc>
    <rc><c>H </c><c>   1</c></rc>
    <rc><c>H </c><c>   1</c></rc>
    <rc><c>H </c><c>   1</c></rc>
    <rc><c>H </c><c>   1</c></rc>
    <rc><c>H </c><c>   1</c></rc>
    <rc><c>H </c><c>   1</c></rc>
    <rc><c>H </c><c>   1</c></rc>
    <rc><c>H </c><c>   1</c></rc>
    <rc><c>H </c><c>   1</c></rc>
    <rc><c>H </c><c>   1</c></rc>
    <rc><c>C </c><c>   2</c></rc>
    <rc><c>C </c><c>   2</c></rc>
    <rc><c>C </c><c>   2</c></rc>
    <rc><c>C </c><c>   2</c></rc>
    <rc><c>C </c><c>   2</c></rc>
    <rc><c>C </c><c>   2</c></rc>
    <rc><c>C </c><c>   2</c></rc>
    <rc><c>C </c><c>   2</c></rc>
    <rc><c>C </c><c>   2</c></rc>
    <rc><c>C </c><c>   2</c></rc>
    <rc><c>C </c><c>   2</c></rc>
    <rc><c>C </c><c>   2</c></rc>
    <rc><c>C </c><c>   2</c></rc>
    <rc><c>C </c><c>   2</c></rc>
    <rc><c>C </c><c>   2</c></rc>
    <rc><c>C </c><c>   2</c></rc>
    <rc><c>C </c><c>   2</c></rc>
    <rc><c>C </c><c>   2</c></rc>
    <rc><c>C </c><c>   2</c></rc>
    <rc><c>C </c><c>   2</c></rc>
    <rc><c>C </c><c>   2</c></rc>
    <rc><c>C </c><c>   2</c></rc>
    <rc><c>C </c><c>   2</c></rc>
    <rc><c>C </c><c>   2</c></rc>
    <rc><c>C </c><c>   2</c></rc>
    <rc><c>C </c><c>   2</c></rc>
    <rc><c>C </c><c>   2</c></rc>
    <rc><c>C </c><c>   2</c></rc>
    <rc><c>C </c><c>   2</c></rc>
    <rc><c>C </c><c>   2</c></rc>
    <rc><c>C </c><c>   2</c></rc>
    <rc><c>C </c><c>   2</c></rc>
    <rc><c>C </c><c>   2</c></rc>
    <rc><c>C </c><c>   2</c></rc>
    <rc><c>C </c><c>   2</c></rc>
    <rc><c>C </c><c>   2</c></rc>
    <rc><c>C </c><c>   2</c></rc>
    <rc><c>C </c><c>   2</c></rc>
    <rc><c>C </c><c>   2</c></rc>
    <rc><c>N </c><c>   3</c></rc>
    <rc><c>N </c><c>   3</c></rc>
    <rc><c>N </c><c>   3</c></rc>
    <rc><c>N </c><c>   3</c></rc>
    <rc><c>N </c><c>   3</c></rc>
    <rc><c>N </c><c>   3</c></rc>
    <rc><c>N </c><c>   3</c></rc>
    <rc><c>N </c><c>   3</c></rc>
    <rc><c>N </c><c>   3</c></rc>
    <rc><c>N </c><c>   3</c></rc>
    <rc><c>N </c><c>   3</c></rc>
    <rc><c>N </c><c>   3</c></rc>
    <rc><c>N </c><c>   3</c></rc>
    <rc><c>N </c><c>   3</c></rc>
    <rc><c>N </c><c>   3</c></rc>
    <rc><c>N </c><c>   3</c></rc>
    <rc><c>N </c><c>   3</c></rc>
    <rc><c>N </c><c>   3</c></rc>
    <rc><c>N </c><c>   3</c></rc>
    <rc><c>N </c><c>   3</c></rc>
    <rc><c>N </c><c>   3</c></rc>
    <rc><c>N </c><c>   3</c></rc>
    <rc><c>N </c><c>   3</c></rc>
    <rc><c>N </c><c>   3</c></rc>
    <rc><c>N </c><c>   3</c></rc>
    <rc><c>N </c><c>   3</c></rc>
    <rc><c>N </c><c>   3</c></rc>
    <rc><c>N </c><c>   3</c></rc>
    <rc><c>N </c><c>   3</c></rc>
    <rc><c>N </c><c>   3</c></rc>
    <rc><c>N </c><c>   3</c></rc>
    <rc><c>N </c><c>   3</c></rc>
    <rc><c>N </c><c>   3</c></rc>
    <rc><c>N </c><c>   3</c></rc>
    <rc><c>N </c><c>   3</c></rc>
    <rc><c>N </c><c>   3</c></rc>
    <rc><c>N </c><c>   3</c></rc>
    <rc><c>N </c><c>   3</c></rc>
    <rc><c>N </c><c>   3</c></rc>
    <rc><c>N </c><c>   3</c></rc>
    <rc><c>N </c><c>   3</c></rc>
    <rc><c>N </c><c>   3</c></rc>
    <rc><c>N </c><c>   3</c></rc>
    <rc><c>N </c><c>   3</c></rc>
    <rc><c>N </c><c>   3</c></rc>
    <rc><c>N </c><c>   3</c></rc>
    <rc><c>N </c><c>   3</c></rc>
    <rc><c>I </c><c>   4</c></rc>
    <rc><c>I </c><c>   4</c></rc>
    <rc><c>I </c><c>   4</c></rc>
    <rc><c>I </c><c>   4</c></rc>
    <rc><c>I </c><c>   4</c></rc>
    <rc><c>I </c><c>   4</c></rc>
    <rc><c>I </c><c>   4</c></rc>
    <rc><c>I </c><c>   4</c></rc>
    <rc><c>I </c><c>   4</c></rc>
    <rc><c>I </c><c>   4</c></rc>
    <rc><c>I </c><c>   4</c></rc>
    <rc><c>I </c><c>   4</c></rc>
    <rc><c>I </c><c>   4</c></rc>
    <rc><c>I </c><c>   4</c></rc>
    <rc><c>I </c><c>   4</c></rc>
    <rc><c>I </c><c>   4</c></rc>
    <rc><c>I </c><c>   4</c></rc>
    <rc><c>I </c><c>   4</c></rc>
    <rc><c>I </c><c>   4</c></rc>
    <rc><c>I </c><c>   4</c></rc>
    <rc><c>I </c><c>   4</c></rc>
    <rc><c>I </c><c>   4</c></rc>
    <rc><c>I </c><c>   4</c></rc>
    <rc><c>I </c><c>   4</c></rc>
    <rc><c>I </c><c>   4</c></rc>
    <rc><c>I </c><c>   4</c></rc>
    <rc><c>I </c><c>   4</c></rc>
    <rc><c>I </c><c>   4</c></rc>
    <rc><c>I </c><c>   4</c></rc>
    <rc><c>I </c><c>   4</c></rc>
    <rc><c>I </c><c>   4</c></rc>
    <rc><c>I </c><c>   4</c></rc>
    <rc><c>I </c><c>   4</c></rc>
    <rc><c>I </c><c>   4</c></rc>
    <rc><c>I </c><c>   4</c></rc>
    <rc><c>I </c><c>   4</c></rc>
    <rc><c>I </c><c>   4</c></rc>
    <rc><c>I </c><c>   4</c></rc>
    <rc><c>I </c><c>   4</c></rc>
    <rc><c>I </c><c>   4</c></rc>
    <rc><c>I </c><c>   4</c></rc>
    <rc><c>I </c><c>   4</c></rc>
    <rc><c>I </c><c>   4</c></rc>
    <rc><c>I </c><c>   4</c></rc>
    <rc><c>I </c><c>   4</c></rc>
    <rc><c>I </c><c>   4</c></rc>
    <rc><c>I </c><c>   4</c></rc>
    <rc><c>I </c><c>   4</c></rc>
    <rc><c>I </c><c>   4</c></rc>
    <rc><c>I </c><c>   4</c></rc>
    <rc><c>I </c><c>   4</c></rc>
    <rc><c>I </c><c>   4</c></rc>
    <rc><c>I </c><c>   4</c></rc>
    <rc><c>I </c><c>   4</c></rc>
    <rc><c>I </c><c>   4</c></rc>
    <rc><c>I </c><c>   4</c></rc>
    <rc><c>I </c><c>   4</c></rc>
    <rc><c>I </c><c>   4</c></rc>
    <rc><c>I </c><c>   4</c></rc>
    <rc><c>I </c><c>   4</c></rc>
    <rc><c>I </c><c>   4</c></rc>
    <rc><c>I </c><c>   4</c></rc>
    <rc><c>I </c><c>   4</c></rc>
    <rc><c>I </c><c>   4</c></rc>
    <rc><c>I </c><c>   4</c></rc>
    <rc><c>I </c><c>   4</c></rc>
    <rc><c>I </c><c>   4</c></rc>
    <rc><c>I </c><c>   4</c></rc>
    <rc><c>I </c><c>   4</c></rc>
    <rc><c>I </c><c>   4</c></rc>
    <rc><c>I </c><c>   4</c></rc>
    <rc><c>I </c><c>   4</c></rc>
    <rc><c>Pb</c><c>   5</c></rc>
    <rc><c>Pb</c><c>   5</c></rc>
    <rc><c>Pb</c><c>   5</c></rc>
    <rc><c>Pb</c><c>   5</c></rc>
    <rc><c>Pb</c><c>   5</c></rc>
    <rc><c>Pb</c><c>   5</c></rc>
    <rc><c>Pb</c><c>   5</c></rc>
    <rc><c>Pb</c><c>   5</c></rc>
    <rc><c>Pb</c><c>   5</c></rc>
    <rc><c>Pb</c><c>   5</c></rc>
    <rc><c>Pb</c><c>   5</c></rc>
    <rc><c>Pb</c><c>   5</c></rc>
    <rc><c>Pb</c><c>   5</c></rc>
    <rc><c>Pb</c><c>   5</c></rc>
    <rc><c>Pb</c><c>   5</c></rc>
    <rc><c>Pb</c><c>   5</c></rc>
    <rc><c>Pb</c><c>   5</c></rc>
    <rc><c>Pb</c><c>   5</c></rc>
    <rc><c>Pb</c><c>   5</c></rc>
    <rc><c>Pb</c><c>   5</c></rc>
    <rc><c>Pb</c><c>   5</c></rc>
    <rc><c>Pb</c><c>   5</c></rc>
    <rc><c>Pb</c><c>   5</c></rc>
    <rc><c>Pb</c><c>   5</c></rc>
   </set>
  </array>
  <array name="atomtypes" >
   <dimension dim="1">type</dimension>
   <field type="int">atomspertype</field>
   <field type="string">element</field>
   <field>mass</field>
   <field>valence</field>
   <field type="string">pseudopotential</field>
   <set>
    <rc><c> 143</c><c>H </c><c>      1.00000000</c><c>      1.00000000</c><c>  PAW_PBE H 15Jun2001                   </c></rc>
    <rc><c>  39</c><c>C </c><c>     12.01100000</c><c>      4.00000000</c><c>  PAW_PBE C 08Apr2002                   </c></rc>
    <rc><c>  47</c><c>N </c><c>     14.00100000</c><c>      5.00000000</c><c>  PAW_PBE N 08Apr2002                   </c></rc>
    <rc><c>  72</c><c>I </c><c>    126.90400000</c><c>      7.00000000</c><c>  PAW_PBE I 08Apr2002                   </c></rc>
    <rc><c>  24</c><c>Pb</c><c>    207.20000000</c><c>      4.00000000</c><c>  PAW_PBE Pb 08Apr2002                  </c></rc>
   </set>
  </array>
 </atominfo>
 <structure name="initialpos" >
  <crystal>
   <varray name="basis" >
    <v>      18.06080055       0.00000000       0.00000000 </v>
    <v>      -0.00491865      18.06279945       0.00000000 </v>
    <v>       0.00000000       0.00000000      62.48749924 </v>
   </varray>
   <i name="volume">  20385.21054034 </i>
   <varray name="rec_basis" >
    <v>       0.05536853       0.00001508      -0.00000000 </v>
    <v>       0.00000000       0.05536240       0.00000000 </v>
    <v>       0.00000000      -0.00000000       0.01600320 </v>
   </varray>
  </crystal>
  <varray name="positions" >
   <v>       0.40785940       0.28299144       0.56248000 </v>
   <v>       0.41525064       0.69602552       0.57172306 </v>
   <v>       0.92605351       0.29246448       0.57997361 </v>
   <v>       0.92858168       0.81573607       0.57299779 </v>
   <v>       0.32344165       0.09197403       0.56359704 </v>
   <v>       0.32316523       0.57401441       0.56883356 </v>
   <v>       0.80102739       0.10227687       0.56588668 </v>
   <v>       0.11020529       0.24143727       0.56204772 </v>
   <v>       0.07823553       0.68133165       0.56943305 </v>
   <v>       0.58593499       0.18696426       0.56496182 </v>
   <v>       0.59946592       0.75940235       0.55884749 </v>
   <v>       0.37796436       0.01776227       0.55425118 </v>
   <v>       0.25445073       0.62245910       0.55476294 </v>
   <v>       0.87532876       0.04668795       0.55651072 </v>
   <v>       0.06379472       0.28854612       0.58218517 </v>
   <v>       0.99248914       0.69458921       0.58167536 </v>
   <v>       0.49169927       0.17290325       0.57055656 </v>
   <v>       0.55180486       0.69310300       0.57378939 </v>
   <v>       0.30849981       0.43780631       0.57214141 </v>
   <v>       0.18964189       0.06848566       0.56909014 </v>
   <v>       0.68253790       0.03375214       0.57336523 </v>
   <v>       0.45491875       0.36486584       0.55552914 </v>
   <v>       0.37450558       0.76204735       0.55486446 </v>
   <v>       0.88499217       0.24344994       0.55919363 </v>
   <v>       0.97554689       0.87326503       0.55532158 </v>
   <v>       0.23438669       0.39759978       0.55860367 </v>
   <v>       0.15513543       0.98471892       0.56002522 </v>
   <v>       0.68064328       0.94057752       0.56510155 </v>
   <v>       0.57089707       0.30737439       0.55496403 </v>
   <v>       0.49143825       0.81113396       0.54493010 </v>
   <v>       0.00004583       0.20357399       0.54504761 </v>
   <v>       0.07158697       0.79005896       0.54975083 </v>
   <v>       0.18947864       0.51269611       0.54652771 </v>
   <v>       0.27249177       0.94065492       0.55017584 </v>
   <v>       0.80192539       0.94104733       0.55404288 </v>
   <v>       0.45429072       0.29552041       0.67284185 </v>
   <v>       0.44204138       0.81414153       0.67069225 </v>
   <v>       0.95842791       0.28368784       0.67706102 </v>
   <v>       0.91348031       0.73899471       0.66536587 </v>
   <v>       0.29784246       0.04224920       0.67481948 </v>
   <v>       0.30154033       0.56054408       0.67334220 </v>
   <v>       0.79783163       0.05250941       0.67533417 </v>
   <v>       0.83239824       0.48035677       0.66704003 </v>
   <v>       0.09109758       0.17103595       0.64698261 </v>
   <v>       0.10747776       0.69991000       0.65397394 </v>
   <v>       0.57767398       0.16368649       0.64657201 </v>
   <v>       0.57460854       0.67388036       0.65179608 </v>
   <v>       0.18581349       0.41140994       0.65130056 </v>
   <v>       0.16326340       0.92929693       0.64521358 </v>
   <v>       0.63599997       0.47734546       0.65312087 </v>
   <v>       0.67306031       0.91824057       0.64990593 </v>
   <v>       0.06355209       0.18869976       0.67313744 </v>
   <v>       0.02595879       0.65630924       0.66202817 </v>
   <v>       0.54580708       0.18771285       0.67187694 </v>
   <v>       0.54329852       0.71363661       0.67560846 </v>
   <v>       0.21461356       0.44673799       0.67589227 </v>
   <v>       0.18512996       0.95355479       0.67154014 </v>
   <v>       0.69952094       0.43544813       0.67027121 </v>
   <v>       0.69767354       0.94931155       0.67530987 </v>
   <v>       0.43739197       0.33746850       0.64827871 </v>
   <v>       0.41697524       0.82953897       0.64404343 </v>
   <v>       0.92648307       0.31973703       0.65289756 </v>
   <v>       0.92688447       0.83064292       0.65817437 </v>
   <v>       0.34179647       0.06220673       0.65097060 </v>
   <v>       0.31985739       0.58917141       0.64721508 </v>
   <v>       0.82764314       0.07906470       0.64983353 </v>
   <v>       0.84682400       0.55087196       0.64834251 </v>
   <v>       0.00651567       0.25225137       0.63217100 </v>
   <v>       0.05061780       0.81414871       0.64913716 </v>
   <v>       0.51282559       0.25642408       0.62939768 </v>
   <v>       0.49775833       0.74316917       0.63035295 </v>
   <v>       0.25973778       0.99413795       0.63041766 </v>
   <v>       0.24911183       0.49766312       0.63147787 </v>
   <v>       0.75257211       0.99621198       0.63219963 </v>
   <v>       0.72419130       0.55339083       0.63740538 </v>
   <v>       0.44874502       0.30128397       0.76888902 </v>
   <v>       0.44874501       0.80128391       0.76888902 </v>
   <v>       0.94874497       0.30128397       0.76888902 </v>
   <v>       0.94874501       0.80128391       0.76888902 </v>
   <v>       0.30127600       0.05129450       0.76887296 </v>
   <v>       0.30127601       0.55129450       0.76887296 </v>
   <v>       0.80127594       0.05129450       0.76887296 </v>
   <v>       0.80127598       0.55129450       0.76887296 </v>
   <v>       0.07877100       0.17118050       0.74344197 </v>
   <v>       0.07877101       0.67118045       0.74344197 </v>
   <v>       0.57877100       0.17118050       0.74344197 </v>
   <v>       0.57877099       0.67118045       0.74344197 </v>
   <v>       0.17119950       0.42117448       0.74342103 </v>
   <v>       0.17119950       0.92117451       0.74342103 </v>
   <v>       0.67119951       0.42117448       0.74342103 </v>
   <v>       0.67119950       0.92117451       0.74342103 </v>
   <v>       0.05125600       0.19871499       0.76888902 </v>
   <v>       0.05125600       0.69871493       0.76888902 </v>
   <v>       0.55125603       0.19871499       0.76888902 </v>
   <v>       0.55125602       0.69871493       0.76888902 </v>
   <v>       0.19872349       0.44870397       0.76887205 </v>
   <v>       0.19872349       0.94870397       0.76887205 </v>
   <v>       0.69872352       0.44870397       0.76887205 </v>
   <v>       0.69872351       0.94870397       0.76887205 </v>
   <v>       0.42123152       0.32881747       0.74344197 </v>
   <v>       0.42123151       0.82881744       0.74344197 </v>
   <v>       0.92123147       0.32881747       0.74344197 </v>
   <v>       0.92123151       0.82881744       0.74344197 </v>
   <v>       0.32880050       0.07882500       0.74342103 </v>
   <v>       0.32880049       0.57882496       0.74342103 </v>
   <v>       0.82880048       0.07882500       0.74342103 </v>
   <v>       0.82880052       0.57882496       0.74342103 </v>
   <v>       0.00000350       0.25000148       0.72582199 </v>
   <v>       0.00000350       0.75000145       0.72582199 </v>
   <v>       0.50000351       0.25000148       0.72582199 </v>
   <v>       0.50000350       0.75000145       0.72582199 </v>
   <v>       0.25000050       0.00000000       0.72580398 </v>
   <v>       0.25000052       0.50000000       0.72580398 </v>
   <v>       0.75000050       0.00000000       0.72580398 </v>
   <v>       0.75000049       0.50000000       0.72580398 </v>
   <v>       0.79935664       0.50830386       0.51406540 </v>
   <v>       0.87832303       0.50058204       0.53090972 </v>
   <v>       0.75906153       0.61905755       0.53205075 </v>
   <v>       0.75719994       0.62197632       0.56028644 </v>
   <v>       0.68722982       0.44402229       0.54985674 </v>
   <v>       0.66888371       0.53635233       0.55749017 </v>
   <v>       0.79634114       0.42339323       0.56638727 </v>
   <v>       0.86467326       0.49376037       0.56879107 </v>
   <v>       0.85727848       0.37390760       0.53896943 </v>
   <v>       0.76307650       0.37648791       0.53225062 </v>
   <v>       0.78442592       0.38287297       0.49493505 </v>
   <v>       0.87747049       0.40912663       0.49750704 </v>
   <v>       0.89689485       0.61774157       0.53156964 </v>
   <v>       0.89960307       0.60546035       0.55985502 </v>
   <v>       0.86428790       0.68861974       0.54885630 </v>
   <v>       0.60043317       0.50908363       0.52528268 </v>
   <v>       0.68042394       0.48269793       0.51064788 </v>
   <v>       0.66648852       0.57661982       0.51887057 </v>
   <v>       0.70569024       0.50251739       0.58733757 </v>
   <v>       0.77649535       0.57074776       0.59078210 </v>
   <v>       0.78663286       0.48104420       0.60144049 </v>
   <v>       0.82098509       0.25782005       0.51225010 </v>
   <v>       0.84733626       0.27406432       0.48576030 </v>
   <v>       0.92444575       0.15944745       0.49858190 </v>
   <v>       0.97342131       0.38459135       0.51726563 </v>
   <v>       0.05585187       0.12632819       0.50373891 </v>
   <v>       0.10309773       0.35121610       0.52218483 </v>
   <v>       0.14719590       0.22255425       0.51533336 </v>
   <v>       0.99770733       0.23830808       0.55948275 </v>
   <v>       0.02582284       0.77518353       0.56037881 </v>
   <v>       0.52149716       0.27529409       0.55892936 </v>
   <v>       0.48764228       0.76293552       0.55545827 </v>
   <v>       0.24135939       0.51004128       0.55562303 </v>
   <v>       0.26707722       0.99709802       0.55633027 </v>
   <v>       0.77799591       0.99270385       0.56008584 </v>
   <v>       0.00864728       0.24533667       0.64950253 </v>
   <v>       0.01828006       0.76701176       0.65522169 </v>
   <v>       0.50746579       0.25069825       0.64682475 </v>
   <v>       0.49571357       0.75152863       0.64775218 </v>
   <v>       0.25288650       0.49992830       0.64894046 </v>
   <v>       0.25186971       0.99598204       0.64772355 </v>
   <v>       0.74085839       0.51469265       0.65008211 </v>
   <v>       0.75052590       0.99806280       0.64969587 </v>
   <v>       0.49998898       0.24999498       0.74327702 </v>
   <v>       0.49998903       0.74999496       0.74327702 </v>
   <v>       0.99998898       0.24999498       0.74327702 </v>
   <v>       0.99998903       0.74999496       0.74327702 </v>
   <v>       0.25000050       0.00000100       0.74325596 </v>
   <v>       0.25000052       0.50000100       0.74325596 </v>
   <v>       0.75000050       0.00000100       0.74325596 </v>
   <v>       0.75000049       0.50000100       0.74325596 </v>
   <v>       0.93845744       0.27444684       0.50706275 </v>
   <v>       0.96375538       0.20220216       0.50363546 </v>
   <v>       0.99039102       0.32768253       0.51373837 </v>
   <v>       0.03815663       0.18321030       0.50629258 </v>
   <v>       0.06474011       0.30869708       0.51659753 </v>
   <v>       0.08939779       0.23660990       0.51259673 </v>
   <v>       0.82057432       0.48230744       0.52880419 </v>
   <v>       0.78817950       0.60077651       0.54646636 </v>
   <v>       0.69494886       0.50204095       0.54515964 </v>
   <v>       0.80471663       0.48350917       0.56808567 </v>
   <v>       0.81753495       0.39818908       0.52767769 </v>
   <v>       0.83426109       0.37368588       0.50462333 </v>
   <v>       0.86744665       0.62848854       0.54658747 </v>
   <v>       0.66012127       0.51849820       0.52355046 </v>
   <v>       0.76538270       0.51225435       0.58768688 </v>
   <v>       0.85767687       0.29224289       0.50232716 </v>
   <v>       0.06042989       0.25645333       0.56861568 </v>
   <v>       0.03051905       0.71148553       0.57031390 </v>
   <v>       0.53261358       0.20530779       0.56389086 </v>
   <v>       0.54979458       0.73461752       0.56251998 </v>
   <v>       0.45679321       0.30859288       0.55810027 </v>
   <v>       0.42175521       0.73718803       0.56046030 </v>
   <v>       0.93260373       0.25967391       0.56654703 </v>
   <v>       0.96931490       0.82091183       0.56159145 </v>
   <v>       0.26357432       0.44451553       0.56226566 </v>
   <v>       0.20016156       0.01876052       0.56168064 </v>
   <v>       0.70796915       0.99033085       0.56582680 </v>
   <v>       0.32615684       0.03906977       0.55759792 </v>
   <v>       0.27665641       0.57195049       0.55949124 </v>
   <v>       0.82055120       0.05152519       0.56106217 </v>
   <v>       0.05712885       0.19847518       0.65722899 </v>
   <v>       0.05223622       0.70346413       0.65725939 </v>
   <v>       0.54579132       0.19730594       0.65586867 </v>
   <v>       0.54007554       0.71031907       0.65948487 </v>
   <v>       0.21594341       0.44994704       0.65969774 </v>
   <v>       0.19683055       0.95797943       0.65562778 </v>
   <v>       0.68959377       0.47228643       0.65829347 </v>
   <v>       0.70503344       0.95235591       0.65923366 </v>
   <v>       0.46379501       0.29731031       0.65683365 </v>
   <v>       0.44846752       0.80107425       0.65491169 </v>
   <v>       0.96194122       0.28496750       0.66081735 </v>
   <v>       0.94821988       0.77879816       0.65964707 </v>
   <v>       0.29886682       0.03583241       0.65868692 </v>
   <v>       0.29382019       0.55298841       0.65729113 </v>
   <v>       0.79415903       0.04645267       0.65915552 </v>
   <v>       0.81114153       0.51521255       0.65568199 </v>
   <v>       0.04586250       0.20411950       0.75272599 </v>
   <v>       0.04586250       0.70411946       0.75272599 </v>
   <v>       0.54586251       0.20411950       0.75272599 </v>
   <v>       0.54586250       0.70411946       0.75272599 </v>
   <v>       0.20411900       0.45410100       0.75270499 </v>
   <v>       0.20411899       0.95410095       0.75270499 </v>
   <v>       0.70411898       0.45410100       0.75270499 </v>
   <v>       0.70411896       0.95410095       0.75270499 </v>
   <v>       0.45414002       0.29588849       0.75272697 </v>
   <v>       0.45414001       0.79588852       0.75272697 </v>
   <v>       0.95414002       0.29588849       0.75272697 </v>
[...]
   <v>       0.58593499       0.18696426       0.56496182 </v>
   <v>       0.59946592       0.75940235       0.55884749 </v>
   <v>       0.37796436       0.01776227       0.55425118 </v>
   <v>       0.25445073       0.62245910       0.55476294 </v>
   <v>       0.87532876       0.04668795       0.55651072 </v>
   <v>       0.06379472       0.28854612       0.58218517 </v>
   <v>       0.99248914       0.69458921       0.58167536 </v>
   <v>       0.49169927       0.17290325       0.57055656 </v>
   <v>       0.55180486       0.69310300       0.57378939 </v>
   <v>       0.30849981       0.43780631       0.57214141 </v>
   <v>       0.18964189       0.06848566       0.56909014 </v>
   <v>       0.68253790       0.03375214       0.57336523 </v>
   <v>       0.45491875       0.36486584       0.55552914 </v>
   <v>       0.37450558       0.76204735       0.55486446 </v>
   <v>       0.88499217       0.24344994       0.55919363 </v>
   <v>       0.97554689       0.87326503       0.55532158 </v>
   <v>       0.23438669       0.39759978       0.55860367 </v>
   <v>       0.15513543       0.98471892       0.56002522 </v>
   <v>       0.68064328       0.94057752       0.56510155 </v>
   <v>       0.57089707       0.30737439       0.55496403 </v>
   <v>       0.49143825       0.81113396       0.54493010 </v>
   <v>       0.00004583       0.20357399       0.54504761 </v>
   <v>       0.07158697       0.79005896       0.54975083 </v>
   <v>       0.18947864       0.51269611       0.54652771 </v>
   <v>       0.27249177       0.94065492       0.55017584 </v>
   <v>       0.80192539       0.94104733       0.55404288 </v>
   <v>       0.45429072       0.29552041       0.67284185 </v>
   <v>       0.44204138       0.81414153       0.67069225 </v>
   <v>       0.95842791       0.28368784       0.67706102 </v>
   <v>       0.91348031       0.73899471       0.66536587 </v>
   <v>       0.29784246       0.04224920       0.67481948 </v>
   <v>       0.30154033       0.56054408       0.67334220 </v>
   <v>       0.79783163       0.05250941       0.67533417 </v>
   <v>       0.83239824       0.48035677       0.66704003 </v>
   <v>       0.09109758       0.17103595       0.64698261 </v>
   <v>       0.10747776       0.69991000       0.65397394 </v>
   <v>       0.57767398       0.16368649       0.64657201 </v>
   <v>       0.57460854       0.67388036       0.65179608 </v>
   <v>       0.18581349       0.41140994       0.65130056 </v>
   <v>       0.16326340       0.92929693       0.64521358 </v>
   <v>       0.63599997       0.47734546       0.65312087 </v>
   <v>       0.67306031       0.91824057       0.64990593 </v>
   <v>       0.06355209       0.18869976       0.67313744 </v>
   <v>       0.02595879       0.65630924       0.66202817 </v>
   <v>       0.54580708       0.18771285       0.67187694 </v>
   <v>       0.54329852       0.71363661       0.67560846 </v>
   <v>       0.21461356       0.44673799       0.67589227 </v>
   <v>       0.18512996       0.95355479       0.67154014 </v>
   <v>       0.69952094       0.43544813       0.67027121 </v>
   <v>       0.69767354       0.94931155       0.67530987 </v>
   <v>       0.43739197       0.33746850       0.64827871 </v>
   <v>       0.41697524       0.82953897       0.64404343 </v>
   <v>       0.92648307       0.31973703       0.65289756 </v>
   <v>       0.92688447       0.83064292       0.65817437 </v>
   <v>       0.34179647       0.06220673       0.65097060 </v>
   <v>       0.31985739       0.58917141       0.64721508 </v>
   <v>       0.82764314       0.07906470       0.64983353 </v>
   <v>       0.84682400       0.55087196       0.64834251 </v>
   <v>       0.00651567       0.25225137       0.63217100 </v>
   <v>       0.05061780       0.81414871       0.64913716 </v>
   <v>       0.51282559       0.25642408       0.62939768 </v>
   <v>       0.49775833       0.74316917       0.63035295 </v>
   <v>       0.25973778       0.99413795       0.63041766 </v>
   <v>       0.24911183       0.49766312       0.63147787 </v>
   <v>       0.75257211       0.99621198       0.63219963 </v>
   <v>       0.72419130       0.55339083       0.63740538 </v>
   <v>       0.44874502       0.30128397       0.76888902 </v>
   <v>       0.44874501       0.80128391       0.76888902 </v>
   <v>       0.94874497       0.30128397       0.76888902 </v>
   <v>       0.94874501       0.80128391       0.76888902 </v>
   <v>       0.30127600       0.05129450       0.76887296 </v>
   <v>       0.30127601       0.55129450       0.76887296 </v>
   <v>       0.80127594       0.05129450       0.76887296 </v>
   <v>       0.80127598       0.55129450       0.76887296 </v>
   <v>       0.07877100       0.17118050       0.74344197 </v>
   <v>       0.07877101       0.67118045       0.74344197 </v>
   <v>       0.57877100       0.17118050       0.74344197 </v>
   <v>       0.57877099       0.67118045       0.74344197 </v>
   <v>       0.17119950       0.42117448       0.74342103 </v>
   <v>       0.17119950       0.92117451       0.74342103 </v>
   <v>       0.67119951       0.42117448       0.74342103 </v>
   <v>       0.67119950       0.92117451       0.74342103 </v>
   <v>       0.05125600       0.19871499       0.76888902 </v>
   <v>       0.05125600       0.69871493       0.76888902 </v>
   <v>       0.55125603       0.19871499       0.76888902 </v>
   <v>       0.55125602       0.69871493       0.76888902 </v>
   <v>       0.19872349       0.44870397       0.76887205 </v>
   <v>       0.19872349       0.94870397       0.76887205 </v>
   <v>       0.69872352       0.44870397       0.76887205 </v>
   <v>       0.69872351       0.94870397       0.76887205 </v>
   <v>       0.42123152       0.32881747       0.74344197 </v>
   <v>       0.42123151       0.82881744       0.74344197 </v>
   <v>       0.92123147       0.32881747       0.74344197 </v>
   <v>       0.92123151       0.82881744       0.74344197 </v>
   <v>       0.32880050       0.07882500       0.74342103 </v>
   <v>       0.32880049       0.57882496       0.74342103 </v>
   <v>       0.82880048       0.07882500       0.74342103 </v>
   <v>       0.82880052       0.57882496       0.74342103 </v>
   <v>       0.00000350       0.25000148       0.72582199 </v>
   <v>       0.00000350       0.75000145       0.72582199 </v>
   <v>       0.50000351       0.25000148       0.72582199 </v>
   <v>       0.50000350       0.75000145       0.72582199 </v>
   <v>       0.25000050       0.00000000       0.72580398 </v>
   <v>       0.25000052       0.50000000       0.72580398 </v>
   <v>       0.75000050       0.00000000       0.72580398 </v>
   <v>       0.75000049       0.50000000       0.72580398 </v>
   <v>       0.79935664       0.50830386       0.51406540 </v>
   <v>       0.87832303       0.50058204       0.53090972 </v>
   <v>       0.75906153       0.61905755       0.53205075 </v>
   <v>       0.75719994       0.62197632       0.56028644 </v>
   <v>       0.68722982       0.44402229       0.54985674 </v>
   <v>       0.66888371       0.53635233       0.55749017 </v>
   <v>       0.79634114       0.42339323       0.56638727 </v>
   <v>       0.86467326       0.49376037       0.56879107 </v>
   <v>       0.85727848       0.37390760       0.53896943 </v>
   <v>       0.76307650       0.37648791       0.53225062 </v>
   <v>       0.78442592       0.38287297       0.49493505 </v>
   <v>       0.87747049       0.40912663       0.49750704 </v>
   <v>       0.89689485       0.61774157       0.53156964 </v>
   <v>       0.89960307       0.60546035       0.55985502 </v>
   <v>       0.86428790       0.68861974       0.54885630 </v>
   <v>       0.60043317       0.50908363       0.52528268 </v>
   <v>       0.68042394       0.48269793       0.51064788 </v>
   <v>       0.66648852       0.57661982       0.51887057 </v>
   <v>       0.70569024       0.50251739       0.58733757 </v>
   <v>       0.77649535       0.57074776       0.59078210 </v>
   <v>       0.78663286       0.48104420       0.60144049 </v>
   <v>       0.82098509       0.25782005       0.51225010 </v>
   <v>       0.84733626       0.27406432       0.48576030 </v>
   <v>       0.92444575       0.15944745       0.49858190 </v>
   <v>       0.97342131       0.38459135       0.51726563 </v>
   <v>       0.05585187       0.12632819       0.50373891 </v>
   <v>       0.10309773       0.35121610       0.52218483 </v>
   <v>       0.14719590       0.22255425       0.51533336 </v>
   <v>       0.99770733       0.23830808       0.55948275 </v>
   <v>       0.02582284       0.77518353       0.56037881 </v>
   <v>       0.52149716       0.27529409       0.55892936 </v>
   <v>       0.48764228       0.76293552       0.55545827 </v>
   <v>       0.24135939       0.51004128       0.55562303 </v>
   <v>       0.26707722       0.99709802       0.55633027 </v>
   <v>       0.77799591       0.99270385       0.56008584 </v>
   <v>       0.00864728       0.24533667       0.64950253 </v>
   <v>       0.01828006       0.76701176       0.65522169 </v>
   <v>       0.50746579       0.25069825       0.64682475 </v>
   <v>       0.49571357       0.75152863       0.64775218 </v>
   <v>       0.25288650       0.49992830       0.64894046 </v>
   <v>       0.25186971       0.99598204       0.64772355 </v>
   <v>       0.74085839       0.51469265       0.65008211 </v>
   <v>       0.75052590       0.99806280       0.64969587 </v>
   <v>       0.49998898       0.24999498       0.74327702 </v>
   <v>       0.49998903       0.74999496       0.74327702 </v>
   <v>       0.99998898       0.24999498       0.74327702 </v>
   <v>       0.99998903       0.74999496       0.74327702 </v>
   <v>       0.25000050       0.00000100       0.74325596 </v>
   <v>       0.25000052       0.50000100       0.74325596 </v>
   <v>       0.75000050       0.00000100       0.74325596 </v>
   <v>       0.75000049       0.50000100       0.74325596 </v>
   <v>       0.93845744       0.27444684       0.50706275 </v>
   <v>       0.96375538       0.20220216       0.50363546 </v>
   <v>       0.99039102       0.32768253       0.51373837 </v>
   <v>       0.03815663       0.18321030       0.50629258 </v>
   <v>       0.06474011       0.30869708       0.51659753 </v>
   <v>       0.08939779       0.23660990       0.51259673 </v>
   <v>       0.82057432       0.48230744       0.52880419 </v>
   <v>       0.78817950       0.60077651       0.54646636 </v>
   <v>       0.69494886       0.50204095       0.54515964 </v>
   <v>       0.80471663       0.48350917       0.56808567 </v>
   <v>       0.81753495       0.39818908       0.52767769 </v>
   <v>       0.83426109       0.37368588       0.50462333 </v>
   <v>       0.86744665       0.62848854       0.54658747 </v>
   <v>       0.66012127       0.51849820       0.52355046 </v>
   <v>       0.76538270       0.51225435       0.58768688 </v>
   <v>       0.85767687       0.29224289       0.50232716 </v>
   <v>       0.06042989       0.25645333       0.56861568 </v>
   <v>       0.03051905       0.71148553       0.57031390 </v>
   <v>       0.53261358       0.20530779       0.56389086 </v>
   <v>       0.54979458       0.73461752       0.56251998 </v>
   <v>       0.45679321       0.30859288       0.55810027 </v>
   <v>       0.42175521       0.73718803       0.56046030 </v>
   <v>       0.93260373       0.25967391       0.56654703 </v>
   <v>       0.96931490       0.82091183       0.56159145 </v>
   <v>       0.26357432       0.44451553       0.56226566 </v>
   <v>       0.20016156       0.01876052       0.56168064 </v>
   <v>       0.70796915       0.99033085       0.56582680 </v>
   <v>       0.32615684       0.03906977       0.55759792 </v>
   <v>       0.27665641       0.57195049       0.55949124 </v>
   <v>       0.82055120       0.05152519       0.56106217 </v>
   <v>       0.05712885       0.19847518       0.65722899 </v>
   <v>       0.05223622       0.70346413       0.65725939 </v>
   <v>       0.54579132       0.19730594       0.65586867 </v>
   <v>       0.54007554       0.71031907       0.65948487 </v>
   <v>       0.21594341       0.44994704       0.65969774 </v>
   <v>       0.19683055       0.95797943       0.65562778 </v>
   <v>       0.68959377       0.47228643       0.65829347 </v>
   <v>       0.70503344       0.95235591       0.65923366 </v>
   <v>       0.46379501       0.29731031       0.65683365 </v>
   <v>       0.44846752       0.80107425       0.65491169 </v>
   <v>       0.96194122       0.28496750       0.66081735 </v>
   <v>       0.94821988       0.77879816       0.65964707 </v>
   <v>       0.29886682       0.03583241       0.65868692 </v>
   <v>       0.29382019       0.55298841       0.65729113 </v>
   <v>       0.79415903       0.04645267       0.65915552 </v>
   <v>       0.81114153       0.51521255       0.65568199 </v>
   <v>       0.04586250       0.20411950       0.75272599 </v>
   <v>       0.04586250       0.70411946       0.75272599 </v>
   <v>       0.54586251       0.20411950       0.75272599 </v>
   <v>       0.54586250       0.70411946       0.75272599 </v>
   <v>       0.20411900       0.45410100       0.75270499 </v>
   <v>       0.20411899       0.95410095       0.75270499 </v>
   <v>       0.70411898       0.45410100       0.75270499 </v>
   <v>       0.70411896       0.95410095       0.75270499 </v>
   <v>       0.45414002       0.29588849       0.75272697 </v>
   <v>       0.45414001       0.79588852       0.75272697 </v>
   <v>       0.95414002       0.29588849       0.75272697 </v>
   <v>       0.95414006       0.79588852       0.75272697 </v>
   <v>       0.29588249       0.04590050       0.75270499 </v>
   <v>       0.29588248       0.54590053       0.75270499 </v>
   <v>       0.79588244       0.04590050       0.75270499 </v>
   <v>       0.79588248       0.54590053       0.75270499 </v>
   <v>       0.77781157       0.51719927       0.54699863 </v>
   <v>       0.51114700       0.98084057       0.55292877 </v>
   <v>       0.47327912       0.50988030       0.55318511 </v>
   <v>       0.00790308       0.01283006       0.55113056 </v>
   <v>       0.03169069       0.48938782       0.55441283 </v>
   <v>       0.25780683       0.24035803       0.55450764 </v>
   <v>       0.23001437       0.76639746       0.55085481 </v>
   <v>       0.73481559       0.22921645       0.55465299 </v>
   <v>       0.73060935       0.79552854       0.55419013 </v>
   <v>       0.99616753       0.98385008       0.65417717 </v>
   <v>       0.00892653       0.50460671       0.65511754 </v>
   <v>       0.49741736       0.00149471       0.65444749 </v>
   <v>       0.49391888       0.50178667       0.65403298 </v>
   <v>       0.26303439       0.24099617       0.65528670 </v>
   <v>       0.24584619       0.75524352       0.65362493 </v>
   <v>       0.74410245       0.26349699       0.65536778 </v>
   <v>       0.74909392       0.73445300       0.65495595 </v>
   <v>       0.13572283       0.11779995       0.60895127 </v>
   <v>       0.14729009       0.60851026       0.60623283 </v>
   <v>       0.63893201       0.11232814       0.60879498 </v>
   <v>       0.61855955       0.63056038       0.60748625 </v>
   <v>       0.36755563       0.38464581       0.60810594 </v>
   <v>       0.36431508       0.88566166       0.60558292 </v>
   <v>       0.88733443       0.36560099       0.61164761 </v>
   <v>       0.86236125       0.89083431       0.60599914 </v>
   <v>       0.12655669       0.36923002       0.61121454 </v>
   <v>       0.11554163       0.87268172       0.60575354 </v>
   <v>       0.61496754       0.36689960       0.60173211 </v>
   <v>       0.61557297       0.86318727       0.61215106 </v>
   <v>       0.39602084       0.13959389       0.60370815 </v>
   <v>       0.37908123       0.63336483       0.60742288 </v>
   <v>       0.88217239       0.13402702       0.61222243 </v>
   <v>       0.90213262       0.64751794       0.61015585 </v>
   <v>       0.00000000       0.00000000       0.75492797 </v>
   <v>       0.00000000       0.50000000       0.75492797 </v>
   <v>       0.50000000       0.00000000       0.75492797 </v>
   <v>       0.49999999       0.50000000       0.75492797 </v>
   <v>       0.25000050       0.25000000       0.75493902 </v>
   <v>       0.25000051       0.74999997       0.75493902 </v>
   <v>       0.75000047       0.25000000       0.75493902 </v>
   <v>       0.75000046       0.74999997       0.75493902 </v>
   <v>       0.13579050       0.11421000       0.70478299 </v>
   <v>       0.13579050       0.61420998       0.70478299 </v>
   <v>       0.63579045       0.11421000       0.70478299 </v>
   <v>       0.63579049       0.61420998       0.70478299 </v>
   <v>       0.36420952       0.38578999       0.70478299 </v>
   <v>       0.36420950       0.88578996       0.70478299 </v>
   <v>       0.86420954       0.38578999       0.70478299 </v>
   <v>       0.86420953       0.88578996       0.70478299 </v>
   <v>       0.11421799       0.36421899       0.70478098 </v>
   <v>       0.11421799       0.86421899       0.70478098 </v>
   <v>       0.61421800       0.36421899       0.70478098 </v>
   <v>       0.61421799       0.86421899       0.70478098 </v>
   <v>       0.38578201       0.13578149       0.70478202 </v>
   <v>       0.38578200       0.63578149       0.70478202 </v>
   <v>       0.88578199       0.13578149       0.70478202 </v>
   <v>       0.88578203       0.63578149       0.70478202 </v>
   <v>       0.13466700       0.11533200       0.80125603 </v>
   <v>       0.13466699       0.61533199       0.80125603 </v>
   <v>       0.63466699       0.11533200       0.80125603 </v>
   <v>       0.63466698       0.61533199       0.80125603 </v>
   <v>       0.36533300       0.38466799       0.80125603 </v>
   <v>       0.36533299       0.88466796       0.80125603 </v>
   <v>       0.86533295       0.38466799       0.80125603 </v>
   <v>       0.86533294       0.88466796       0.80125603 </v>
   <v>       0.11532850       0.36533700       0.80126500 </v>
   <v>       0.11532850       0.86533698       0.80126500 </v>
   <v>       0.61532850       0.36533700       0.80126500 </v>
   <v>       0.61532849       0.86533698       0.80126500 </v>
   <v>       0.38467151       0.13466300       0.80126500 </v>
   <v>       0.38467150       0.63466297       0.80126500 </v>
   <v>       0.88467149       0.13466300       0.80126500 </v>
   <v>       0.88467153       0.63466297       0.80126500 </v>
   <v>       0.99741105       0.00655415       0.60418225 </v>
   <v>       0.00991638       0.50116319       0.60384178 </v>
   <v>       0.50166793       0.99389614       0.60329822 </v>
   <v>       0.49975972       0.50013104       0.60254007 </v>
   <v>       0.25541007       0.24848824       0.60576380 </v>
   <v>       0.24431742       0.75646843       0.60306746 </v>
   <v>       0.74785749       0.25116070       0.60575446 </v>
   <v>       0.75071335       0.75754244       0.60485950 </v>
   <v>       0.00000050       0.00000050       0.70482896 </v>
   <v>       0.00000050       0.50000048       0.70482896 </v>
   <v>       0.50000048       0.00000050       0.70482896 </v>
   <v>       0.50000046       0.50000048       0.70482896 </v>
   <v>       0.24999999       0.24999947       0.70482499 </v>
   <v>       0.25000001       0.74999950       0.70482499 </v>
   <v>       0.74999999       0.24999947       0.70482499 </v>
   <v>       0.74999998       0.74999950       0.70482499 </v>
   <v>       0.00000000       0.00000000       0.80731797 </v>
   <v>       0.00000000       0.50000000       0.80731797 </v>
   <v>       0.50000000       0.00000000       0.80731797 </v>
   <v>       0.49999999       0.50000000       0.80731797 </v>
   <v>       0.24999999       0.25000000       0.80731797 </v>
   <v>       0.25000001       0.74999997       0.80731797 </v>
   <v>       0.74999999       0.25000000       0.80731797 </v>
   <v>       0.74999998       0.74999997       0.80731797 </v>
  </varray>
 </structure>
</modeling>
