 vasp.6.2.1 16May21 (build Nov 15 2021 14:57:28) complex                         
 executed on             LinuxPGI date 2023.07.30  19:20:02
 running on    4 total cores
 distrk:  each k-point on    4 cores,    1 groups
 distr:  one band on NCORE=   1 cores,    4 groups


--------------------------------------------------------------------------------------------------------


 INCAR:
   SYSTEM = PSC
   ISTART = 1
   ICHARG = 1
   PREC = Normal
   ENCUT = 500
   GGA_COMPAT = F
   NELM = 600
   ISYM = 0
   LREAL = Auto
   ISMEAR = 0
   SIGMA = 0.05
   AMIN = 0.01
   BMIX = 0.01
   LVTOT = T
   LWAVE = F
   LDIPOL = T
   IDIPOL = 3
   LVDW = T
   IVDW = 12

 POTCAR:    PAW_PBE H 15Jun2001                   
 POTCAR:    PAW_PBE C 08Apr2002                   
 POTCAR:    PAW_PBE N 08Apr2002                   
 POTCAR:    PAW_PBE I 08Apr2002                   
 POTCAR:    PAW_PBE Pb 08Apr2002                  
 WARNING: For LVTOT=.TRUE., VASP.5.x writes the TOTAL local potential to the
     file LOCPOT. If you want only the Hartree contributions, use LVHAR=.TRUE.
     instead. 

 POTCAR:    PAW_PBE H 15Jun2001                   
   SHA256 =  030f79b5d3ab3cf0e668861823c8fb652ff669f3e15e46930bd03bfd63a607b6 H/POTCAR              
   COPYR  = (c) Copyright 15Jun2001 Georg Kresse                                                    
   COPYR  = This file is part of the software VASP. Any use, copying, and all other rights are regul
   COPYR  = If you do not have a valid VASP license, you may not use, copy or distribute this file. 
   VRHFIN =H: ultrasoft test                                                                        
   LEXCH  = PE                                                                                      
   EATOM  =    12.4884 eV,    0.9179 Ry                                                             
                                                                                                    
   TITEL  = PAW_PBE H 15Jun2001                                                                     
   LULTRA =        F    use ultrasoft PP ?                                                          
   IUNSCR =        0    unscreen: 0-lin 1-nonlin 2-no                                               
   RPACOR =    0.000    partial core radius                                                         
   POMASS =    1.000; ZVAL   =    1.000    mass and valenz                                          
   RCORE  =    1.100    outmost cutoff radius                                                       
   RWIGS  =    0.700; RWIGS  =    0.370    wigner-seitz radius (au A)                               
   ENMAX  =  250.000; ENMIN  =  200.000 eV                                                          
   RCLOC  =    0.701    cutoff for local pot                                                        
   LCOR   =        T    correct aug charges                                                         
   LPAW   =        T    paw PP                                                                      
   EAUG   =  400.000                                                                                
   RMAX   =    1.123    core radius for proj-oper                                                   
   RAUG   =    1.200    factor for augmentation sphere                                              
   RDEP   =    1.112    radius for radial grids                                                     
   RDEPT  =    0.926    core radius for aug-charge                                                  
                                                                                                    
   Atomic configuration                                                                             
    2 entries                                                                                       
     n  l   j            E        occ.                                                              
     1  0  0.50        -6.4927   1.0000                                                             
     2  1  0.50        -3.4015   0.0000                                                             
   Description                                                                                      
     l       E           TYP  RCUT    TYP  RCUT                                                     
     0     -6.4927494     23  1.100                                                                 
     0      6.8029130     23  1.100                                                                 
     1     -4.0817478     23  1.100                                                                 
  local pseudopotential read in
  atomic valenz-charges read in
  non local Contribution for L=            0  read in
    real space projection operators read in
  non local Contribution for L=            0  read in
    real space projection operators read in
  non local Contribution for L=            1  read in
    real space projection operators read in
    PAW grid and wavefunctions read in
 
   number of l-projection  operators is LMAX  =            3
   number of lm-projection operators is LMMAX =            5
 
 POTCAR:    PAW_PBE C 08Apr2002                   
   SHA256 =  253f7b50bb8d59471dbedb8285d89021f4a42ed1a2c5d38a03a736e69125dd95 C/POTCAR              
   COPYR  = (c) Copyright 08Apr2002 Georg Kresse                                                    
   COPYR  = This file is part of the software VASP. Any use, copying, and all other rights are regul
   COPYR  = If you do not have a valid VASP license, you may not use, copy or distribute this file. 
   VRHFIN =C: s2p2                                                                                  
   LEXCH  = PE                                                                                      
   EATOM  =   147.1560 eV,   10.8157 Ry                                                             
                                                                                                    
   TITEL  = PAW_PBE C 08Apr2002                                                                     
   LULTRA =        F    use ultrasoft PP ?                                                          
   IUNSCR =        1    unscreen: 0-lin 1-nonlin 2-no                                               
   RPACOR =    1.200    partial core radius                                                         
   POMASS =   12.011; ZVAL   =    4.000    mass and valenz                                          
   RCORE  =    1.500    outmost cutoff radius                                                       
   RWIGS  =    1.630; RWIGS  =    0.863    wigner-seitz radius (au A)                               
   ENMAX  =  400.000; ENMIN  =  300.000 eV                                                          
   ICORE  =        2    local potential                                                             
   LCOR   =        T    correct aug charges                                                         
   LPAW   =        T    paw PP                                                                      
   EAUG   =  644.873                                                                                
   DEXC   =    0.000                                                                                
   RMAX   =    1.529    core radius for proj-oper                                                   
   RAUG   =    1.300    factor for augmentation sphere                                              
   RDEP   =    1.501    radius for radial grids                                                     
   RDEPT  =    1.300    core radius for aug-charge                                                  
                                                                                                    
   Atomic configuration                                                                             
    4 entries                                                                                       
     n  l   j            E        occ.                                                              
     1  0  0.50      -273.3789   2.0000                                                             
     2  0  0.50       -13.7508   2.0000                                                             
     2  1  0.50        -5.2854   2.0000                                                             
     3  2  1.50        -5.4423   0.0000                                                             
   Description                                                                                      
     l       E           TYP  RCUT    TYP  RCUT                                                     
     0    -13.7508458     23  1.200                                                                 
     0     -8.2022199     23  1.200                                                                 
     1     -5.2854383     23  1.500                                                                 
     1     34.0145650     23  1.500                                                                 
     2     -5.4423304      7  1.500                                                                 
  local pseudopotential read in
  partial core-charges read in
  partial kinetic energy density read in
  atomic valenz-charges read in
  non local Contribution for L=            0  read in
    real space projection operators read in
  non local Contribution for L=            0  read in
    real space projection operators read in
  non local Contribution for L=            1  read in
    real space projection operators read in
  non local Contribution for L=            1  read in
    real space projection operators read in
    PAW grid and wavefunctions read in
 
   number of l-projection  operators is LMAX  =            4
   number of lm-projection operators is LMMAX =            8
 
 POTCAR:    PAW_PBE N 08Apr2002                   
   SHA256 =  e053789ff3a61a86a1b75d8a110fcc91f86041011e7b0817c7c99e4e8a6349d7 N/POTCAR              
   COPYR  = (c) Copyright 08Apr2002 Georg Kresse                                                    
   COPYR  = This file is part of the software VASP. Any use, copying, and all other rights are regul
   COPYR  = If you do not have a valid VASP license, you may not use, copy or distribute this file. 
   VRHFIN =N: s2p3                                                                                  
   LEXCH  = PE                                                                                      
   EATOM  =   264.5486 eV,   19.4438 Ry                                                             
                                                                                                    
   TITEL  = PAW_PBE N 08Apr2002                                                                     
   LULTRA =        F    use ultrasoft PP ?                                                          
   IUNSCR =        1    unscreen: 0-lin 1-nonlin 2-no                                               
   RPACOR =    1.200    partial core radius                                                         
   POMASS =   14.001; ZVAL   =    5.000    mass and valenz                                          
   RCORE  =    1.500    outmost cutoff radius                                                       
   RWIGS  =    1.400; RWIGS  =    0.741    wigner-seitz radius (au A)                               
   ENMAX  =  400.000; ENMIN  =  300.000 eV                                                          
   ICORE  =        2    local potential                                                             
   LCOR   =        T    correct aug charges                                                         
   LPAW   =        T    paw PP                                                                      
   EAUG   =  627.112                                                                                
   DEXC   =    0.000                                                                                
   RMAX   =    1.529    core radius for proj-oper                                                   
   RAUG   =    1.300    factor for augmentation sphere                                              
   RDEP   =    1.514    radius for radial grids                                                     
   RDEPT  =    1.338    core radius for aug-charge                                                  
                                                                                                    
   Atomic configuration                                                                             
    4 entries                                                                                       
     n  l   j            E        occ.                                                              
     1  0  0.50      -384.7179   2.0000                                                             
     2  0  0.50       -18.5828   2.0000                                                             
     2  1  0.50        -7.0898   3.0000                                                             
     3  2  1.50        -6.8029   0.0000                                                             
   Description                                                                                      
     l       E           TYP  RCUT    TYP  RCUT                                                     
     0    -18.5828119     23  1.200                                                                 
     0    -13.5018863     23  1.200                                                                 
     1     -7.0897853     23  1.500                                                                 
     1      9.5240782     23  1.500                                                                 
     2     -6.8029130      7  1.500                                                                 
  local pseudopotential read in
  partial core-charges read in
  partial kinetic energy density read in
  atomic valenz-charges read in
  non local Contribution for L=            0  read in
    real space projection operators read in
  non local Contribution for L=            0  read in
    real space projection operators read in
  non local Contribution for L=            1  read in
    real space projection operators read in
  non local Contribution for L=            1  read in
    real space projection operators read in
    PAW grid and wavefunctions read in
 
   number of l-projection  operators is LMAX  =            4
   number of lm-projection operators is LMMAX =            8
 
 POTCAR:    PAW_PBE I 08Apr2002                   
   SHA256 =  e40f3f59b681c1fc3e3091736183c4589116986673d2b852a5012aec72758799 I/POTCAR              
   COPYR  = (c) Copyright 08Apr2002 Georg Kresse                                                    
   COPYR  = This file is part of the software VASP. Any use, copying, and all other rights are regul
   COPYR  = If you do not have a valid VASP license, you may not use, copy or distribute this file. 
   VRHFIN =I : s2p5                                                                                 
   LEXCH  = PE                                                                                      
   EATOM  =   315.8678 eV,   23.2156 Ry                                                             
                                                                                                    
   TITEL  = PAW_PBE I 08Apr2002                                                                     
   LULTRA =        F    use ultrasoft PP ?                                                          
   IUNSCR =        1    unscreen: 0-lin 1-nonlin 2-no                                               
   RPACOR =    2.200    partial core radius                                                         
   POMASS =  126.904; ZVAL   =    7.000    mass and valenz                                          
   RCORE  =    2.300    outmost cutoff radius                                                       
   RWIGS  =    2.810; RWIGS  =    1.487    wigner-seitz radius (au A)                               
   ENMAX  =  175.647; ENMIN  =  131.735 eV                                                          
   ICORE  =        3    local potential                                                             
   LCOR   =        T    correct aug charges                                                         
   LPAW   =        T    paw PP                                                                      
   EAUG   =  370.139                                                                                
   DEXC   =    0.000                                                                                
   RMAX   =    2.359    core radius for proj-oper                                                   
   RAUG   =    1.300    factor for augmentation sphere                                              
   RDEP   =    2.392    radius for radial grids                                                     
   RDEPT  =    2.170    core radius for aug-charge                                                  
                                                                                                    
   Atomic configuration                                                                             
   13 entries                                                                                       
     n  l   j            E        occ.                                                              
     1  0  0.50    -32976.3739   2.0000                                                             
     2  0  0.50     -5094.5933   2.0000                                                             
     2  1  1.50     -4572.0131   6.0000                                                             
     3  0  0.50     -1028.2813   2.0000                                                             
     3  1  1.50      -859.0250   6.0000                                                             
     3  2  2.50      -605.7620  10.0000                                                             
     4  0  0.50      -180.5540   2.0000                                                             
     4  1  1.50      -127.5306   6.0000                                                             
     4  2  2.50       -50.2720  10.0000                                                             
     5  0  0.50       -17.4058   2.0000                                                             
     5  1  0.50        -7.0851   5.0000                                                             
     5  2  1.50        -7.0750   0.0000                                                             
     4  3  2.50        -7.0750   0.0000                                                             
   Description                                                                                      
     l       E           TYP  RCUT    TYP  RCUT                                                     
     0    -17.4058016     23  2.300                                                                 
     0    -18.7663842     23  2.300                                                                 
     1     -7.0850686     23  2.300                                                                 
     1     -4.2150896     23  2.300                                                                 
     2     -7.0750295     23  2.300                                                                 
     3     -1.3605826     23  2.300                                                                 
  local pseudopotential read in
  partial core-charges read in
  partial kinetic energy density read in
  atomic valenz-charges read in
  non local Contribution for L=            0  read in
    real space projection operators read in
  non local Contribution for L=            0  read in
    real space projection operators read in
  non local Contribution for L=            1  read in
    real space projection operators read in
  non local Contribution for L=            1  read in
    real space projection operators read in
  non local Contribution for L=            2  read in
    real space projection operators read in
    PAW grid and wavefunctions read in
 
   number of l-projection  operators is LMAX  =            5
   number of lm-projection operators is LMMAX =           13
 
 POTCAR:    PAW_PBE Pb 08Apr2002                  
   SHA256 =  797118a27cf1bcd06b9881c67a26cdde129e3cd1a551dd4a281f9681ce847303 Pb/POTCAR             
   COPYR  = (c) Copyright 08Apr2002 Georg Kresse                                                    
   COPYR  = This file is part of the software VASP. Any use, copying, and all other rights are regul
   COPYR  = If you do not have a valid VASP license, you may not use, copy or distribute this file. 
   VRHFIN =Pb:                                                                                      
   LEXCH  = PE                                                                                      
   EATOM  =    96.9868 eV,    7.1283 Ry                                                             
                                                                                                    
   TITEL  = PAW_PBE Pb 08Apr2002                                                                    
   LULTRA =        F    use ultrasoft PP ?                                                          
   IUNSCR =        1    unscreen: 0-lin 1-nonlin 2-no                                               
   RPACOR =    2.200    partial core radius                                                         
   POMASS =  207.200; ZVAL   =    4.000    mass and valenz                                          
   RCORE  =    3.100    outmost cutoff radius                                                       
   RWIGS  =    3.260; RWIGS  =    1.725    wigner-seitz radius (au A)                               
   ENMAX  =   97.973; ENMIN  =   73.480 eV                                                          
   ICORE  =        3    local potential                                                             
   LCOR   =        T    correct aug charges                                                         
   LPAW   =        T    paw PP                                                                      
   EAUG   =  234.873                                                                                
   DEXC   =    0.000                                                                                
   RMAX   =    3.158    core radius for proj-oper                                                   
   RAUG   =    1.300    factor for augmentation sphere                                              
   RDEP   =    3.202    radius for radial grids                                                     
   RDEPT  =    2.659    core radius for aug-charge                                                  
                                                                                                    
   Atomic configuration                                                                             
   17 entries                                                                                       
     n  l   j            E        occ.                                                              
     1  0  0.50    -88091.8466   2.0000                                                             
     2  0  0.50    -15753.4197   2.0000                                                             
     2  1  1.50    -13508.1797   6.0000                                                             
     3  0  0.50     -3781.7194   2.0000                                                             
     3  1  1.50     -3138.2529   6.0000                                                             
     3  2  2.50     -2483.2977  10.0000                                                             
     4  0  0.50      -856.2895   2.0000                                                             
     4  1  1.50      -645.4943   6.0000                                                             
     4  2  2.50      -401.8768  10.0000                                                             
     4  3  3.50      -132.9059  14.0000                                                             
     5  0  0.50      -144.0950   2.0000                                                             
     5  1  1.50       -85.7879   6.0000                                                             
     5  2  2.50       -21.1769  10.0000                                                             
     6  0  0.50       -12.0372   2.0000                                                             
     6  1  1.50        -3.4971   2.0000                                                             
     6  2  2.50        -1.3606   0.0000                                                             
     5  3  2.50        -2.7212   0.0000                                                             
   Description                                                                                      
     l       E           TYP  RCUT    TYP  RCUT                                                     
     0    -12.0371566     23  3.100                                                                 
     0    -13.3977392     23  3.100                                                                 
     1     -3.4971341     23  3.100                                                                 
     1     -5.4423304     23  3.100                                                                 
     2     -1.3605826     23  3.100                                                                 
     3     -1.3605826     23  3.100                                                                 
  local pseudopotential read in
  partial core-charges read in
  partial kinetic energy density read in
  atomic valenz-charges read in
  non local Contribution for L=            0  read in
    real space projection operators read in
  non local Contribution for L=            0  read in
    real space projection operators read in
  non local Contribution for L=            1  read in
    real space projection operators read in
  non local Contribution for L=            1  read in
    real space projection operators read in
  non local Contribution for L=            2  read in
    real space projection operators read in
    PAW grid and wavefunctions read in
 
   number of l-projection  operators is LMAX  =            5
   number of lm-projection operators is LMMAX =           13
 
 Optimization of the real space projectors (new method)

 maximal supplied QI-value         = 34.20
 optimisation between [QCUT,QGAM] = [ 11.29, 22.57] = [ 35.68,142.71] Ry 
 Optimized for a Real-space Cutoff    1.16 Angstroem

   l    n(q)    QCUT    max X(q) W(low)/X(q) W(high)/X(q)  e(spline) 
   0      8    11.287    19.460    0.40E-03    0.73E-03    0.16E-06
   0      8    11.287    12.209    0.38E-03    0.70E-03    0.15E-06
   1      7    11.287     4.655    0.22E-03    0.25E-04    0.22E-06
 Optimization of the real space projectors (new method)

 maximal supplied QI-value         = 25.13
 optimisation between [QCUT,QGAM] = [ 11.31, 22.87] = [ 35.82,146.48] Ry 
 Optimized for a Real-space Cutoff    1.00 Angstroem

   l    n(q)    QCUT    max X(q) W(low)/X(q) W(high)/X(q)  e(spline) 
   0      7    11.310   115.676    0.43E-03    0.13E-02    0.19E-06
   0      7    11.310    87.132    0.43E-03    0.13E-02    0.18E-06
   1      6    11.310     4.429    0.42E-03    0.74E-03    0.11E-06
   1      6    11.310     2.733    0.34E-03    0.55E-03    0.92E-07
 Optimization of the real space projectors (new method)

 maximal supplied QI-value         = 25.13
 optimisation between [QCUT,QGAM] = [ 11.31, 22.87] = [ 35.82,146.48] Ry 
 Optimized for a Real-space Cutoff    1.27 Angstroem

   l    n(q)    QCUT    max X(q) W(low)/X(q) W(high)/X(q)  e(spline) 
   0      9    11.310    79.467    0.75E-04    0.16E-03    0.36E-06
   0      9    11.310    66.151    0.74E-04    0.16E-03    0.36E-06
   1      8    11.310    17.416    0.35E-03    0.12E-03    0.95E-06
   1      8    11.310    12.382    0.37E-03    0.13E-03    0.98E-06
 Optimization of the real space projectors (new method)

 maximal supplied QI-value         = 16.25
 optimisation between [QCUT,QGAM] = [ 11.38, 22.75] = [ 36.24,144.96] Ry 
 Optimized for a Real-space Cutoff    1.31 Angstroem

   l    n(q)    QCUT    max X(q) W(low)/X(q) W(high)/X(q)  e(spline) 
   0      9    11.376   194.483    0.24E-03    0.23E-03    0.67E-07
   0      9    11.376   190.334    0.23E-03    0.22E-03    0.65E-07
   1      8    11.376   116.687    0.25E-03    0.63E-04    0.16E-06
   1      8    11.376    88.696    0.25E-03    0.61E-04    0.16E-06
   2      8    11.376     4.877    0.17E-03    0.14E-03    0.29E-07
 Optimization of the real space projectors (new method)

 maximal supplied QI-value         = 12.09
 optimisation between [QCUT,QGAM] = [ 11.37, 22.86] = [ 36.19,146.31] Ry 
 Optimized for a Real-space Cutoff    1.66 Angstroem

   l    n(q)    QCUT    max X(q) W(low)/X(q) W(high)/X(q)  e(spline) 
   0     11    11.369   135.111    0.12E-03    0.69E-04    0.19E-05
   0     11    11.369   146.850    0.11E-03    0.65E-04    0.18E-05
   1     11    11.369   148.016    0.17E-03    0.32E-03    0.89E-06
   1     11    11.369   122.989    0.17E-03    0.32E-03    0.91E-06
   2     10    11.369     8.916    0.12E-03    0.45E-04    0.33E-06
  PAW_PBE H 15Jun2001                   :
 energy of atom  1       EATOM=  -12.4884
 kinetic energy error for atom=    0.0020 (will be added to EATOM!!)
  PAW_PBE C 08Apr2002                   :
 energy of atom  2       EATOM= -147.1560
 kinetic energy error for atom=    0.0076 (will be added to EATOM!!)
  PAW_PBE N 08Apr2002                   :
 energy of atom  3       EATOM= -264.5486
 kinetic energy error for atom=    0.0138 (will be added to EATOM!!)
  PAW_PBE I 08Apr2002                   :
 energy of atom  4       EATOM= -315.8678
 kinetic energy error for atom=    0.0009 (will be added to EATOM!!)
  PAW_PBE Pb 08Apr2002                  :
 energy of atom  5       EATOM=  -96.9868
 kinetic energy error for atom=    0.0000 (will be added to EATOM!!)
 
 
 POSCAR:  H  C  N  I Pb
  positions in cartesian coordinates
  No initial velocities read in
 exchange correlation table for  LEXCH =        8
   RHO(1)=    0.500       N(1)  =     2000
   RHO(2)=  100.500       N(2)  =     4000
 


--------------------------------------------------------------------------------------------------------


 ion  position               nearest neighbor table
   1  0.460  0.326  0.575- 187 1.04
   2  0.450  0.843  0.575- 188 1.04
   3  0.921  0.244  0.581- 189 1.02
   4  0.945  0.807  0.580- 190 1.01
   5  0.303  0.064  0.575- 194 1.03
   6  0.320  0.570  0.577- 195 1.03
   7  0.795  0.078  0.579- 196 1.03
   8  0.107  0.241  0.559- 183 1.03
   9  0.095  0.679  0.567- 184 1.03
  10  0.567  0.169  0.556- 185 1.02
  11  0.495  0.650  0.565- 186 1.02
  12  0.362  0.009  0.560- 194 1.01
  13  0.274  0.625  0.558- 195 1.03
  14  0.869  0.028  0.567- 196 1.03
  15  0.060  0.232  0.583- 183 1.03
  16  0.024  0.693  0.585- 184 1.02
  17  0.572  0.249  0.572- 185 1.03
  18  0.466  0.709  0.586- 186 1.02
  19  0.280  0.438  0.579- 191 1.04
  20  0.168  0.039  0.572- 192 1.04
  21  0.673  0.021  0.576- 193 1.04
  22  0.381  0.293  0.562- 187 1.03
  23  0.488  0.868  0.550- 188 1.02
  24  0.879  0.243  0.556- 189 1.03
  25  0.977  0.867  0.561- 190 1.03
  26  0.204  0.413  0.563- 191 1.00
  27  0.141  0.971  0.554- 192 1.02
  28  0.668  0.933  0.563- 193 1.01
  29  0.442  0.190  0.548- 146 1.09
  30  0.519  0.744  0.541- 147 1.10
  31  0.996  0.248  0.539- 144 1.08
  32  0.069  0.790  0.549- 145 1.09
  33  0.194  0.530  0.547- 148 1.10
  34  0.264  0.943  0.544- 149 1.10
  35  0.789  0.931  0.555- 150 1.09
  36  0.464  0.311  0.675- 205 1.03
  37  0.434  0.810  0.673- 206 1.04
  38  0.956  0.279  0.678- 207 1.01
  39  0.925  0.775  0.674- 208 1.04
  40  0.305  0.055  0.674- 209 1.03
  41  0.294  0.540  0.678- 210 1.03
  42  0.790  0.053  0.675- 211 1.03
  43  0.849  0.496  0.667- 212 1.03
  44  0.089  0.175  0.645- 197 1.02
  45  0.096  0.692  0.653- 198 1.02
  46  0.577  0.168  0.649- 199 1.02
  47  0.574  0.677  0.655- 200 1.01
  48  0.176  0.414  0.646- 201 1.03
  49  0.175  0.924  0.650- 202 1.01
  50  0.649  0.479  0.659- 203 1.03
  51  0.673  0.915  0.649- 204 1.01
  52  0.063  0.183  0.672- 197 1.02
  53  0.036  0.684  0.675- 198 1.03
  54  0.569  0.213  0.673- 199 1.03
  55  0.535  0.707  0.678- 200 1.04
  56  0.198  0.433  0.673- 201 1.04
  57  0.202  0.956  0.675- 202 1.03
  58  0.722  0.439  0.674- 203 1.03
  59  0.695  0.947  0.675- 204 1.03
  60  0.414  0.319  0.651- 205 1.02
  61  0.419  0.834  0.647- 206 1.02
  62  0.925  0.320  0.655- 207 1.01
  63  0.925  0.833  0.652- 208 1.02
  64  0.335  0.078  0.648- 209 1.02
  65  0.323  0.581  0.654- 210 1.04
  66  0.824  0.078  0.650- 211 1.02
  67  0.854  0.560  0.646- 212 1.02
  68  0.003  0.262  0.633- 151 1.09
  69  0.031  0.785  0.637- 152 1.08
  70  0.480  0.230  0.633- 153 1.10
  71  0.506  0.753  0.633- 154 1.08
  72  0.255  0.996  0.631- 156 1.09
  73  0.251  0.505  0.633- 155 1.08
  74  0.752  0.993  0.632- 158 1.09
  75  0.725  0.555  0.639- 157 1.08
  76  0.449  0.301  0.769- 221 1.02
  77  0.449  0.801  0.769- 222 1.02
  78  0.949  0.301  0.769- 223 1.02
  79  0.949  0.801  0.769- 224 1.02
  80  0.301  0.051  0.769- 225 1.02
  81  0.301  0.551  0.769- 226 1.02
  82  0.801  0.051  0.769- 227 1.02
  83  0.801  0.551  0.769- 228 1.02
  84  0.079  0.171  0.743- 213 1.02
  85  0.079  0.671  0.743- 214 1.02
  86  0.579  0.171  0.743- 215 1.02
  87  0.579  0.671  0.743- 216 1.02
  88  0.171  0.421  0.743- 217 1.02
  89  0.171  0.921  0.743- 218 1.02
  90  0.671  0.421  0.743- 219 1.02
  91  0.671  0.921  0.743- 220 1.02
  92  0.051  0.199  0.769- 213 1.02
  93  0.051  0.699  0.769- 214 1.02
  94  0.551  0.199  0.769- 215 1.02
  95  0.551  0.699  0.769- 216 1.02
  96  0.199  0.449  0.769- 217 1.02
  97  0.199  0.949  0.769- 218 1.02
  98  0.699  0.449  0.769- 219 1.02
  99  0.699  0.949  0.769- 220 1.02
 100  0.421  0.329  0.743- 221 1.02
 101  0.421  0.829  0.743- 222 1.02
 102  0.921  0.329  0.743- 223 1.02
 103  0.921  0.829  0.743- 224 1.02
 104  0.329  0.079  0.743- 225 1.02
 105  0.329  0.579  0.743- 226 1.02
 106  0.829  0.079  0.743- 227 1.02
 107  0.829  0.579  0.743- 228 1.02
 108  0.000  0.250  0.726- 161 1.09
 109  0.000  0.750  0.726- 162 1.09
 110  0.500  0.250  0.726- 159 1.09
 111  0.500  0.750  0.726- 160 1.09
 112  0.250  0.000  0.726- 163 1.09
 113  0.250  0.500  0.726- 164 1.09
 114  0.750  0.000  0.726- 165 1.09
 115  0.750  0.500  0.726- 166 1.09
 116  0.718  0.438  0.542- 173 1.09
 117  0.736  0.496  0.520- 173 1.09
 118  0.654  0.552  0.561- 174 1.10
 119  0.704  0.636  0.559- 174 1.10
 120  0.844  0.504  0.572- 175 1.09
 121  0.781  0.571  0.582- 175 1.10
 122  0.865  0.559  0.533- 176 1.09
 123  0.793  0.625  0.527- 176 1.10
 124  0.868  0.466  0.519- 177 1.11
 125  0.864  0.427  0.545- 177 1.10
 126  0.873  0.330  0.520- 178 1.10
 127  0.785  0.323  0.531- 178 1.10
 128  0.638  0.549  0.521- 179 1.10
 129  0.690  0.633  0.519- 179 1.09
 130  0.605  0.633  0.533- 179 1.10
 131  0.753  0.451  0.599- 180 1.10
 132  0.745  0.405  0.574- 180 1.11
 133  0.679  0.472  0.582- 180 1.10
 134  0.825  0.687  0.563- 181 1.10
 135  0.895  0.685  0.543- 181 1.11
 136  0.901  0.622  0.566- 181 1.10
 137  0.818  0.388  0.487- 182 1.10
 138  0.785  0.299  0.492- 182 1.10
 139  0.663  0.320  0.523- 168 1.10
 140  0.731  0.461  0.471- 169 1.10
 141  0.538  0.377  0.522- 170 1.09
 142  0.606  0.518  0.469- 171 1.09
 143  0.508  0.475  0.495- 172 1.09
 144  0.994  0.244  0.556-  31 1.08 189 1.31 183 1.32
 145  0.034  0.772  0.562-  32 1.09 190 1.32 184 1.32
 146  0.472  0.229  0.558-  29 1.09 185 1.31 187 1.34
 147  0.496  0.758  0.557-  30 1.10 188 1.31 186 1.31
 148  0.237  0.519  0.559-  33 1.10 195 1.32 191 1.33
 149  0.253  0.987  0.556-  34 1.10 192 1.31 194 1.32
 150  0.769  0.979  0.564-  35 1.09 196 1.31 193 1.32
 151  0.007  0.248  0.650-  68 1.09 197 1.31 207 1.32
 152  0.011  0.763  0.652-  69 1.08 198 1.31 208 1.32
 153  0.496  0.243  0.649-  70 1.10 199 1.31 205 1.32
 154  0.497  0.756  0.650-  71 1.08 200 1.30 206 1.31
 155  0.249  0.498  0.650-  73 1.08 210 1.30 201 1.31
 156  0.255  0.001  0.648-  72 1.09 209 1.31 202 1.32
 157  0.751  0.520  0.651-  75 1.08 212 1.32 203 1.33
 158  0.749  0.996  0.649-  74 1.09 204 1.31 211 1.31
 159  0.500  0.250  0.743- 110 1.09 221 1.31 215 1.31
 160  0.500  0.750  0.743- 111 1.09 222 1.31 216 1.31
 161  1.000  0.250  0.743- 108 1.09 223 1.31 213 1.31
 162  1.000  0.750  0.743- 109 1.09 224 1.31 214 1.31
 163  0.250  0.000  0.743- 112 1.09 225 1.31 218 1.31
 164  0.250  0.500  0.743- 113 1.09 226 1.31 217 1.31
 165  0.750  0.000  0.743- 114 1.09 227 1.31 220 1.31
 166  0.750  0.500  0.743- 115 1.09 228 1.31 219 1.31
 167  0.706  0.387  0.497- 169 1.40 168 1.42 182 1.51
 168  0.650  0.363  0.511- 139 1.10 170 1.39 167 1.42
 169  0.689  0.442  0.482- 140 1.10 167 1.40 171 1.40
 170  0.580  0.395  0.510- 141 1.09 168 1.39 172 1.40
 171  0.618  0.474  0.481- 142 1.09 172 1.39 169 1.40
 172  0.564  0.450  0.495- 143 1.09 171 1.39 170 1.40
 173  0.759  0.475  0.535- 117 1.09 116 1.09 229 1.52 177 1.54
 174  0.692  0.584  0.551- 119 1.10 118 1.10 179 1.51 229 1.55
 175  0.786  0.520  0.572- 120 1.09 121 1.10 180 1.52 229 1.53
 176  0.823  0.594  0.540- 122 1.09 123 1.10 181 1.52 229 1.53
 177  0.832  0.433  0.530- 125 1.10 124 1.11 178 1.52 173 1.54
 178  0.819  0.357  0.520- 126 1.10 127 1.10 177 1.52 182 1.53
 179  0.655  0.599  0.529- 129 1.09 128 1.10 130 1.10 174 1.51
 180  0.738  0.459  0.582- 133 1.10 131 1.10 132 1.11 175 1.52
 181  0.863  0.649  0.554- 134 1.10 136 1.10 135 1.11 176 1.52
 182  0.784  0.356  0.498- 137 1.10 138 1.10 167 1.51 178 1.53
 183  0.057  0.237  0.566-  15 1.03   8 1.03 144 1.32
 184  0.052  0.711  0.572-  16 1.02   9 1.03 145 1.32
 185  0.542  0.216  0.562-  10 1.02  17 1.03 146 1.31
 186  0.489  0.704  0.571-  18 1.02  11 1.02 147 1.31
 187  0.436  0.289  0.564-  22 1.03   1 1.04 146 1.34
 188  0.477  0.827  0.560-  23 1.02   2 1.04 147 1.31
 189  0.927  0.247  0.565-   3 1.02  24 1.03 144 1.31
 190  0.978  0.816  0.567-   4 1.01  25 1.03 145 1.32
 191  0.240  0.451  0.568-  26 1.00  19 1.04 148 1.33
 192  0.184  0.999  0.561-  27 1.02  20 1.04 149 1.31
 193  0.696  0.980  0.567-  28 1.01  21 1.04 150 1.32
 194  0.310  0.023  0.564-  12 1.01   5 1.03 149 1.32
 195  0.282  0.573  0.565-  13 1.03   6 1.03 148 1.32
 196  0.814  0.032  0.570-  14 1.03   7 1.03 150 1.31
 197  0.056  0.199  0.657-  52 1.02  44 1.02 151 1.31
 198  0.050  0.709  0.661-  45 1.02  53 1.03 152 1.31
 199  0.550  0.206  0.658-  46 1.02  54 1.03 153 1.31
 200  0.537  0.711  0.662-  47 1.01  55 1.04 154 1.30
 201  0.206  0.445  0.657-  48 1.03  56 1.04 155 1.31
 202  0.208  0.957  0.658-  49 1.01  57 1.03 156 1.32
 203  0.705  0.475  0.662-  50 1.03  58 1.03 157 1.33
 204  0.702  0.950  0.658-  51 1.01  59 1.03 158 1.31
 205  0.456  0.295  0.659-  60 1.02  36 1.03 153 1.32
 206  0.447  0.803  0.657-  61 1.02  37 1.04 154 1.31
 207  0.960  0.284  0.662-  62 1.01  38 1.01 151 1.32
 208  0.951  0.793  0.660-  63 1.02  39 1.04 152 1.32
 209  0.301  0.047  0.657-  64 1.02  40 1.03 156 1.31
 210  0.291  0.541  0.661-  41 1.03  65 1.04 155 1.30
 211  0.790  0.045  0.659-  66 1.02  42 1.03 158 1.31
 212  0.822  0.525  0.655-  67 1.02  43 1.03 157 1.32
 213  0.046  0.204  0.753-  92 1.02  84 1.02 161 1.31
 214  0.046  0.704  0.753-  93 1.02  85 1.02 162 1.31
 215  0.546  0.204  0.753-  94 1.02  86 1.02 159 1.31
 216  0.546  0.704  0.753-  95 1.02  87 1.02 160 1.31
 217  0.204  0.454  0.753-  96 1.02  88 1.02 164 1.31
 218  0.204  0.954  0.753-  97 1.02  89 1.02 163 1.31
 219  0.704  0.454  0.753-  98 1.02  90 1.02 166 1.31
 220  0.704  0.954  0.753-  99 1.02  91 1.02 165 1.31
 221  0.454  0.296  0.753-  76 1.02 100 1.02 159 1.31
 222  0.454  0.796  0.753-  77 1.02 101 1.02 160 1.31
 223  0.954  0.296  0.753-  78 1.02 102 1.02 161 1.31
 224  0.954  0.796  0.753-  79 1.02 103 1.02 162 1.31
 225  0.296  0.046  0.753-  80 1.02 104 1.02 163 1.31
 226  0.296  0.546  0.753-  81 1.02 105 1.02 164 1.31
 227  0.796  0.046  0.753-  82 1.02 106 1.02 165 1.31
 228  0.796  0.546  0.753-  83 1.02 107 1.02 166 1.31
 229  0.766  0.541  0.550- 173 1.52 175 1.53 176 1.53 174 1.55
 230  0.503  0.017  0.553- 304 3.26
 231  0.483  0.514  0.556- 305 3.07
 232  0.995  0.005  0.552- 302 3.33
 233  0.035  0.506  0.554- 303 3.20
 234  0.245  0.248  0.553- 306 3.20
 235  0.247  0.764  0.552- 307 3.21
 236  0.742  0.213  0.557- 308 3.18
 237  0.706  0.792  0.550- 309 3.36
 238  0.006  0.997  0.655- 302 3.09 310 3.13
 239  0.013  0.491  0.656- 311 3.08 303 3.23
 240  0.502  0.002  0.655- 304 3.11 312 3.13
 241  0.504  0.494  0.655- 313 3.09 305 3.19
 242  0.256  0.245  0.654- 306 3.12 314 3.15
 243  0.250  0.753  0.655- 315 3.13 307 3.19
 244  0.746  0.258  0.656- 316 3.08 308 3.11
 245  0.749  0.746  0.654- 317 3.19 309 3.25
 246  0.140  0.113  0.607- 306 3.19 302 3.27
 247  0.145  0.612  0.611- 303 3.18 307 3.22
 248  0.645  0.110  0.610- 304 3.18 308 3.27
 249  0.622  0.627  0.614- 305 3.22 309 3.23
 250  0.359  0.393  0.610- 305 3.22 306 3.25
 251  0.373  0.883  0.607- 307 3.24 304 3.25
 252  0.885  0.370  0.613- 308 3.23 303 3.34
 253  0.867  0.882  0.610- 302 3.21 309 3.29
 254  0.116  0.360  0.609- 306 3.12 303 3.33
 255  0.120  0.876  0.609- 307 3.16 302 3.25
 256  0.589  0.343  0.605- 308 3.23 305 3.33
 257  0.612  0.863  0.610- 309 3.03 304 3.26
 258  0.383  0.133  0.607- 304 3.16 306 3.24
 259  0.380  0.635  0.614- 305 3.24 307 3.32
 260  0.889  0.143  0.614- 302 3.19 308 3.36
 261  0.912  0.650  0.617- 303 3.19 309 3.80
 262  0.000  0.000  0.755- 310 3.13 318 3.27
 263  0.000  0.500  0.755- 311 3.13 319 3.27
 264  0.500  0.000  0.755- 312 3.13 320 3.27
 265  0.500  0.500  0.755- 313 3.13 321 3.27
 266  0.250  0.250  0.755- 314 3.13 322 3.27
 267  0.250  0.750  0.755- 315 3.13 323 3.27
 268  0.750  0.250  0.755- 316 3.13 324 3.27
 269  0.750  0.750  0.755- 317 3.13 325 3.27
 270  0.136  0.114  0.705- 310 3.20 314 3.20
 271  0.136  0.614  0.705- 311 3.20 315 3.20
 272  0.636  0.114  0.705- 312 3.20 316 3.20
 273  0.636  0.614  0.705- 313 3.20 317 3.20
 274  0.364  0.386  0.705- 313 3.20 314 3.20
 275  0.364  0.886  0.705- 312 3.20 315 3.20
 276  0.864  0.386  0.705- 311 3.20 316 3.20
 277  0.864  0.886  0.705- 310 3.20 317 3.20
 278  0.114  0.364  0.705- 314 3.21 311 3.21
 279  0.114  0.864  0.705- 315 3.21 310 3.21
 280  0.614  0.364  0.705- 316 3.21 313 3.21
 281  0.614  0.864  0.705- 317 3.21 312 3.21
 282  0.386  0.136  0.705- 314 3.21 312 3.21
 283  0.386  0.636  0.705- 315 3.21 313 3.21
 284  0.886  0.136  0.705- 316 3.21 310 3.21
 285  0.886  0.636  0.705- 317 3.21 311 3.21
 286  0.135  0.115  0.801- 318 3.22 322 3.22
 287  0.135  0.615  0.801- 319 3.22 323 3.22
 288  0.635  0.115  0.801- 320 3.22 324 3.22
 289  0.635  0.615  0.801- 321 3.22 325 3.22
 290  0.365  0.385  0.801- 321 3.22 322 3.22
 291  0.365  0.885  0.801- 320 3.22 323 3.22
 292  0.865  0.385  0.801- 319 3.22 324 3.22
 293  0.865  0.885  0.801- 318 3.22 325 3.22
 294  0.115  0.365  0.801- 319 3.23 322 3.23
 295  0.115  0.865  0.801- 318 3.23 323 3.23
 296  0.615  0.365  0.801- 321 3.23 324 3.23
 297  0.615  0.865  0.801- 320 3.23 325 3.23
 298  0.385  0.135  0.801- 320 3.23 322 3.23
 299  0.385  0.635  0.801- 321 3.23 323 3.23
 300  0.885  0.135  0.801- 318 3.23 324 3.23
 301  0.885  0.635  0.801- 319 3.23 325 3.23
 302  0.995  0.004  0.605- 238 3.09 260 3.19 253 3.21 255 3.25 246 3.27 232 3.33
 303  0.005  0.507  0.604- 247 3.18 261 3.19 233 3.20 239 3.23 254 3.33 252 3.34
 304  0.504  0.007  0.605- 240 3.11 258 3.16 248 3.18 251 3.25 230 3.26 257 3.26
 305  0.498  0.503  0.604- 231 3.07 241 3.19 249 3.22 250 3.22 259 3.24 256 3.33
 306  0.249  0.252  0.605- 254 3.12 242 3.12 246 3.19 234 3.20 258 3.24 250 3.25
 307  0.247  0.756  0.604- 255 3.16 243 3.19 235 3.21 247 3.22 251 3.24 259 3.32
 308  0.747  0.259  0.606- 244 3.11 236 3.18 252 3.23 256 3.23 248 3.27 260 3.36
 309  0.739  0.757  0.602- 257 3.03 249 3.23 245 3.25 253 3.29 237 3.36 261 3.80
 310  0.000  0.000  0.705- 238 3.13 262 3.13 270 3.20 277 3.20 279 3.21 284 3.21
 311  0.000  0.500  0.705- 239 3.08 263 3.13 271 3.20 276 3.20 278 3.21 285 3.21
 312  0.500  0.000  0.705- 240 3.13 264 3.13 272 3.20 275 3.20 281 3.21 282 3.21
 313  0.500  0.500  0.705- 241 3.09 265 3.13 273 3.20 274 3.20 280 3.21 283 3.21
 314  0.250  0.250  0.705- 266 3.13 242 3.15 270 3.20 274 3.20 282 3.21 278 3.21
 315  0.250  0.750  0.705- 267 3.13 243 3.13 271 3.20 275 3.20 283 3.21 279 3.21
 316  0.750  0.250  0.705- 244 3.08 268 3.13 272 3.20 276 3.20 284 3.21 280 3.21
 317  0.750  0.750  0.705- 269 3.13 245 3.19 273 3.20 277 3.20 285 3.21 281 3.21
 318  0.000  0.000  0.807- 286 3.22 293 3.22 300 3.23 295 3.23 262 3.27
 319  0.000  0.500  0.807- 287 3.22 292 3.22 301 3.23 294 3.23 263 3.27
 320  0.500  0.000  0.807- 288 3.22 291 3.22 298 3.23 297 3.23 264 3.27
 321  0.500  0.500  0.807- 289 3.22 290 3.22 299 3.23 296 3.23 265 3.27
 322  0.250  0.250  0.807- 290 3.22 286 3.22 294 3.23 298 3.23 266 3.27
 323  0.250  0.750  0.807- 291 3.22 287 3.22 299 3.23 295 3.23 267 3.27
 324  0.750  0.250  0.807- 292 3.22 288 3.22 296 3.23 300 3.23 268 3.27
 325  0.750  0.750  0.807- 293 3.22 289 3.22 297 3.23 301 3.23 269 3.27
 

IMPORTANT INFORMATION: All symmetrisations will be switched off!
NOSYMM: (Re-)initialisation of all symmetry stuff for point group C_1.


----------------------------------------------------------------------------------------

                                     Primitive cell                                     

  volume of cell :   20385.2105

  direct lattice vectors                    reciprocal lattice vectors
    18.060800552  0.000000000  0.000000000     0.055368531  0.000015077 -0.000000000
    -0.004918649 18.062799454  0.000000000     0.000000000  0.055362404  0.000000000
     0.000000000  0.000000000 62.487499237     0.000000000 -0.000000000  0.016003201

  length of vectors
    18.060800552 18.062800123 62.487499237     0.055368533  0.055362404  0.016003201

  position of ions in fractional coordinates (direct lattice)
     0.460311468  0.325876846  0.575280652
     0.450267902  0.843122239  0.574536911
     0.921296399  0.243836951  0.580981926
     0.944543826  0.807007396  0.580010601
     0.303189949  0.063545223  0.575344019
     0.320375714  0.569909016  0.576811292
     0.795250452  0.077959200  0.578591922
     0.106905068  0.240658344  0.558702995
     0.095283741  0.678829304  0.566897444
     0.566569318  0.169432870  0.556358898
     0.495234711  0.650376939  0.565476750
     0.362153550  0.008552522  0.559769065
     0.274398127  0.624945711  0.558034038
     0.869101970  0.028142268  0.566857458
     0.059505714  0.231983101  0.582882819
     0.023592564  0.692737855  0.585446137
     0.572491933  0.248775780  0.572391646
     0.466105198  0.709266229  0.585652843
     0.279710570  0.438171514  0.578992759
     0.168277317  0.038749528  0.572038548
     0.672642945  0.020970409  0.576262843
     0.380514311  0.292568042  0.561637420
     0.488213786  0.868478019  0.549873653
     0.879373135  0.243275764  0.555888833
     0.977214330  0.867498991  0.560600408
     0.203968241  0.412534428  0.562809346
     0.141201675  0.970780019  0.553762310
     0.668388494  0.933270072  0.563049995
     0.442230655  0.190028805  0.547589200
     0.519490139  0.744269945  0.541232704
     0.996062678  0.247890204  0.538841173
     0.068929476  0.789677500  0.548940972
     0.194305786  0.529790259  0.547197947
     0.264381887  0.942886085  0.544041493
     0.789458085  0.931464272  0.554970071
     0.463501133  0.310998796  0.674602397
     0.433851897  0.809713014  0.673437003
     0.956480631  0.278815270  0.678427014
     0.925221535  0.775278880  0.674230619
     0.305369701  0.055483205  0.673706954
     0.294358694  0.539953764  0.677825759
     0.790295615  0.053469791  0.675364634
     0.848603643  0.496225809  0.667200831
     0.088693023  0.174798780  0.645445137
     0.096130990  0.691516381  0.653104750
     0.576828690  0.167540904  0.649182396
     0.573687730  0.677106620  0.654736180
     0.175911249  0.413848088  0.646493809
     0.175298216  0.923511777  0.649565041
     0.648824475  0.479305993  0.658858098
     0.672714154  0.914827287  0.649088627
     0.063251286  0.183482841  0.672332229
     0.036147380  0.684028716  0.674952443
     0.569153099  0.212857146  0.673476745
     0.534504476  0.707111502  0.678453143
     0.198400319  0.432992350  0.673205511
     0.201949274  0.956180095  0.674641223
     0.721841881  0.438696086  0.673565080
     0.694626598  0.946924357  0.674619185
     0.413733241  0.319451603  0.650797953
     0.419161332  0.834199427  0.646586967
     0.925010006  0.320276118  0.655461178
     0.924818603  0.833462793  0.651866893
     0.334946815  0.077873840  0.647811455
     0.322526594  0.580890991  0.653680305
     0.824440773  0.077736882  0.650072649
     0.854009962  0.559922594  0.646374400
     0.003084692  0.261627506  0.633143360
     0.030834330  0.785482353  0.637105334
     0.480101879  0.230137531  0.632918828
     0.506364635  0.753112451  0.633132494
     0.254518974  0.996389148  0.630961954
     0.250827901  0.505450043  0.632616949
     0.752023087  0.992820968  0.631815885
     0.725420716  0.555498411  0.639484716
     0.448745018  0.301283966  0.768889017
     0.448745007  0.801283913  0.768889017
     0.948744965  0.301283966  0.768889017
     0.948745007  0.801283913  0.768889017
     0.301275995  0.051294496  0.768872961
     0.301276011  0.551294499  0.768872961
     0.801275943  0.051294496  0.768872961
     0.801275984  0.551294499  0.768872961
     0.078771004  0.171180501  0.743441971
     0.078771006  0.671180448  0.743441971
     0.578771004  0.171180501  0.743441971
     0.578770992  0.671180448  0.743441971
     0.171199499  0.421174482  0.743421032
     0.171199501  0.921174508  0.743421032
     0.671199512  0.421174482  0.743421032
     0.671199501  0.921174508  0.743421032
     0.051256000  0.198714991  0.768889017
     0.051256002  0.698714925  0.768889017
     0.551256027  0.198714991  0.768889017
     0.551256016  0.698714925  0.768889017
     0.198723491  0.448703970  0.768872046
     0.198723493  0.948703970  0.768872046
     0.698723518  0.448703970  0.768872046
     0.698723507  0.948703970  0.768872046
     0.421231519  0.328817467  0.743441971
     0.421231508  0.828817440  0.743441971
     0.921231466  0.328817467  0.743441971
     0.921231508  0.828817440  0.743441971
     0.328800503  0.078824997  0.743421032
     0.328800492  0.578824964  0.743421032
     0.828800477  0.078824997  0.743421032
     0.828800519  0.578824964  0.743421032
     0.000003500  0.250001478  0.725821992
     0.000003500  0.750001452  0.725821992
     0.500003506  0.250001478  0.725821992
     0.500003495  0.750001452  0.725821992
     0.250000502  0.000000000  0.725803983
     0.250000517  0.500000000  0.725803983
     0.750000502  0.000000000  0.725803983
     0.750000490  0.500000000  0.725803983
     0.717631265  0.438276186  0.542060262
     0.735972538  0.496495288  0.520022224
     0.653855858  0.552003414  0.561136465
     0.704210605  0.636026787  0.558994740
     0.844365832  0.503753019  0.572212594
     0.781206419  0.570706156  0.582025226
     0.865383209  0.558554183  0.532712201
     0.792910942  0.624937422  0.527383010
     0.867713431  0.465686139  0.518983564
     0.863639666  0.427013327  0.544680293
     0.873074984  0.330107710  0.519511929
     0.784604816  0.322966900  0.530855628
     0.638083479  0.549051917  0.521021264
     0.690156936  0.633291232  0.518968485
     0.605109330  0.632528992  0.532530524
     0.753070429  0.450531562  0.598682244
     0.745225578  0.404628870  0.573641163
     0.679168879  0.472138652  0.581655462
     0.824674626  0.686695317  0.562707824
     0.895200691  0.684800090  0.543464840
     0.901475915  0.621775103  0.565549762
     0.817980331  0.388226577  0.486684409
     0.785029851  0.298609129  0.492120952
     0.663167035  0.319959253  0.522738343
     0.731357811  0.461349758  0.470662681
     0.537611343  0.376765199  0.521640223
     0.606158867  0.517796522  0.469479552
     0.508463585  0.474914914  0.494912251
     0.993655696  0.244067545  0.556007387
     0.034271828  0.772467666  0.562282629
     0.472464553  0.229436852  0.557565560
     0.495913955  0.758103999  0.557034143
     0.237300410  0.518968261  0.559228979
     0.252917487  0.986761801  0.555672726
     0.768777871  0.979470923  0.563812232
     0.006844756  0.247591501  0.650074725
     0.011012929  0.762759964  0.652121826
     0.495627639  0.243464648  0.649437574
     0.496617415  0.755817172  0.650242727
     0.249481288  0.497727059  0.649784628
     0.255259355  0.000738355  0.648310945
     0.750601290  0.520167930  0.651449573
     0.748635584  0.996124983  0.649165425
     0.499988984  0.249994984  0.743277021
     0.499989025  0.749994958  0.743277021
     0.999988984  0.249994984  0.743277021
     0.999989025  0.749994958  0.743277021
     0.250000502  0.000001000  0.743255960
     0.250000517  0.500001003  0.743255960
     0.750000502  0.000001000  0.743255960
     0.750000491  0.500001003  0.743255960
     0.706286679  0.387254598  0.496860364
     0.649583171  0.362638038  0.510800561
     0.688597462  0.442017959  0.481965204
     0.579616378  0.394696170  0.510209012
     0.617904342  0.474024692  0.481039207
     0.563710436  0.450213456  0.495166025
     0.759042600  0.474517083  0.534783416
     0.691839645  0.583530295  0.550725936
     0.786111607  0.519917405  0.572482545
     0.822988521  0.594275208  0.539770741
     0.831648488  0.433446991  0.529848957
     0.818744013  0.357144226  0.520150850
     0.655346536  0.599436870  0.529427242
     0.738404330  0.458605228  0.581752893
     0.862773787  0.648994272  0.554347571
     0.783731359  0.356191650  0.497885075
     0.056551870  0.236586348  0.566493310
     0.051693470  0.710652961  0.572216074
     0.542052852  0.215999547  0.562112796
     0.489271648  0.703655470  0.570821325
     0.436428067  0.289472724  0.564450116
     0.477136416  0.827064451  0.560480023
     0.927477259  0.247303120  0.564720556
     0.978138496  0.815532271  0.567263118
     0.239769297  0.451317509  0.567527087
     0.183620336  0.998513114  0.560976155
     0.696417041  0.979813297  0.566984192
     0.309881158  0.023300907  0.563756618
     0.281769352  0.573498626  0.564667201
     0.813525793  0.031935611  0.570374946
     0.055665899  0.199190553  0.656759778
     0.049686874  0.709323937  0.660736342
     0.550319860  0.206423865  0.658077302
     0.536842472  0.711423596  0.661881835
     0.206220601  0.445199100  0.657128443
     0.207689827  0.957399672  0.658288038
     0.705042365  0.474703987  0.661639477
     0.702322832  0.949680209  0.658289747
     0.455669265  0.294545052  0.659008641
     0.447207105  0.802645672  0.657445035
     0.959656526  0.283951114  0.662416305
     0.950746981  0.792718912  0.660246254
     0.300974899  0.047377669  0.657429223
     0.290811004  0.540810724  0.661397791
     0.789935603  0.045335744  0.659061019
     0.822115811  0.525153354  0.655271932
     0.045862501  0.204119496  0.752725994
     0.045862500  0.704119456  0.752725994
     0.545862507  0.204119496  0.752725994
     0.545862496  0.704119456  0.752725994
     0.204119002  0.454101003  0.752704994
     0.204118991  0.954100951  0.752704994
     0.704118976  0.454101003  0.752704994
     0.704118964  0.954100951  0.752704994
     0.454140018  0.295888490  0.752726971
     0.454140007  0.795888516  0.752726971
     0.954140018  0.295888490  0.752726971
     0.954140060  0.795888516  0.752726971
     0.295882492  0.045900498  0.752704994
     0.295882481  0.545900528  0.752704994
     0.795882439  0.045900498  0.752704994
     0.795882481  0.545900528  0.752704994
     0.766039938  0.541107711  0.549557184
     0.502541857  0.017063671  0.552973211
     0.482563166  0.514022331  0.555606184
     0.994690419  0.004933398  0.552203831
     0.034752129  0.505531193  0.553701262
     0.245480244  0.248043792  0.553378688
     0.247212803  0.763967078  0.552442893
     0.741946879  0.212602199  0.556834946
     0.705635989  0.792320870  0.549933602
     0.005880296  0.996980165  0.654785262
     0.012784090  0.490914677  0.655680644
     0.501756610  0.001722724  0.654823600
     0.504146839  0.493707306  0.655383282
     0.256170550  0.244906130  0.654498156
     0.250015739  0.753274329  0.654695461
     0.746163468  0.258413472  0.655619657
     0.748900607  0.746486075  0.653763695
     0.139936174  0.113101483  0.607177046
     0.145125230  0.611927012  0.610880790
     0.645248371  0.110199873  0.609810996
     0.622197445  0.627061420  0.614091026
     0.359268153  0.393133173  0.610049141
     0.373106241  0.883167237  0.606577194
     0.885042995  0.370371397  0.612939978
     0.867055251  0.882222581  0.610115072
     0.115690423  0.360459790  0.609018784
     0.120334725  0.875644462  0.608650912
     0.589244203  0.343301434  0.604936974
     0.612170053  0.863417148  0.610021365
     0.383154680  0.133312193  0.607237055
     0.380286476  0.634539212  0.613726329
     0.889194169  0.142637007  0.613794031
     0.912036929  0.650426832  0.617121723
     0.000000000  0.000000000  0.754927972
     0.000000000  0.500000000  0.754927972
     0.500000000  0.000000000  0.754927972
     0.499999989  0.500000000  0.754927972
     0.250000496  0.250000000  0.754939022
     0.250000511  0.749999974  0.754939022
     0.750000470  0.250000000  0.754939022
     0.750000458  0.749999974  0.754939022
     0.135790500  0.114209997  0.704782994
     0.135790502  0.614209984  0.704782994
     0.635790447  0.114209997  0.704782994
     0.635790488  0.614209984  0.704782994
     0.364209516  0.385789989  0.704782994
     0.364209505  0.885789963  0.704782994
     0.864209542  0.385789989  0.704782994
     0.864209531  0.885789963  0.704782994
     0.114217990  0.364218986  0.704780979
     0.114217992  0.864218986  0.704780979
     0.614218004  0.364218986  0.704780979
     0.614217992  0.864218986  0.704780979
     0.385782012  0.135781489  0.704782017
     0.385782001  0.635781489  0.704782017
     0.885781985  0.135781489  0.704782017
     0.885782027  0.635781489  0.704782017
     0.134667000  0.115332001  0.801256025
     0.134666989  0.615331988  0.801256025
     0.634666987  0.115332001  0.801256025
     0.634666976  0.615331988  0.801256025
     0.365333002  0.384667985  0.801256025
     0.365332990  0.884667959  0.801256025
     0.865332949  0.384667985  0.801256025
     0.865332938  0.884667959  0.801256025
     0.115328503  0.365337004  0.801264999
     0.115328505  0.865336978  0.801264999
     0.615328503  0.365337004  0.801264999
     0.615328492  0.865336978  0.801264999
     0.384671513  0.134662996  0.801264999
     0.384671501  0.634662970  0.801264999
     0.884671486  0.134662996  0.801264999
     0.884671528  0.634662970  0.801264999
     0.995094136  0.004432218  0.605456670
     0.005350384  0.507165387  0.604178094
     0.503808039  0.006611208  0.605025370
     0.498264590  0.503452653  0.604456104
     0.248975082  0.252050848  0.604631310
     0.246718858  0.756231739  0.603698384
     0.747138391  0.259228484  0.605928322
     0.738511599  0.756509350  0.601841628
     0.000000500  0.000000500  0.704828963
     0.000000500  0.500000475  0.704828963
     0.500000475  0.000000500  0.704828963
     0.500000464  0.500000475  0.704828963
     0.249999994  0.249999472  0.704824995
     0.250000010  0.749999498  0.704824995
     0.749999994  0.249999472  0.704824995
     0.749999983  0.749999498  0.704824995
     0.000000000  0.000000000  0.807317968
     0.000000000  0.500000000  0.807317968
     0.500000000  0.000000000  0.807317968
     0.499999989  0.500000000  0.807317968
     0.249999994  0.250000000  0.807317968
     0.250000010  0.749999974  0.807317968
     0.749999994  0.250000000  0.807317968
     0.749999983  0.749999974  0.807317968

  ion indices of the primitive-cell ions
   primitive index   ion index
                 1           1
                 2           2
                 3           3
                 4           4
                 5           5
                 6           6
                 7           7
                 8           8
                 9           9
                10          10
                11          11
                12          12
                13          13
                14          14
                15          15
                16          16
                17          17
                18          18
                19          19
                20          20
                21          21
                22          22
                23          23
                24          24
                25          25
                26          26
                27          27
                28          28
                29          29
                30          30
                31          31
                32          32
                33          33
                34          34
                35          35
                36          36
                37          37
                38          38
                39          39
                40          40
                41          41
                42          42
                43          43
                44          44
                45          45
                46          46
                47          47
                48          48
                49          49
                50          50
                51          51
                52          52
                53          53
                54          54
                55          55
                56          56
                57          57
                58          58
                59          59
                60          60
                61          61
                62          62
                63          63
                64          64
                65          65
                66          66
                67          67
                68          68
                69          69
                70          70
                71          71
                72          72
                73          73
                74          74
                75          75
                76          76
                77          77
                78          78
                79          79
                80          80
                81          81
                82          82
                83          83
                84          84
                85          85
                86          86
                87          87
                88          88
                89          89
                90          90
                91          91
                92          92
                93          93
                94          94
                95          95
                96          96
                97          97
                98          98
                99          99
               100         100
               101         101
               102         102
               103         103
               104         104
               105         105
               106         106
               107         107
               108         108
               109         109
               110         110
               111         111
               112         112
               113         113
               114         114
               115         115
               116         116
               117         117
               118         118
               119         119
               120         120
               121         121
               122         122
               123         123
               124         124
               125         125
               126         126
               127         127
               128         128
               129         129
               130         130
               131         131
               132         132
               133         133
               134         134
               135         135
               136         136
               137         137
               138         138
               139         139
               140         140
               141         141
               142         142
               143         143
               144         144
               145         145
               146         146
               147         147
               148         148
               149         149
               150         150
               151         151
               152         152
               153         153
               154         154
               155         155
               156         156
               157         157
               158         158
               159         159
               160         160
               161         161
               162         162
               163         163
               164         164
               165         165
               166         166
               167         167
               168         168
               169         169
               170         170
               171         171
               172         172
               173         173
               174         174
               175         175
               176         176
               177         177
               178         178
               179         179
               180         180
               181         181
               182         182
               183         183
               184         184
               185         185
               186         186
               187         187
               188         188
               189         189
               190         190
               191         191
               192         192
               193         193
               194         194
               195         195
               196         196
               197         197
               198         198
               199         199
               200         200
               201         201
               202         202
               203         203
               204         204
               205         205
               206         206
               207         207
               208         208
               209         209
               210         210
               211         211
               212         212
               213         213
               214         214
               215         215
               216         216
               217         217
               218         218
               219         219
               220         220
               221         221
               222         222
               223         223
               224         224
               225         225
               226         226
               227         227
               228         228
               229         229
               230         230
               231         231
               232         232
               233         233
               234         234
               235         235
               236         236
               237         237
               238         238
               239         239
               240         240
               241         241
               242         242
               243         243
               244         244
               245         245
               246         246
               247         247
               248         248
               249         249
               250         250
               251         251
               252         252
               253         253
               254         254
               255         255
               256         256
               257         257
               258         258
               259         259
               260         260
               261         261
               262         262
               263         263
               264         264
               265         265
               266         266
               267         267
               268         268
               269         269
               270         270
               271         271
               272         272
               273         273
               274         274
               275         275
               276         276
               277         277
               278         278
               279         279
               280         280
               281         281
               282         282
               283         283
               284         284
               285         285
               286         286
               287         287
               288         288
               289         289
               290         290
               291         291
               292         292
               293         293
               294         294
               295         295
               296         296
               297         297
               298         298
               299         299
               300         300
               301         301
               302         302
               303         303
               304         304
               305         305
               306         306
               307         307
               308         308
               309         309
               310         310
               311         311
               312         312
               313         313
               314         314
               315         315
               316         316
               317         317
               318         318
               319         319
               320         320
               321         321
               322         322
               323         323
               324         324
               325         325

----------------------------------------------------------------------------------------

 
 
 KPOINTS: Automatic Mesh                          

Automatic generation of k-mesh.
 Grid dimensions read from file:
 generate k-points for:    3    3    1

 Generating k-lattice:

  Cartesian coordinates                     Fractional coordinates (reciprocal lattice)
     0.018456177  0.000005026 -0.000000000     0.333333333  0.000000000  0.000000000
     0.000000000  0.018454135  0.000000000     0.000000000  0.333333333  0.000000000
     0.000000000 -0.000000000  0.016003201     0.000000000  0.000000000  1.000000000

  Length of vectors
     0.018456178  0.018454135  0.016003201

  Shift w.r.t. Gamma in fractional coordinates (k-lattice)
     0.000000000  0.000000000  0.000000000

 
 Subroutine IBZKPT returns following result:
 ===========================================
 
 Found      5 irreducible k-points:
 
 Following reciprocal coordinates:
            Coordinates               Weight
  0.000000  0.000000  0.000000      1.000000
  0.333333  0.000000  0.000000      2.000000
  0.000000  0.333333  0.000000      2.000000
  0.333333  0.333333  0.000000      2.000000
 -0.333333  0.333333  0.000000      2.000000
 
 Following cartesian coordinates:
            Coordinates               Weight
  0.000000  0.000000  0.000000      1.000000
  0.018456  0.000005  0.000000      2.000000
  0.000000  0.018454  0.000000      2.000000
  0.018456  0.018459  0.000000      2.000000
 -0.018456  0.018449  0.000000      2.000000
 


--------------------------------------------------------------------------------------------------------




 Dimension of arrays:
   k-points           NKPTS =      5   k-points in BZ     NKDIM =      5   number of bands    NBANDS=    732
   number of dos      NEDOS =    301   number of ions     NIONS =    325
   non local maximal  LDIM  =      5   non local SUM 2l+1 LMDIM =     13
   total plane-waves  NPLWV = ******
   max r-space proj   IRMAX =   3336   max aug-charges    IRDMAX=  19845
   dimension x,y,z NGX =   100 NGY =  100 NGZ =  350
   dimension x,y,z NGXF=   200 NGYF=  200 NGZF=  700
   support grid    NGXF=   200 NGYF=  200 NGZF=  700
   ions per type =             143  39  47  72  24
   NGX,Y,Z   is equivalent  to a cutoff of   9.20,  9.20,  9.31 a.u.
   NGXF,Y,Z  is equivalent  to a cutoff of  18.41, 18.41, 18.62 a.u.

 SYSTEM =  PSC                                     
 POSCAR =   H  C  N  I Pb                          

 Startparameter for this run:
   NWRITE =      2    write-flag & timer
   PREC   = normal    normal or accurate (medium, high low for compatibility)
   ISTART =      0    job   : 0-new  1-cont  2-samecut
   ICHARG =      1    charge: 1-file 2-atom 10-const
   ISPIN  =      1    spin polarized calculation?
   LNONCOLLINEAR =      F non collinear calculations
   LSORBIT =      F    spin-orbit coupling
   INIWAV =      1    electr: 0-lowe 1-rand  2-diag
   LASPH  =      F    aspherical Exc in radial PAW
 Electronic Relaxation 1
   ENCUT  =  500.0 eV  36.75 Ry    6.06 a.u.  32.93 32.93113.93*2*pi/ulx,y,z
   ENINI  =  500.0     initial cutoff
   ENAUG  =  644.9 eV  augmentation charge cutoff
   NELM   =    600;   NELMIN=  2; NELMDL=  0     # of ELM steps 
   EDIFF  = 0.1E-03   stopping-criterion for ELM
   LREAL  =      T    real-space projection
   NLSPLINE    = F    spline interpolate recip. space projectors
   LCOMPAT=      F    compatible to vasp.4.4
   GGA_COMPAT  = F    GGA compatible to vasp.4.4-vasp.4.6
   LMAXPAW     = -100 max onsite density
   LMAXMIX     =    2 max onsite mixed and CHGCAR
   VOSKOWN=      0    Vosko Wilk Nusair interpolation
   ROPT   =   -0.00050  -0.00050  -0.00050  -0.00050
   ROPT   =   -0.00050
 Ionic relaxation
   EDIFFG = 0.1E-02   stopping-criterion for IOM
   NSW    =      0    number of steps for IOM
   NBLOCK =      1;   KBLOCK =      1    inner block; outer block 
   IBRION =     -1    ionic relax: 0-MD 1-quasi-New 2-CG
   NFREE  =      0    steps in history (QN), initial steepest desc. (CG)
   ISIF   =      2    stress and relaxation
   IWAVPR =     10    prediction:  0-non 1-charg 2-wave 3-comb
   ISYM   =      0    0-nonsym 1-usesym 2-fastsym
   LCORR  =      T    Harris-Foulkes like correction to forces

   POTIM  = 0.5000    time-step for ionic-motion
   TEIN   =    0.0    initial temperature
   TEBEG  =    0.0;   TEEND  =   0.0 temperature during run
   SMASS  =  -3.00    Nose mass-parameter (am)
   estimated Nose-frequenzy (Omega)   =  0.10E-29 period in steps = 0.13E+47 mass=  -0.745E-26a.u.
   SCALEE = 1.0000    scale energy and forces
   NPACO  =    256;   APACO  = 16.0  distance and # of slots for P.C.
   PSTRESS=    0.0 pullay stress

  Mass of Ions in am
   POMASS =   1.00 12.01 14.00126.90207.20
  Ionic Valenz
   ZVAL   =   1.00  4.00  5.00  7.00  4.00
  Atomic Wigner-Seitz radii
   RWIGS  =  -1.00 -1.00 -1.00 -1.00 -1.00
  virtual crystal weights 
   VCA    =   1.00  1.00  1.00  1.00  1.00
   NELECT =    1134.0000    total number of electrons
   NUPDOWN=      -1.0000    fix difference up-down

 DOS related values:
   EMIN   =  10.00;   EMAX   =-10.00  energy-range for DOS
   EFERMI =   0.00
   ISMEAR =     0;   SIGMA  =   0.05  broadening in eV -4-tet -1-fermi 0-gaus

 Electronic relaxation 2 (details)
   IALGO  =     38    algorithm
   LDIAG  =      T    sub-space diagonalisation (order eigenvalues)
   LSUBROT=      F    optimize rotation matrix (better conditioning)
   TURBO    =      0    0=normal 1=particle mesh
   IRESTART =      0    0=no restart 2=restart with 2 vectors
   NREBOOT  =      0    no. of reboots
   NMIN     =      0    reboot dimension
   EREF     =   0.00    reference energy to select bands
   IMIX   =      4    mixing-type and parameters
     AMIX     =   0.40;   BMIX     =  0.01
     AMIX_MAG =   1.60;   BMIX_MAG =  0.01
     AMIN     =   0.01
     WC   =   100.;   INIMIX=   1;  MIXPRE=   1;  MAXMIX= -45

 Intra band minimization:
   WEIMIN = 0.0000     energy-eigenvalue tresh-hold
   EBREAK =  0.34E-07  absolut break condition
   DEPER  =   0.30     relativ break condition  

   TIME   =   0.40     timestep for ELM

  volume/ion in A,a.u.               =      62.72       423.28
  Fermi-wavevector in a.u.,A,eV,Ry     =   0.624944  1.180972  5.313816  0.390554
  Thomas-Fermi vector in A             =   1.685677
 
 Write flags
   LWAVE        =      F    write WAVECAR
   LDOWNSAMPLE  =      F    k-point downsampling of WAVECAR
   LCHARG       =      T    write CHGCAR
   LVTOT        =      T    write LOCPOT, total local potential
   LVHAR        =      F    write LOCPOT, Hartree potential only
   LELF         =      F    write electronic localiz. function (ELF)
   LORBIT       =      0    0 simple, 1 ext, 2 COOP (PROOUT), +10 PAW based schemes


 Dipole corrections
   LMONO  =      F    monopole corrections only (constant potential shift)
   LDIPOL =      T    correct potential (dipole corrections)
   IDIPOL =      3    1-x, 2-y, 3-z, 4-all directions 
   EPSILON=  1.0000000 bulk dielectric constant

 Exchange correlation treatment:
   GGA     =    --    GGA type
   LEXCH   =     8    internal setting for exchange type
   VOSKOWN=      0    Vosko Wilk Nusair interpolation
   LHFCALC =     F    Hartree Fock is set to
   LHFONE  =     F    Hartree Fock one center treatment
   AEXX    =    0.0000 exact exchange contribution

 Linear response parameters
   LEPSILON=     F    determine dielectric tensor
   LRPA    =     F    only Hartree local field effects (RPA)
   LNABLA  =     F    use nabla operator in PAW spheres
   LVEL    =     F    velocity operator in full k-point grid
   LINTERFAST=   F  fast interpolation
   KINTER  =     0    interpolate to denser k-point grid
   CSHIFT  =0.1000    complex shift for real part using Kramers Kronig
   OMEGAMAX=  -1.0    maximum frequency
   DEG_THRESHOLD= 0.2000000E-02 threshold for treating states as degnerate
   RTIME   =   -0.100 relaxation time in fs
  (WPLASMAI=    0.000 imaginary part of plasma frequency in eV, 0.658/RTIME)
   DFIELD  = 0.0000000 0.0000000 0.0000000 field for delta impulse in time
 
 Orbital magnetization related:
   ORBITALMAG=     F  switch on orbital magnetization
   LCHIMAG   =     F  perturbation theory with respect to B field
   DQ        =  0.001000  dq finite difference perturbation B field
   LLRAUG    =     F  two centre corrections for induced B field



--------------------------------------------------------------------------------------------------------


 Static calculation
 charge density and potential will be updated during run
 non-spin polarized calculation
 Variant of blocked Davidson
 Davidson routine will perform the subspace rotation
 perform sub-space diagonalisation
    after iterative eigenvector-optimisation
 modified Broyden-mixing scheme, WC =      100.0
 initial mixing is a Kerker type mixing with AMIX =  0.4000 and BMIX =      0.0100
 Hartree-type preconditioning will be used
 using additional bands           165
 real space projection scheme for non local part
[...]
     13.54561      0.00000     45.35368         0.001590     -0.006411      0.012327
     13.54315      9.03140     45.35368        -0.004369      0.009179      0.000507
     12.95884      7.91649     33.87199        -0.019753     -0.058204     -0.027853
     13.28981      8.96809     32.49489        -0.129039      0.015186     -0.111878
     11.80645      9.97073     35.06401         0.210600     -0.013194     -0.225131
     12.71548     11.48842     34.93018         0.092664     -0.147181     -0.067292
     15.24745      9.09919     35.75613         0.208638     -0.051379      0.031385
     14.10641     10.30855     36.36930         0.025054     -0.012344     -0.044367
     15.62677     10.08905     33.28785        -0.035195      0.136738     -0.136979
     14.31753     11.28812     32.95485         0.110605     -0.175228     -0.093538
     15.66931      8.41160     32.42999        -0.214635     -0.061753      0.088743
     15.59592      7.71306     34.03571         0.091302     -0.071621      0.073689
     15.76681      5.96267     32.46300         0.107742     -0.157847     -0.120929
     14.16900      5.83369     33.17184         0.068237      0.080923      0.078504
     11.52160      9.91741     32.55732        -0.089563      0.073594      0.013335
     12.46167     11.43901     32.42904         0.040971      0.053997     -0.125430
     10.92565     11.42524     33.27650         0.170976     -0.166821      0.040745
     13.59884      8.13786     37.41016         0.092435      0.081011     -0.173592
     13.45738      7.30873     35.84540         0.083646      0.244057      0.102096
     12.26401      8.52815     36.34620         0.025967      0.009818     -0.062963
     14.89091     12.40364     35.16220         0.059129     -0.132996      0.049926
     16.16467     12.36941     33.95976        -0.030363     -0.166752      0.168167
     16.27832     11.23100     35.33979        -0.240288      0.167503     -0.159476
     14.77147      7.01246     30.41169         0.143947      0.010125     -0.071320
     14.17680      5.39372     30.75141        -0.132978     -0.046815     -0.046890
     11.97575      5.77936     32.66461        -0.178830      0.119323     -0.157275
     13.20664      8.33327     29.41053        -0.170516     -0.110562      0.241517
      9.70784      6.80543     32.59599        -0.048588      0.050154     -0.057379
     10.94517      9.35285     29.33660         0.007633     -0.057951     -0.007661
      9.18092      8.57829     30.92583         0.075217     -0.005063      0.006501
     17.94502      4.40854     34.74351         0.030472     -0.093191      0.623743
      0.61518     13.95293     35.13564        -0.096771     -0.258391      0.345560
      8.53196      4.14427     34.84088        -0.323077      1.082359      0.607081
      8.95287     13.69348     34.80767         0.205245     -0.103676     -0.463782
      4.28328      9.37402     34.94482         0.002681     -0.552341      0.223523
      4.56304     17.82368     34.72260         0.336904      0.169906      0.259084
     13.87993     17.69199     35.23122        -0.645253      0.124970      0.153746
      0.12240      4.47220     40.62154        -0.563906      0.473136      0.639515
      0.19515     13.77758     40.74946        -0.494294      0.192805      0.314473
      8.95023      4.39765     40.58173        -0.316758      0.165457     -0.023514
      8.96559     13.65217     40.63204        -0.076467      0.110190      0.086682
      4.50338      8.99034     40.60342        -0.472131     -0.647865      0.118132
      4.61018      0.01334     40.51133        -0.480350     -0.355018      0.297278
     13.55390      9.39569     40.70745         0.097651     -0.717720      0.981680
     13.51606     17.99281     40.56472        -0.232706     -0.174785      0.173153
      9.02897      4.51561     46.44552         0.007784      0.006681      0.033006
      9.02651     13.54701     46.44552         0.028422     -0.013945      0.051004
     18.05937      4.51561     46.44552         0.016853     -0.000027      0.044758
     18.05691     13.54701     46.44552         0.021240     -0.003692      0.019977
      4.51521      0.00002     46.44421        -0.007973     -0.009578      0.063388
      4.51275      9.03142     46.44421        -0.002040     -0.000304      0.050574
     13.54561      0.00002     46.44421        -0.004011     -0.006077      0.044941
     13.54315      9.03142     46.44421        -0.003018      0.003303      0.028186
     12.75420      6.99490     31.04756        -0.448001     -0.340999      0.052686
     11.73021      6.55026     31.91865         0.583974     -0.008361     -0.005864
     12.43445      7.98408     30.11680         0.189109      0.401299     -0.472051
     10.46639      7.12932     31.88169        -0.021972     -0.039596     -0.153922
     11.15752      8.56221     30.05894         0.294371     -0.110178     -0.073514
     10.17885      8.13212     30.94169        -0.461556     -0.087623      0.347002
     13.70658      8.57111     33.41728         0.334752      0.239796      0.010161
     12.49231     10.54019     34.41349        -0.139501     -0.115603      0.204365
     14.19525      9.39116     35.77300        -0.008898     -0.250041     -0.198097
     14.86091     10.73427     33.72892         0.404358     -0.032981      0.202396
     15.01811      7.82927     33.10894        -0.148923      0.261960      0.346562
     14.78542      6.45102     32.50293        -0.107872     -0.050927      0.076395
     11.83313     10.82751     33.08258        -0.157270      0.003072      0.012608
     13.33392      8.28369     36.35228        -0.226104     -0.038968     -0.052666
     15.57919     11.72265     34.63979        -0.079040     -0.044888      0.017067
     14.15306      6.43382     31.11159         0.091237      0.080624     -0.129678
      1.02021      4.27341     35.39875        -0.221739      0.104486     -0.072833
      0.93013     12.83638     35.75635         0.200805      0.004415     -0.507501
      9.78885      3.90156     35.12502         0.120263     -0.039764     -0.063739
      8.83318     12.70999     35.66920        -0.093540      0.184332     -0.176297
      7.88082      5.22869     35.27108         0.607632     -0.546746     -0.065054
      8.61340     14.93910     35.02299        -0.389953      0.134334      0.552746
     16.74977      4.46699     35.28798         0.242479     -0.051494      0.042637
     17.66195     14.73080     35.44685         0.397166     -0.063134     -0.513737
      4.32821      8.15206     35.46335         1.109984      1.446411      0.224633
      3.31142     18.03594     35.05400        -0.053135      0.369442      0.109141
     12.57303     17.69817     35.42942         0.672452      0.720084      0.335592
      5.59659      0.42088     35.22774        -1.239019      0.039844      0.108463
      5.08616     10.35899     35.28464         0.085149     -0.202877      0.096971
     14.69277      0.57685     35.64130         0.006723      0.142249      0.019883
      1.00439      3.59794     41.03928         0.118825     -0.040436     -0.557101
      0.89390     12.81238     41.28776        -0.095501     -0.262259      0.364515
      9.93820      3.72859     41.12160         0.158579     -0.032986      0.249493
      9.69231     12.85030     41.35934         0.177592     -0.369241      1.307453
      3.72232      8.04154     41.06231        -0.319806     -0.423991      0.305978
      3.74634     17.29332     41.13477         0.578753      0.582028      0.588362
     12.73129      8.57448     41.34420         0.174566      0.079447      0.012456
     12.67984     17.15388     41.13488         0.500437      0.596780      0.786463
      8.22830      5.32031     41.17980         0.150364      0.018252      0.252019
      8.07297     14.49803     41.08210        -0.159029      0.113983      0.280714
     17.33077      5.12895     41.39274         0.671705     -0.529269     -0.485735
     17.16735     14.31872     41.25714        -0.082323     -0.321515      0.443086
      5.43561      0.85577     41.08111         0.061690      0.014529      0.124197
      5.24962      9.76856     41.32909         1.046218      1.248487      0.242375
     14.26665      0.81889     41.18307         0.041460      0.018340      0.132523
     14.84549      9.48574     40.94630        -0.326653     -0.209816      0.185891
      0.82731      3.68697     47.03596         0.016824     -0.021409     -0.095759
      0.82485     12.71837     47.03596         0.017641     -0.018428     -0.073355
      9.85771      3.68697     47.03596         0.022432     -0.027576     -0.085718
      9.85525     12.71837     47.03596         0.007316     -0.007175     -0.082130
      3.68432      8.20234     47.03465        -0.008444     -0.012732     -0.070449
      3.68186     17.23373     47.03465        -0.003511     -0.000673     -0.069283
     12.71472      8.20234     47.03465        -0.011029     -0.017867     -0.067971
     12.71226     17.23373     47.03465        -0.011251     -0.007345     -0.070635
      8.20068      5.34457     47.03603        -0.020966      0.014201     -0.090597
      8.19822     14.37597     47.03603        -0.028750      0.029113     -0.089660
     17.23108      5.34457     47.03603        -0.027093      0.021597     -0.107640
     17.22862     14.37597     47.03603        -0.025554      0.025658     -0.074488
      5.34365      0.82909     47.03465         0.011953      0.012441     -0.067191
      5.34119      9.86049     47.03465         0.011414      0.011092     -0.071560
     14.37405      0.82909     47.03465         0.014327      0.014789     -0.071542
     14.37159      9.86049     47.03465         0.012607      0.011107     -0.067974
     13.83263      9.77392     34.34045        -0.263589      0.706674      0.122454
      9.07622      0.30822     34.55391         0.050548      0.024995     -0.050502
      8.71295      9.28468     34.71844        -0.017945     -0.064533     -0.114719
     17.96488      0.08911     34.50584        -0.004474     -0.008709     -0.001078
      0.62516      9.13131     34.59941        -0.185657      0.009479      0.088606
      4.43235      4.48037     34.57925         0.063903     -0.020648     -0.089378
      4.46110     13.79938     34.52077        -0.032849      0.000257      0.010959
     13.39911      3.84019     34.79522        -0.140577     -0.050540     -0.007048
     12.74045     14.31153     34.36398        -0.017532     -0.015371      0.236982
      0.10130     18.00825     40.91589        -0.039360      0.003494     -0.011990
      0.22848      8.86729     40.97184         0.038479      0.020213     -0.064528
      9.06212      0.03112     40.91829        -0.008160      0.029014     -0.008759
      9.10287      8.91774     40.95326         0.025673      0.001364     -0.002802
      4.62544      4.42369     40.89795        -0.021852      0.011084      0.096145
      4.51178     13.60624     40.91028        -0.019500      0.031878     -0.007740
     13.47504      4.66767     40.96803        -0.010159      0.019161     -0.000592
     13.52207     13.48363     40.85206         0.003731     -0.001764     -0.050786
      2.52680      2.04293     37.94098        -0.059369     -0.009862     -0.007039
      2.61807     11.05311     38.17241         0.045847     -0.022589      0.018741
     11.65316      1.99052     38.10556        -0.042056      0.001698      0.028545
     11.23430     11.32648     38.37301         0.092655     -0.036152     -0.310509
      6.48674      7.10109     38.12045         0.010526     -0.065411     -0.026810
      6.73425     15.95247     37.90349        -0.022458     -0.003168      0.036188
     15.98276      6.68994     38.30109         0.033455      0.029807     -0.127113
     15.65537     15.93541     38.12457        -0.055884     -0.010713     -0.012201
      2.08769      6.51091     38.05606         0.024606      0.018982      0.009990
      2.16903     15.81659     38.03307         0.047009     -0.013643     -0.033116
     10.64053      6.20098     37.80100         0.006575      0.046365     -0.033319
     11.05203     15.59573     38.11871        -0.022633      0.043529      0.048601
      6.91942      2.40799     37.94473         0.082313     -0.047400     -0.006019
      6.86516     11.46155     38.35022         0.034169     -0.057940     -0.068564
     16.05886      2.57642     38.35445        -0.070614     -0.040500     -0.051648
     16.46892     11.74853     38.56239        -0.156580     -0.049712     -0.473359
      0.00000      0.00000     47.17356        -0.000255      0.006012      0.388992
     -0.00246      9.03140     47.17356        -0.001723     -0.007834      0.501005
      9.03040      0.00000     47.17356         0.000411      0.000041      0.404430
      9.02794      9.03140     47.17356        -0.002158     -0.003019      0.485610
      4.51398      4.51570     47.17425        -0.000285     -0.004544      0.400795
      4.51152     13.54710     47.17425         0.004572      0.001497      0.433602
     13.54438      4.51570     47.17425         0.004570      0.001213      0.448208
     13.54192     13.54710     47.17425        -0.000864      0.000291      0.385075
      2.45192      2.06295     44.04013         0.008049     -0.004777     -0.035643
      2.44946     11.09435     44.04013         0.034409     -0.036310      0.033819
     11.48232      2.06295     44.04013         0.043259      0.003436     -0.038298
     11.47986     11.09435     44.04013        -0.048409      0.035323      0.031710
      6.57602      6.96845     44.04013        -0.028281      0.003078     -0.025756
      6.57356     15.99985     44.04013         0.006197      0.024269     -0.013194
     15.60642      6.96845     44.04013        -0.054226      0.045323     -0.058703
     15.60396     15.99985     44.04013        -0.049295      0.046494      0.003523
      2.06108      6.57881     44.04000         0.066719     -0.059099      0.003814
      2.05862     15.61021     44.04000         0.034004      0.055621      0.000066
     11.09148      6.57881     44.04000        -0.018652     -0.061484     -0.016075
     11.08902     15.61021     44.04000        -0.022545      0.016164     -0.004604
      6.96686      2.45259     44.04007        -0.015945     -0.033025     -0.010388
      6.96440     11.48399     44.04007         0.027768      0.017800     -0.021392
     15.99726      2.45259     44.04007        -0.003355      0.014246     -0.049141
     15.99481     11.48399     44.04007         0.054455      0.039117     -0.093087
      2.43163      2.08322     50.06849         0.007215     -0.012587      0.020907
      2.42917     11.11462     50.06849         0.015094     -0.006475      0.024486
     11.46203      2.08322     50.06849         0.006309     -0.015027      0.021899
     11.45957     11.11462     50.06849         0.016457     -0.003587      0.024065
      6.59631      6.94818     50.06849        -0.018216      0.001250      0.023204
      6.59385     15.97958     50.06849        -0.005092      0.015896      0.022521
     15.62671      6.94818     50.06849        -0.014549      0.002650      0.021096
     15.62425     15.97958     50.06849        -0.008401      0.014607      0.024352
      2.08113      6.59901     50.06905        -0.002510     -0.020297      0.022728
      2.07867     15.63041     50.06905        -0.015479     -0.003206      0.023728
     11.11153      6.59901     50.06905        -0.005762     -0.015889      0.023590
     11.10907     15.63041     50.06905        -0.011870     -0.008151      0.023062
      6.94681      2.43239     50.06905         0.011541      0.007351      0.022702
      6.94435     11.46379     50.06905         0.006294      0.013592      0.024118
     15.97721      2.43239     50.06905         0.015170      0.004809      0.021994
     15.97475     11.46379     50.06905         0.002179      0.016841      0.024824
     17.97217      0.08006     37.83347         0.012707     -0.027713     -0.007153
      0.09414      9.16083     37.75358         0.054726     -0.044772      0.031035
      9.09914      0.11942     37.80652        -0.030269      0.049899     -0.062967
      8.99658      9.09376     37.77095         0.002897     -0.071049      0.131842
      4.49545      4.55274     37.78190         0.036676      0.110517      0.019795
      4.45222     13.65966     37.72360        -0.009193     -0.031766      0.010754
     13.49264      4.68239     37.86295        -0.027597     -0.046790      0.031645
     13.33439     13.66468     37.60758         0.076551      0.021905      0.076328
      0.00001      0.00001     44.04300        -0.020872     -0.112367      0.168188
     -0.00245      9.03141     44.04300         0.082710      0.062759      0.128636
      9.03041      0.00001     44.04300        -0.003858      0.018441      0.157463
      9.02795      9.03141     44.04300         0.035689      0.054621      0.199886
      4.51397      4.51569     44.04275         0.020144      0.031632      0.113308
      4.51151     13.54709     44.04275        -0.095448     -0.003843      0.090426
     13.54437      4.51569     44.04275        -0.030700     -0.020331      0.239460
     13.54191     13.54709     44.04275        -0.030714     -0.049263     -0.018617
      0.00000      0.00000     50.44728        -0.000567     -0.003899     -0.622242
     -0.00246      9.03140     50.44728         0.000236      0.002778     -0.651945
      9.03040      0.00000     50.44728        -0.000840     -0.001447     -0.625011
      9.02794      9.03140     50.44728         0.000262      0.000862     -0.650115
      4.51397      4.51570     50.44728         0.000526      0.011504     -0.624630
      4.51151     13.54710     50.44728        -0.000390     -0.012552     -0.636578
     13.54437      4.51570     50.44728        -0.002205      0.011671     -0.634840
     13.54191     13.54710     50.44728         0.001385     -0.012454     -0.625106
 -----------------------------------------------------------------------------------
    total drift:                                0.069069      0.141270      0.387483


--------------------------------------------------------------------------------------------------------



  FREE ENERGIE OF THE ION-ELECTRON SYSTEM (eV)
  ---------------------------------------------------
  free  energy   TOTEN  =     -1574.78261007 eV

  energy  without entropy=    -1574.78261007  energy(sigma->0) =    -1574.78261007
 


--------------------------------------------------------------------------------------------------------


    POTLOK:  cpu time    0.5011: real time    0.5010


--------------------------------------------------------------------------------------------------------


     LOOP+:  cpu time  306.4355: real time  306.9876
 vacuum level on the upper side and lower side of the slab         2.342         1.508
    4ORBIT:  cpu time    0.0000: real time    0.0000

 total amount of memory used by VASP MPI-rank0  8653579. kBytes
=======================================================================

   base      :      30000. kBytes
   nonlr-proj:      53617. kBytes
   fftplans  :     249280. kBytes
   grid      :     701440. kBytes
   one-center:       2636. kBytes
   wavefun   :    7616606. kBytes
 
  
  
 General timing and accounting informations for this job:
 ========================================================
  
                  Total CPU time used (sec):      518.852
                            User time (sec):      418.712
                          System time (sec):      100.140
                         Elapsed time (sec):      521.127
  
                   Maximum memory used (kb):    10309520.
                   Average memory used (kb):          N/A
  
                          Minor page faults:      3685487
                          Major page faults:           13
                 Voluntary context switches:        11299
