<?xml version="1.0" encoding="ISO-8859-1"?>
<modeling>
 <generator>
  <i name="program" type="string">vasp </i>
  <i name="version" type="string">6.2.1  </i>
  <i name="subversion" type="string">16May21 (build Nov 15 2021 14:57:28) complex                          parallel </i>
  <i name="platform" type="string">LinuxPGI </i>
  <i name="date" type="string">2023 07 30 </i>
  <i name="time" type="string">19:20:02 </i>
 </generator>
 <incar>
  <i type="string" name="SYSTEM">PSC</i>
  <i type="int" name="ISTART">     1</i>
  <i type="string" name="PREC">Normal</i>
  <i name="BMIX">      0.01000000</i>
  <i name="AMIN">      0.01000000</i>
  <i type="int" name="ICHARG">     1</i>
  <i type="int" name="NELM">   600</i>
  <i type="int" name="ISYM">     0</i>
  <i name="ENCUT">    500.00000000</i>
  <i type="string" name="LREAL">Auto</i>
  <i type="int" name="ISMEAR">     0</i>
  <i name="SIGMA">      0.05000000</i>
  <i type="logical" name="LWAVE"> F  </i>
  <i type="logical" name="LVTOT"> T  </i>
  <i type="logical" name="GGA_COMPAT"> F  </i>
  <i type="logical" name="LDIPOL"> T  </i>
  <i type="int" name="IDIPOL">     3</i>
  <i type="int" name="IVDW">    12</i>
 </incar>
 <primitive_cell>
  <structure name="primitive_cell" >
   <crystal>
    <varray name="basis" >
     <v>      18.06080055       0.00000000       0.00000000 </v>
     <v>      -0.00491865      18.06279945       0.00000000 </v>
     <v>       0.00000000       0.00000000      62.48749924 </v>
    </varray>
    <i name="volume">  20385.21054034 </i>
    <varray name="rec_basis" >
     <v>       0.05536853       0.00001508      -0.00000000 </v>
     <v>       0.00000000       0.05536240       0.00000000 </v>
     <v>       0.00000000      -0.00000000       0.01600320 </v>
    </varray>
   </crystal>
   <varray name="positions" >
    <v>       0.46031147       0.32587685       0.57528065 </v>
    <v>       0.45026790       0.84312224       0.57453691 </v>
    <v>       0.92129640       0.24383695       0.58098193 </v>
    <v>       0.94454383       0.80700740       0.58001060 </v>
    <v>       0.30318995       0.06354522       0.57534402 </v>
    <v>       0.32037571       0.56990902       0.57681129 </v>
    <v>       0.79525045       0.07795920       0.57859192 </v>
    <v>       0.10690507       0.24065834       0.55870299 </v>
    <v>       0.09528374       0.67882930       0.56689744 </v>
    <v>       0.56656932       0.16943287       0.55635890 </v>
    <v>       0.49523471       0.65037694       0.56547675 </v>
    <v>       0.36215355       0.00855252       0.55976907 </v>
    <v>       0.27439813       0.62494571       0.55803404 </v>
    <v>       0.86910197       0.02814227       0.56685746 </v>
    <v>       0.05950571       0.23198310       0.58288282 </v>
    <v>       0.02359256       0.69273786       0.58544614 </v>
    <v>       0.57249193       0.24877578       0.57239165 </v>
    <v>       0.46610520       0.70926623       0.58565284 </v>
    <v>       0.27971057       0.43817151       0.57899276 </v>
    <v>       0.16827732       0.03874953       0.57203855 </v>
    <v>       0.67264295       0.02097041       0.57626284 </v>
    <v>       0.38051431       0.29256804       0.56163742 </v>
    <v>       0.48821379       0.86847802       0.54987365 </v>
    <v>       0.87937313       0.24327576       0.55588883 </v>
    <v>       0.97721433       0.86749899       0.56060041 </v>
    <v>       0.20396824       0.41253443       0.56280935 </v>
    <v>       0.14120167       0.97078002       0.55376231 </v>
    <v>       0.66838849       0.93327007       0.56304999 </v>
    <v>       0.44223065       0.19002881       0.54758920 </v>
    <v>       0.51949014       0.74426994       0.54123270 </v>
    <v>       0.99606268       0.24789020       0.53884117 </v>
    <v>       0.06892948       0.78967750       0.54894097 </v>
    <v>       0.19430579       0.52979026       0.54719795 </v>
    <v>       0.26438189       0.94288609       0.54404149 </v>
    <v>       0.78945808       0.93146427       0.55497007 </v>
    <v>       0.46350113       0.31099880       0.67460240 </v>
    <v>       0.43385190       0.80971301       0.67343700 </v>
    <v>       0.95648063       0.27881527       0.67842701 </v>
    <v>       0.92522154       0.77527888       0.67423062 </v>
    <v>       0.30536970       0.05548321       0.67370695 </v>
    <v>       0.29435869       0.53995376       0.67782576 </v>
    <v>       0.79029562       0.05346979       0.67536463 </v>
    <v>       0.84860364       0.49622581       0.66720083 </v>
    <v>       0.08869302       0.17479878       0.64544514 </v>
    <v>       0.09613099       0.69151638       0.65310475 </v>
    <v>       0.57682869       0.16754090       0.64918240 </v>
    <v>       0.57368773       0.67710662       0.65473618 </v>
    <v>       0.17591125       0.41384809       0.64649381 </v>
    <v>       0.17529822       0.92351178       0.64956504 </v>
    <v>       0.64882447       0.47930599       0.65885810 </v>
    <v>       0.67271415       0.91482729       0.64908863 </v>
    <v>       0.06325129       0.18348284       0.67233223 </v>
    <v>       0.03614738       0.68402872       0.67495244 </v>
    <v>       0.56915310       0.21285715       0.67347674 </v>
    <v>       0.53450448       0.70711150       0.67845314 </v>
    <v>       0.19840032       0.43299235       0.67320551 </v>
    <v>       0.20194927       0.95618009       0.67464122 </v>
    <v>       0.72184188       0.43869609       0.67356508 </v>
    <v>       0.69462660       0.94692436       0.67461919 </v>
    <v>       0.41373324       0.31945160       0.65079795 </v>
    <v>       0.41916133       0.83419943       0.64658697 </v>
    <v>       0.92501001       0.32027612       0.65546118 </v>
    <v>       0.92481860       0.83346279       0.65186689 </v>
    <v>       0.33494681       0.07787384       0.64781145 </v>
    <v>       0.32252659       0.58089099       0.65368030 </v>
    <v>       0.82444077       0.07773688       0.65007265 </v>
    <v>       0.85400996       0.55992259       0.64637440 </v>
    <v>       0.00308469       0.26162751       0.63314336 </v>
    <v>       0.03083433       0.78548235       0.63710533 </v>
    <v>       0.48010188       0.23013753       0.63291883 </v>
    <v>       0.50636464       0.75311245       0.63313249 </v>
    <v>       0.25451897       0.99638915       0.63096195 </v>
    <v>       0.25082790       0.50545004       0.63261695 </v>
    <v>       0.75202309       0.99282097       0.63181589 </v>
    <v>       0.72542072       0.55549841       0.63948472 </v>
    <v>       0.44874502       0.30128397       0.76888902 </v>
    <v>       0.44874501       0.80128391       0.76888902 </v>
    <v>       0.94874497       0.30128397       0.76888902 </v>
    <v>       0.94874501       0.80128391       0.76888902 </v>
    <v>       0.30127600       0.05129450       0.76887296 </v>
    <v>       0.30127601       0.55129450       0.76887296 </v>
    <v>       0.80127594       0.05129450       0.76887296 </v>
    <v>       0.80127598       0.55129450       0.76887296 </v>
    <v>       0.07877100       0.17118050       0.74344197 </v>
    <v>       0.07877101       0.67118045       0.74344197 </v>
    <v>       0.57877100       0.17118050       0.74344197 </v>
    <v>       0.57877099       0.67118045       0.74344197 </v>
    <v>       0.17119950       0.42117448       0.74342103 </v>
    <v>       0.17119950       0.92117451       0.74342103 </v>
    <v>       0.67119951       0.42117448       0.74342103 </v>
    <v>       0.67119950       0.92117451       0.74342103 </v>
    <v>       0.05125600       0.19871499       0.76888902 </v>
    <v>       0.05125600       0.69871493       0.76888902 </v>
    <v>       0.55125603       0.19871499       0.76888902 </v>
    <v>       0.55125602       0.69871493       0.76888902 </v>
    <v>       0.19872349       0.44870397       0.76887205 </v>
    <v>       0.19872349       0.94870397       0.76887205 </v>
    <v>       0.69872352       0.44870397       0.76887205 </v>
    <v>       0.69872351       0.94870397       0.76887205 </v>
    <v>       0.42123152       0.32881747       0.74344197 </v>
    <v>       0.42123151       0.82881744       0.74344197 </v>
    <v>       0.92123147       0.32881747       0.74344197 </v>
    <v>       0.92123151       0.82881744       0.74344197 </v>
    <v>       0.32880050       0.07882500       0.74342103 </v>
    <v>       0.32880049       0.57882496       0.74342103 </v>
    <v>       0.82880048       0.07882500       0.74342103 </v>
    <v>       0.82880052       0.57882496       0.74342103 </v>
    <v>       0.00000350       0.25000148       0.72582199 </v>
    <v>       0.00000350       0.75000145       0.72582199 </v>
    <v>       0.50000351       0.25000148       0.72582199 </v>
    <v>       0.50000350       0.75000145       0.72582199 </v>
    <v>       0.25000050       0.00000000       0.72580398 </v>
    <v>       0.25000052       0.50000000       0.72580398 </v>
    <v>       0.75000050       0.00000000       0.72580398 </v>
    <v>       0.75000049       0.50000000       0.72580398 </v>
    <v>       0.71763126       0.43827619       0.54206026 </v>
    <v>       0.73597254       0.49649529       0.52002222 </v>
    <v>       0.65385586       0.55200341       0.56113647 </v>
    <v>       0.70421061       0.63602679       0.55899474 </v>
    <v>       0.84436583       0.50375302       0.57221259 </v>
    <v>       0.78120642       0.57070616       0.58202523 </v>
    <v>       0.86538321       0.55855418       0.53271220 </v>
    <v>       0.79291094       0.62493742       0.52738301 </v>
    <v>       0.86771343       0.46568614       0.51898356 </v>
    <v>       0.86363967       0.42701333       0.54468029 </v>
    <v>       0.87307498       0.33010771       0.51951193 </v>
    <v>       0.78460482       0.32296690       0.53085563 </v>
    <v>       0.63808348       0.54905192       0.52102126 </v>
    <v>       0.69015694       0.63329123       0.51896849 </v>
    <v>       0.60510933       0.63252899       0.53253052 </v>
    <v>       0.75307043       0.45053156       0.59868224 </v>
    <v>       0.74522558       0.40462887       0.57364116 </v>
    <v>       0.67916888       0.47213865       0.58165546 </v>
    <v>       0.82467463       0.68669532       0.56270782 </v>
    <v>       0.89520069       0.68480009       0.54346484 </v>
    <v>       0.90147591       0.62177510       0.56554976 </v>
    <v>       0.81798033       0.38822658       0.48668441 </v>
    <v>       0.78502985       0.29860913       0.49212095 </v>
    <v>       0.66316703       0.31995925       0.52273834 </v>
    <v>       0.73135781       0.46134976       0.47066268 </v>
    <v>       0.53761134       0.37676520       0.52164022 </v>
    <v>       0.60615887       0.51779652       0.46947955 </v>
    <v>       0.50846359       0.47491491       0.49491225 </v>
    <v>       0.99365570       0.24406754       0.55600739 </v>
    <v>       0.03427183       0.77246767       0.56228263 </v>
    <v>       0.47246455       0.22943685       0.55756556 </v>
    <v>       0.49591395       0.75810400       0.55703414 </v>
    <v>       0.23730041       0.51896826       0.55922898 </v>
    <v>       0.25291749       0.98676180       0.55567273 </v>
    <v>       0.76877787       0.97947092       0.56381223 </v>
    <v>       0.00684476       0.24759150       0.65007473 </v>
    <v>       0.01101293       0.76275996       0.65212183 </v>
    <v>       0.49562764       0.24346465       0.64943757 </v>
    <v>       0.49661741       0.75581717       0.65024273 </v>
    <v>       0.24948129       0.49772706       0.64978463 </v>
    <v>       0.25525936       0.00073835       0.64831094 </v>
    <v>       0.75060129       0.52016793       0.65144957 </v>
    <v>       0.74863558       0.99612498       0.64916542 </v>
    <v>       0.49998898       0.24999498       0.74327702 </v>
    <v>       0.49998903       0.74999496       0.74327702 </v>
    <v>       0.99998898       0.24999498       0.74327702 </v>
    <v>       0.99998903       0.74999496       0.74327702 </v>
    <v>       0.25000050       0.00000100       0.74325596 </v>
    <v>       0.25000052       0.50000100       0.74325596 </v>
    <v>       0.75000050       0.00000100       0.74325596 </v>
    <v>       0.75000049       0.50000100       0.74325596 </v>
    <v>       0.70628668       0.38725460       0.49686036 </v>
    <v>       0.64958317       0.36263804       0.51080056 </v>
    <v>       0.68859746       0.44201796       0.48196520 </v>
    <v>       0.57961638       0.39469617       0.51020901 </v>
    <v>       0.61790434       0.47402469       0.48103921 </v>
    <v>       0.56371044       0.45021346       0.49516603 </v>
    <v>       0.75904260       0.47451708       0.53478342 </v>
    <v>       0.69183965       0.58353030       0.55072594 </v>
    <v>       0.78611161       0.51991741       0.57248255 </v>
    <v>       0.82298852       0.59427521       0.53977074 </v>
    <v>       0.83164849       0.43344699       0.52984896 </v>
    <v>       0.81874401       0.35714423       0.52015085 </v>
    <v>       0.65534654       0.59943687       0.52942724 </v>
    <v>       0.73840433       0.45860523       0.58175289 </v>
    <v>       0.86277379       0.64899427       0.55434757 </v>
    <v>       0.78373136       0.35619165       0.49788508 </v>
    <v>       0.05655187       0.23658635       0.56649331 </v>
    <v>       0.05169347       0.71065296       0.57221607 </v>
    <v>       0.54205285       0.21599955       0.56211280 </v>
    <v>       0.48927165       0.70365547       0.57082132 </v>
    <v>       0.43642807       0.28947272       0.56445012 </v>
    <v>       0.47713642       0.82706445       0.56048002 </v>
    <v>       0.92747726       0.24730312       0.56472056 </v>
    <v>       0.97813850       0.81553227       0.56726312 </v>
    <v>       0.23976930       0.45131751       0.56752709 </v>
    <v>       0.18362034       0.99851311       0.56097615 </v>
    <v>       0.69641704       0.97981330       0.56698419 </v>
    <v>       0.30988116       0.02330091       0.56375662 </v>
    <v>       0.28176935       0.57349863       0.56466720 </v>
    <v>       0.81352579       0.03193561       0.57037495 </v>
    <v>       0.05566590       0.19919055       0.65675978 </v>
    <v>       0.04968687       0.70932394       0.66073634 </v>
    <v>       0.55031986       0.20642386       0.65807730 </v>
    <v>       0.53684247       0.71142360       0.66188184 </v>
    <v>       0.20622060       0.44519910       0.65712844 </v>
    <v>       0.20768983       0.95739967       0.65828804 </v>
    <v>       0.70504236       0.47470399       0.66163948 </v>
    <v>       0.70232283       0.94968021       0.65828975 </v>
    <v>       0.45566927       0.29454505       0.65900864 </v>
    <v>       0.44720710       0.80264567       0.65744503 </v>
    <v>       0.95965653       0.28395111       0.66241630 </v>
    <v>       0.95074698       0.79271891       0.66024625 </v>
    <v>       0.30097490       0.04737767       0.65742922 </v>
    <v>       0.29081100       0.54081072       0.66139779 </v>
    <v>       0.78993560       0.04533574       0.65906102 </v>
    <v>       0.82211581       0.52515335       0.65527193 </v>
    <v>       0.04586250       0.20411950       0.75272599 </v>
    <v>       0.04586250       0.70411946       0.75272599 </v>
    <v>       0.54586251       0.20411950       0.75272599 </v>
    <v>       0.54586250       0.70411946       0.75272599 </v>
    <v>       0.20411900       0.45410100       0.75270499 </v>
    <v>       0.20411899       0.95410095       0.75270499 </v>
    <v>       0.70411898       0.45410100       0.75270499 </v>
    <v>       0.70411896       0.95410095       0.75270499 </v>
    <v>       0.45414002       0.29588849       0.75272697 </v>
    <v>       0.45414001       0.79588852       0.75272697 </v>
    <v>       0.95414002       0.29588849       0.75272697 </v>
    <v>       0.95414006       0.79588852       0.75272697 </v>
    <v>       0.29588249       0.04590050       0.75270499 </v>
    <v>       0.29588248       0.54590053       0.75270499 </v>
    <v>       0.79588244       0.04590050       0.75270499 </v>
    <v>       0.79588248       0.54590053       0.75270499 </v>
    <v>       0.76603994       0.54110771       0.54955718 </v>
    <v>       0.50254186       0.01706367       0.55297321 </v>
    <v>       0.48256317       0.51402233       0.55560618 </v>
    <v>       0.99469042       0.00493340       0.55220383 </v>
    <v>       0.03475213       0.50553119       0.55370126 </v>
    <v>       0.24548024       0.24804379       0.55337869 </v>
    <v>       0.24721280       0.76396708       0.55244289 </v>
    <v>       0.74194688       0.21260220       0.55683495 </v>
    <v>       0.70563599       0.79232087       0.54993360 </v>
    <v>       0.00588030       0.99698017       0.65478526 </v>
    <v>       0.01278409       0.49091468       0.65568064 </v>
    <v>       0.50175661       0.00172272       0.65482360 </v>
    <v>       0.50414684       0.49370731       0.65538328 </v>
    <v>       0.25617055       0.24490613       0.65449816 </v>
    <v>       0.25001574       0.75327433       0.65469546 </v>
    <v>       0.74616347       0.25841347       0.65561966 </v>
    <v>       0.74890061       0.74648608       0.65376370 </v>
    <v>       0.13993617       0.11310148       0.60717705 </v>
    <v>       0.14512523       0.61192701       0.61088079 </v>
    <v>       0.64524837       0.11019987       0.60981100 </v>
    <v>       0.62219744       0.62706142       0.61409103 </v>
    <v>       0.35926815       0.39313317       0.61004914 </v>
    <v>       0.37310624       0.88316724       0.60657719 </v>
    <v>       0.88504300       0.37037140       0.61293998 </v>
    <v>       0.86705525       0.88222258       0.61011507 </v>
    <v>       0.11569042       0.36045979       0.60901878 </v>
    <v>       0.12033473       0.87564446       0.60865091 </v>
    <v>       0.58924420       0.34330143       0.60493697 </v>
    <v>       0.61217005       0.86341715       0.61002136 </v>
    <v>       0.38315468       0.13331219       0.60723706 </v>
    <v>       0.38028648       0.63453921       0.61372633 </v>
    <v>       0.88919417       0.14263701       0.61379403 </v>
    <v>       0.91203693       0.65042683       0.61712172 </v>
    <v>       0.00000000       0.00000000       0.75492797 </v>
    <v>       0.00000000       0.50000000       0.75492797 </v>
    <v>       0.50000000       0.00000000       0.75492797 </v>
    <v>       0.49999999       0.50000000       0.75492797 </v>
    <v>       0.25000050       0.25000000       0.75493902 </v>
    <v>       0.25000051       0.74999997       0.75493902 </v>
    <v>       0.75000047       0.25000000       0.75493902 </v>
    <v>       0.75000046       0.74999997       0.75493902 </v>
    <v>       0.13579050       0.11421000       0.70478299 </v>
    <v>       0.13579050       0.61420998       0.70478299 </v>
    <v>       0.63579045       0.11421000       0.70478299 </v>
    <v>       0.63579049       0.61420998       0.70478299 </v>
    <v>       0.36420952       0.38578999       0.70478299 </v>
    <v>       0.36420950       0.88578996       0.70478299 </v>
    <v>       0.86420954       0.38578999       0.70478299 </v>
    <v>       0.86420953       0.88578996       0.70478299 </v>
    <v>       0.11421799       0.36421899       0.70478098 </v>
    <v>       0.11421799       0.86421899       0.70478098 </v>
    <v>       0.61421800       0.36421899       0.70478098 </v>
    <v>       0.61421799       0.86421899       0.70478098 </v>
    <v>       0.38578201       0.13578149       0.70478202 </v>
    <v>       0.38578200       0.63578149       0.70478202 </v>
    <v>       0.88578199       0.13578149       0.70478202 </v>
    <v>       0.88578203       0.63578149       0.70478202 </v>
    <v>       0.13466700       0.11533200       0.80125603 </v>
    <v>       0.13466699       0.61533199       0.80125603 </v>
    <v>       0.63466699       0.11533200       0.80125603 </v>
    <v>       0.63466698       0.61533199       0.80125603 </v>
    <v>       0.36533300       0.38466799       0.80125603 </v>
    <v>       0.36533299       0.88466796       0.80125603 </v>
    <v>       0.86533295       0.38466799       0.80125603 </v>
    <v>       0.86533294       0.88466796       0.80125603 </v>
    <v>       0.11532850       0.36533700       0.80126500 </v>
    <v>       0.11532850       0.86533698       0.80126500 </v>
    <v>       0.61532850       0.36533700       0.80126500 </v>
    <v>       0.61532849       0.86533698       0.80126500 </v>
    <v>       0.38467151       0.13466300       0.80126500 </v>
    <v>       0.38467150       0.63466297       0.80126500 </v>
    <v>       0.88467149       0.13466300       0.80126500 </v>
    <v>       0.88467153       0.63466297       0.80126500 </v>
    <v>       0.99509414       0.00443222       0.60545667 </v>
    <v>       0.00535038       0.50716539       0.60417809 </v>
    <v>       0.50380804       0.00661121       0.60502537 </v>
    <v>       0.49826459       0.50345265       0.60445610 </v>
    <v>       0.24897508       0.25205085       0.60463131 </v>
    <v>       0.24671886       0.75623174       0.60369838 </v>
    <v>       0.74713839       0.25922848       0.60592832 </v>
    <v>       0.73851160       0.75650935       0.60184163 </v>
    <v>       0.00000050       0.00000050       0.70482896 </v>
    <v>       0.00000050       0.50000048       0.70482896 </v>
    <v>       0.50000048       0.00000050       0.70482896 </v>
    <v>       0.50000046       0.50000048       0.70482896 </v>
    <v>       0.24999999       0.24999947       0.70482499 </v>
    <v>       0.25000001       0.74999950       0.70482499 </v>
    <v>       0.74999999       0.24999947       0.70482499 </v>
    <v>       0.74999998       0.74999950       0.70482499 </v>
    <v>       0.00000000       0.00000000       0.80731797 </v>
    <v>       0.00000000       0.50000000       0.80731797 </v>
    <v>       0.50000000       0.00000000       0.80731797 </v>
    <v>       0.49999999       0.50000000       0.80731797 </v>
    <v>       0.24999999       0.25000000       0.80731797 </v>
    <v>       0.25000001       0.74999997       0.80731797 </v>
    <v>       0.74999999       0.25000000       0.80731797 </v>
    <v>       0.74999998       0.74999997       0.80731797 </v>
   </varray>
  </structure>
  <varray name="primitive_index" >
   <v type="int" >        1 </v>
   <v type="int" >        2 </v>
   <v type="int" >        3 </v>
   <v type="int" >        4 </v>
   <v type="int" >        5 </v>
   <v type="int" >        6 </v>
   <v type="int" >        7 </v>
   <v type="int" >        8 </v>
   <v type="int" >        9 </v>
   <v type="int" >       10 </v>
   <v type="int" >       11 </v>
   <v type="int" >       12 </v>
   <v type="int" >       13 </v>
   <v type="int" >       14 </v>
   <v type="int" >       15 </v>
   <v type="int" >       16 </v>
   <v type="int" >       17 </v>
   <v type="int" >       18 </v>
   <v type="int" >       19 </v>
   <v type="int" >       20 </v>
   <v type="int" >       21 </v>
   <v type="int" >       22 </v>
   <v type="int" >       23 </v>
   <v type="int" >       24 </v>
   <v type="int" >       25 </v>
   <v type="int" >       26 </v>
   <v type="int" >       27 </v>
   <v type="int" >       28 </v>
   <v type="int" >       29 </v>
   <v type="int" >       30 </v>
   <v type="int" >       31 </v>
   <v type="int" >       32 </v>
   <v type="int" >       33 </v>
   <v type="int" >       34 </v>
   <v type="int" >       35 </v>
   <v type="int" >       36 </v>
   <v type="int" >       37 </v>
   <v type="int" >       38 </v>
   <v type="int" >       39 </v>
   <v type="int" >       40 </v>
   <v type="int" >       41 </v>
   <v type="int" >       42 </v>
   <v type="int" >       43 </v>
   <v type="int" >       44 </v>
   <v type="int" >       45 </v>
   <v type="int" >       46 </v>
   <v type="int" >       47 </v>
   <v type="int" >       48 </v>
   <v type="int" >       49 </v>
   <v type="int" >       50 </v>
   <v type="int" >       51 </v>
   <v type="int" >       52 </v>
   <v type="int" >       53 </v>
   <v type="int" >       54 </v>
   <v type="int" >       55 </v>
   <v type="int" >       56 </v>
   <v type="int" >       57 </v>
   <v type="int" >       58 </v>
   <v type="int" >       59 </v>
   <v type="int" >       60 </v>
   <v type="int" >       61 </v>
   <v type="int" >       62 </v>
   <v type="int" >       63 </v>
   <v type="int" >       64 </v>
   <v type="int" >       65 </v>
   <v type="int" >       66 </v>
   <v type="int" >       67 </v>
   <v type="int" >       68 </v>
   <v type="int" >       69 </v>
   <v type="int" >       70 </v>
   <v type="int" >       71 </v>
   <v type="int" >       72 </v>
   <v type="int" >       73 </v>
   <v type="int" >       74 </v>
   <v type="int" >       75 </v>
   <v type="int" >       76 </v>
   <v type="int" >       77 </v>
   <v type="int" >       78 </v>
   <v type="int" >       79 </v>
   <v type="int" >       80 </v>
   <v type="int" >       81 </v>
   <v type="int" >       82 </v>
   <v type="int" >       83 </v>
   <v type="int" >       84 </v>
   <v type="int" >       85 </v>
   <v type="int" >       86 </v>
   <v type="int" >       87 </v>
   <v type="int" >       88 </v>
   <v type="int" >       89 </v>
   <v type="int" >       90 </v>
   <v type="int" >       91 </v>
   <v type="int" >       92 </v>
   <v type="int" >       93 </v>
   <v type="int" >       94 </v>
   <v type="int" >       95 </v>
   <v type="int" >       96 </v>
   <v type="int" >       97 </v>
   <v type="int" >       98 </v>
   <v type="int" >       99 </v>
   <v type="int" >      100 </v>
   <v type="int" >      101 </v>
   <v type="int" >      102 </v>
   <v type="int" >      103 </v>
   <v type="int" >      104 </v>
   <v type="int" >      105 </v>
   <v type="int" >      106 </v>
   <v type="int" >      107 </v>
   <v type="int" >      108 </v>
   <v type="int" >      109 </v>
   <v type="int" >      110 </v>
   <v type="int" >      111 </v>
   <v type="int" >      112 </v>
   <v type="int" >      113 </v>
   <v type="int" >      114 </v>
   <v type="int" >      115 </v>
   <v type="int" >      116 </v>
   <v type="int" >      117 </v>
   <v type="int" >      118 </v>
   <v type="int" >      119 </v>
   <v type="int" >      120 </v>
   <v type="int" >      121 </v>
   <v type="int" >      122 </v>
   <v type="int" >      123 </v>
   <v type="int" >      124 </v>
   <v type="int" >      125 </v>
   <v type="int" >      126 </v>
   <v type="int" >      127 </v>
   <v type="int" >      128 </v>
   <v type="int" >      129 </v>
   <v type="int" >      130 </v>
   <v type="int" >      131 </v>
   <v type="int" >      132 </v>
   <v type="int" >      133 </v>
   <v type="int" >      134 </v>
   <v type="int" >      135 </v>
   <v type="int" >      136 </v>
   <v type="int" >      137 </v>
   <v type="int" >      138 </v>
   <v type="int" >      139 </v>
   <v type="int" >      140 </v>
   <v type="int" >      141 </v>
   <v type="int" >      142 </v>
   <v type="int" >      143 </v>
   <v type="int" >      144 </v>
   <v type="int" >      145 </v>
   <v type="int" >      146 </v>
   <v type="int" >      147 </v>
   <v type="int" >      148 </v>
   <v type="int" >      149 </v>
   <v type="int" >      150 </v>
   <v type="int" >      151 </v>
   <v type="int" >      152 </v>
   <v type="int" >      153 </v>
   <v type="int" >      154 </v>
   <v type="int" >      155 </v>
   <v type="int" >      156 </v>
   <v type="int" >      157 </v>
   <v type="int" >      158 </v>
   <v type="int" >      159 </v>
   <v type="int" >      160 </v>
   <v type="int" >      161 </v>
   <v type="int" >      162 </v>
   <v type="int" >      163 </v>
   <v type="int" >      164 </v>
   <v type="int" >      165 </v>
   <v type="int" >      166 </v>
   <v type="int" >      167 </v>
   <v type="int" >      168 </v>
   <v type="int" >      169 </v>
   <v type="int" >      170 </v>
   <v type="int" >      171 </v>
   <v type="int" >      172 </v>
   <v type="int" >      173 </v>
   <v type="int" >      174 </v>
   <v type="int" >      175 </v>
   <v type="int" >      176 </v>
   <v type="int" >      177 </v>
   <v type="int" >      178 </v>
   <v type="int" >      179 </v>
   <v type="int" >      180 </v>
   <v type="int" >      181 </v>
   <v type="int" >      182 </v>
   <v type="int" >      183 </v>
   <v type="int" >      184 </v>
   <v type="int" >      185 </v>
   <v type="int" >      186 </v>
   <v type="int" >      187 </v>
   <v type="int" >      188 </v>
   <v type="int" >      189 </v>
   <v type="int" >      190 </v>
   <v type="int" >      191 </v>
   <v type="int" >      192 </v>
   <v type="int" >      193 </v>
   <v type="int" >      194 </v>
   <v type="int" >      195 </v>
   <v type="int" >      196 </v>
   <v type="int" >      197 </v>
   <v type="int" >      198 </v>
   <v type="int" >      199 </v>
   <v type="int" >      200 </v>
   <v type="int" >      201 </v>
   <v type="int" >      202 </v>
   <v type="int" >      203 </v>
   <v type="int" >      204 </v>
   <v type="int" >      205 </v>
   <v type="int" >      206 </v>
   <v type="int" >      207 </v>
   <v type="int" >      208 </v>
   <v type="int" >      209 </v>
   <v type="int" >      210 </v>
   <v type="int" >      211 </v>
   <v type="int" >      212 </v>
   <v type="int" >      213 </v>
   <v type="int" >      214 </v>
   <v type="int" >      215 </v>
   <v type="int" >      216 </v>
   <v type="int" >      217 </v>
   <v type="int" >      218 </v>
   <v type="int" >      219 </v>
   <v type="int" >      220 </v>
   <v type="int" >      221 </v>
   <v type="int" >      222 </v>
   <v type="int" >      223 </v>
   <v type="int" >      224 </v>
   <v type="int" >      225 </v>
   <v type="int" >      226 </v>
   <v type="int" >      227 </v>
   <v type="int" >      228 </v>
   <v type="int" >      229 </v>
   <v type="int" >      230 </v>
   <v type="int" >      231 </v>
   <v type="int" >      232 </v>
   <v type="int" >      233 </v>
   <v type="int" >      234 </v>
   <v type="int" >      235 </v>
   <v type="int" >      236 </v>
   <v type="int" >      237 </v>
   <v type="int" >      238 </v>
   <v type="int" >      239 </v>
   <v type="int" >      240 </v>
   <v type="int" >      241 </v>
   <v type="int" >      242 </v>
   <v type="int" >      243 </v>
   <v type="int" >      244 </v>
   <v type="int" >      245 </v>
   <v type="int" >      246 </v>
   <v type="int" >      247 </v>
   <v type="int" >      248 </v>
   <v type="int" >      249 </v>
   <v type="int" >      250 </v>
   <v type="int" >      251 </v>
   <v type="int" >      252 </v>
   <v type="int" >      253 </v>
   <v type="int" >      254 </v>
   <v type="int" >      255 </v>
   <v type="int" >      256 </v>
   <v type="int" >      257 </v>
   <v type="int" >      258 </v>
   <v type="int" >      259 </v>
   <v type="int" >      260 </v>
   <v type="int" >      261 </v>
   <v type="int" >      262 </v>
   <v type="int" >      263 </v>
   <v type="int" >      264 </v>
   <v type="int" >      265 </v>
   <v type="int" >      266 </v>
   <v type="int" >      267 </v>
   <v type="int" >      268 </v>
   <v type="int" >      269 </v>
   <v type="int" >      270 </v>
   <v type="int" >      271 </v>
   <v type="int" >      272 </v>
   <v type="int" >      273 </v>
   <v type="int" >      274 </v>
   <v type="int" >      275 </v>
   <v type="int" >      276 </v>
   <v type="int" >      277 </v>
   <v type="int" >      278 </v>
   <v type="int" >      279 </v>
   <v type="int" >      280 </v>
   <v type="int" >      281 </v>
   <v type="int" >      282 </v>
   <v type="int" >      283 </v>
   <v type="int" >      284 </v>
   <v type="int" >      285 </v>
   <v type="int" >      286 </v>
   <v type="int" >      287 </v>
   <v type="int" >      288 </v>
   <v type="int" >      289 </v>
   <v type="int" >      290 </v>
   <v type="int" >      291 </v>
   <v type="int" >      292 </v>
   <v type="int" >      293 </v>
   <v type="int" >      294 </v>
   <v type="int" >      295 </v>
   <v type="int" >      296 </v>
   <v type="int" >      297 </v>
   <v type="int" >      298 </v>
   <v type="int" >      299 </v>
   <v type="int" >      300 </v>
   <v type="int" >      301 </v>
   <v type="int" >      302 </v>
   <v type="int" >      303 </v>
   <v type="int" >      304 </v>
   <v type="int" >      305 </v>
   <v type="int" >      306 </v>
   <v type="int" >      307 </v>
   <v type="int" >      308 </v>
   <v type="int" >      309 </v>
   <v type="int" >      310 </v>
   <v type="int" >      311 </v>
   <v type="int" >      312 </v>
   <v type="int" >      313 </v>
   <v type="int" >      314 </v>
   <v type="int" >      315 </v>
   <v type="int" >      316 </v>
   <v type="int" >      317 </v>
   <v type="int" >      318 </v>
   <v type="int" >      319 </v>
   <v type="int" >      320 </v>
   <v type="int" >      321 </v>
   <v type="int" >      322 </v>
   <v type="int" >      323 </v>
   <v type="int" >      324 </v>
   <v type="int" >      325 </v>
  </varray>
 </primitive_cell>
 <kpoints>
  <generation param="Gamma">
   <v type="int" name="divisions">       3        3        1 </v>
   <v name="usershift">      0.00000000       0.00000000       0.00000000 </v>
   <v name="genvec1">      0.33333333       0.00000000       0.00000000 </v>
   <v name="genvec2">      0.00000000       0.33333333       0.00000000 </v>
   <v name="genvec3">      0.00000000       0.00000000       1.00000000 </v>
   <v name="shift">      0.00000000       0.00000000       0.00000000 </v>
  </generation>
  <varray name="kpointlist" >
   <v>       0.00000000       0.00000000       0.00000000 </v>
   <v>       0.33333333       0.00000000       0.00000000 </v>
   <v>       0.00000000       0.33333333       0.00000000 </v>
   <v>       0.33333333       0.33333333       0.00000000 </v>
   <v>      -0.33333333       0.33333333       0.00000000 </v>
  </varray>
  <varray name="weights" >
   <v>       0.11111111 </v>
   <v>       0.22222222 </v>
   <v>       0.22222222 </v>
   <v>       0.22222222 </v>
   <v>       0.22222222 </v>
  </varray>
 </kpoints>
 <parameters>
  <separator name="general" >
   <i type="string" name="SYSTEM">PSC</i>
   <i type="logical" name="LCOMPAT"> F  </i>
  </separator>
  <separator name="electronic" >
   <i type="string" name="PREC">normal</i>
   <i name="ENMAX">    500.00000000</i>
   <i name="ENAUG">    644.87300000</i>
   <i name="EDIFF">      0.00010000</i>
   <i type="int" name="IALGO">    38</i>
   <i type="int" name="IWAVPR">    10</i>
   <i type="int" name="NBANDS">   732</i>
   <i type="int" name="NBANDSLOW">    -1</i>
   <i type="int" name="NBANDSHIGH">    -1</i>
   <i name="NELECT">   1134.00000000</i>
   <i type="int" name="TURBO">     0</i>
   <i type="int" name="IRESTART">     0</i>
   <i type="int" name="NREBOOT">     0</i>
   <i type="int" name="NMIN">     0</i>
   <i name="EREF">      0.00000000</i>
   <separator name="electronic smearing" >
    <i type="int" name="ISMEAR">     0</i>
    <i name="SIGMA">      0.05000000</i>
    <i name="KSPACING">      0.50000000</i>
    <i type="logical" name="KGAMMA"> T  </i>
    <i type="logical" name="KBLOWUP"> T  </i>
   </separator>
   <separator name="electronic projectors" >
    <i type="logical" name="LREAL"> T  </i>
    <v name="ROPT">     -0.00050000     -0.00050000     -0.00050000     -0.00050000     -0.00050000</v>
    <i type="int" name="LMAXPAW">  -100</i>
    <i type="int" name="LMAXMIX">     2</i>
    <i type="logical" name="NLSPLINE"> F  </i>
   </separator>
   <separator name="electronic startup" >
    <i type="int" name="ISTART">     0</i>
    <i type="int" name="ICHARG">     1</i>
    <i type="int" name="INIWAV">     1</i>
   </separator>
   <separator name="electronic spin" >
    <i type="int" name="ISPIN">     1</i>
    <i type="logical" name="LNONCOLLINEAR"> F  </i>
    <v name="MAGMOM">      1.00000000      1.00000000      1.00000000      1.00000000      1.00000000      1.00000000      1.00000000      1.00000000      1.00000000      1.00000000      1.00000000      1.00000000      1.00000000      1.00000000      1.00000000      1.00000000      1.00000000      1.00000000      1.00000000      1.00000000
      1.00000000      1.00000000      1.00000000      1.00000000      1.00000000      1.00000000      1.00000000      1.00000000      1.00000000      1.00000000      1.00000000      1.00000000      1.00000000      1.00000000      1.00000000      1.00000000      1.00000000      1.00000000      1.00000000      1.00000000
      1.00000000      1.00000000      1.00000000      1.00000000      1.00000000      1.00000000      1.00000000      1.00000000      1.00000000      1.00000000      1.00000000      1.00000000      1.00000000      1.00000000      1.00000000      1.00000000      1.00000000      1.00000000      1.00000000      1.00000000
      1.00000000      1.00000000      1.00000000      1.00000000      1.00000000      1.00000000      1.00000000      1.00000000      1.00000000      1.00000000      1.00000000      1.00000000      1.00000000      1.00000000      1.00000000      1.00000000      1.00000000      1.00000000      1.00000000      1.00000000
      1.00000000      1.00000000      1.00000000      1.00000000      1.00000000      1.00000000      1.00000000      1.00000000      1.00000000      1.00000000      1.00000000      1.00000000      1.00000000      1.00000000      1.00000000      1.00000000      1.00000000      1.00000000      1.00000000      1.00000000
      1.00000000      1.00000000      1.00000000      1.00000000      1.00000000      1.00000000      1.00000000      1.00000000      1.00000000      1.00000000      1.00000000      1.00000000      1.00000000      1.00000000      1.00000000      1.00000000      1.00000000      1.00000000      1.00000000      1.00000000
      1.00000000      1.00000000      1.00000000      1.00000000      1.00000000      1.00000000      1.00000000      1.00000000      1.00000000      1.00000000      1.00000000      1.00000000      1.00000000      1.00000000      1.00000000      1.00000000      1.00000000      1.00000000      1.00000000      1.00000000
      1.00000000      1.00000000      1.00000000      1.00000000      1.00000000      1.00000000      1.00000000      1.00000000      1.00000000      1.00000000      1.00000000      1.00000000      1.00000000      1.00000000      1.00000000      1.00000000      1.00000000      1.00000000      1.00000000      1.00000000
      1.00000000      1.00000000      1.00000000      1.00000000      1.00000000      1.00000000      1.00000000      1.00000000      1.00000000      1.00000000      1.00000000      1.00000000      1.00000000      1.00000000      1.00000000      1.00000000      1.00000000      1.00000000      1.00000000      1.00000000
      1.00000000      1.00000000      1.00000000      1.00000000      1.00000000      1.00000000      1.00000000      1.00000000      1.00000000      1.00000000      1.00000000      1.00000000      1.00000000      1.00000000      1.00000000      1.00000000      1.00000000      1.00000000      1.00000000      1.00000000
      1.00000000      1.00000000      1.00000000      1.00000000      1.00000000      1.00000000      1.00000000      1.00000000      1.00000000      1.00000000      1.00000000      1.00000000      1.00000000      1.00000000      1.00000000      1.00000000      1.00000000      1.00000000      1.00000000      1.00000000
      1.00000000      1.00000000      1.00000000      1.00000000      1.00000000      1.00000000      1.00000000      1.00000000      1.00000000      1.00000000      1.00000000      1.00000000      1.00000000      1.00000000      1.00000000      1.00000000      1.00000000      1.00000000      1.00000000      1.00000000
      1.00000000      1.00000000      1.00000000      1.00000000      1.00000000      1.00000000      1.00000000      1.00000000      1.00000000      1.00000000      1.00000000      1.00000000      1.00000000      1.00000000      1.00000000      1.00000000      1.00000000      1.00000000      1.00000000      1.00000000
      1.00000000      1.00000000      1.00000000      1.00000000      1.00000000      1.00000000      1.00000000      1.00000000      1.00000000      1.00000000      1.00000000      1.00000000      1.00000000      1.00000000      1.00000000      1.00000000      1.00000000      1.00000000      1.00000000      1.00000000
      1.00000000      1.00000000      1.00000000      1.00000000      1.00000000      1.00000000      1.00000000      1.00000000      1.00000000      1.00000000      1.00000000      1.00000000      1.00000000      1.00000000      1.00000000      1.00000000      1.00000000      1.00000000      1.00000000      1.00000000
      1.00000000      1.00000000      1.00000000      1.00000000      1.00000000      1.00000000      1.00000000      1.00000000      1.00000000      1.00000000      1.00000000      1.00000000      1.00000000      1.00000000      1.00000000      1.00000000      1.00000000      1.00000000      1.00000000      1.00000000
      1.00000000      1.00000000      1.00000000      1.00000000      1.00000000</v>
    <i name="NUPDOWN">     -1.00000000</i>
    <i type="logical" name="LSORBIT"> F  </i>
    <v name="SAXIS">      0.00000000      0.00000000      1.00000000</v>
    <i type="logical" name="LSPIRAL"> F  </i>
    <v name="QSPIRAL">      0.00000000      0.00000000      0.00000000</v>
    <i type="logical" name="LZEROZ"> F  </i>
   </separator>
   <separator name="electronic exchange-correlation" >
    <i type="logical" name="LASPH"> F  </i>
    <i type="logical" name="LMETAGGA"> F  </i>
   </separator>
   <separator name="electronic convergence" >
    <i type="int" name="NELM">   600</i>
    <i type="int" name="NELMDL">     0</i>
    <i type="int" name="NELMIN">     2</i>
    <i name="ENINI">    500.00000000</i>
    <separator name="electronic convergence detail" >
     <i type="logical" name="LDIAG"> T  </i>
     <i type="logical" name="LSUBROT"> F  </i>
     <i name="WEIMIN">      0.00000000</i>
     <i name="EBREAK">      0.00000003</i>
     <i name="DEPER">      0.30000000</i>
     <i type="int" name="NRMM">     4</i>
     <i name="TIME">      0.40000000</i>
    </separator>
   </separator>
   <separator name="electronic mixer" >
    <i name="AMIX">      0.40000000</i>
    <i name="BMIX">      0.01000000</i>
    <i name="AMIN">      0.01000000</i>
    <i name="AMIX_MAG">      1.60000000</i>
    <i name="BMIX_MAG">      0.01000000</i>
    <separator name="electronic mixer details" >
     <i type="int" name="IMIX">     4</i>
     <i type="logical" name="MIXFIRST"> F  </i>
     <i type="int" name="MAXMIX">   -45</i>
     <i name="WC">    100.00000000</i>
     <i type="int" name="INIMIX">     1</i>
     <i type="int" name="MIXPRE">     1</i>
     <i type="int" name="MREMOVE">     5</i>
    </separator>
   </separator>
   <separator name="electronic dipolcorrection" >
    <i type="logical" name="LDIPOL"> T  </i>
    <i type="logical" name="LMONO"> F  </i>
    <i type="int" name="IDIPOL">     3</i>
    <i name="EPSILON">      1.00000000</i>
    <v name="DIPOL">   -100.00000000   -100.00000000   -100.00000000</v>
    <i name="EFIELD">      0.00000000</i>
   </separator>
  </separator>
  <separator name="grids" >
   <i type="int" name="NGX">   100</i>
   <i type="int" name="NGY">   100</i>
   <i type="int" name="NGZ">   350</i>
   <i type="int" name="NGXF">   200</i>
   <i type="int" name="NGYF">   200</i>
   <i type="int" name="NGZF">   700</i>
   <i type="logical" name="ADDGRID"> F  </i>
  </separator>
  <separator name="ionic" >
   <i type="int" name="NSW">     0</i>
   <i type="int" name="IBRION">    -1</i>
   <i type="int" name="MDALGO">     0</i>
   <i type="int" name="ISIF">     2</i>
   <i name="PSTRESS">      0.00000000</i>
   <i name="EDIFFG">      0.00100000</i>
   <i type="int" name="NFREE">     0</i>
   <i name="POTIM">      0.50000000</i>
   <i name="SMASS">     -3.00000000</i>
   <i name="SCALEE">      1.00000000</i>
  </separator>
  <separator name="ionic md" >
   <i name="TEBEG">      0.00010000</i>
   <i name="TEEND">      0.00010000</i>
   <i type="int" name="NBLOCK">     1</i>
   <i type="int" name="KBLOCK">     1</i>
   <i type="int" name="NPACO">   256</i>
   <i name="APACO">     16.00000000</i>
  </separator>
  <separator name="symmetry" >
   <i type="int" name="ISYM">     0</i>
   <i name="SYMPREC">      0.00001000</i>
  </separator>
  <separator name="dos" >
   <i type="int" name="LORBIT">     0</i>
   <v name="RWIGS">     -1.00000000     -1.00000000     -1.00000000     -1.00000000     -1.00000000</v>
   <i type="int" name="NEDOS">   301</i>
   <i name="EMIN">     10.00000000</i>
   <i name="EMAX">    -10.00000000</i>
   <i name="EFERMI">      0.00000000</i>
  </separator>
  <separator name="writing" >
   <i type="int" name="NWRITE">     2</i>
   <i type="logical" name="LWAVE"> F  </i>
   <i type="logical" name="LDOWNSAMPLE"> F  </i>
   <i type="logical" name="LCHARG"> T  </i>
   <i type="logical" name="LPARD"> F  </i>
   <i type="logical" name="LVTOT"> T  </i>
   <i type="logical" name="LVHAR"> F  </i>
   <i type="logical" name="LELF"> F  </i>
   <i type="logical" name="LOPTICS"> F  </i>
   <v name="STM">      0.00000000      0.00000000      0.00000000      0.00000000      0.00000000      0.00000000      0.00000000</v>
  </separator>
  <separator name="performance" >
   <i type="int" name="NPAR">     4</i>
   <i type="int" name="NSIM">     4</i>
   <i type="int" name="NBLK">    -1</i>
   <i type="logical" name="LPLANE"> T  </i>
   <i type="logical" name="LSCALAPACK"> T  </i>
   <i type="logical" name="LSCAAWARE"> F  </i>
   <i type="logical" name="LSCALU"> F  </i>
   <i type="logical" name="LASYNC"> F  </i>
   <i type="logical" name="LORBITALREAL"> F  </i>
  </separator>
  <separator name="miscellaneous" >
   <i type="int" name="IDIOT">     3</i>
   <i type="int" name="PHON_NSTRUCT">    -1</i>
   <i type="logical" name="LMUSIC"> F  </i>
   <v name="POMASS">      1.00000000     12.01100000     14.00100000    126.90400000    207.20000000</v>
   <v name="DARWINR">      0.00000000      0.00000000      0.00000000      0.00000000      0.00000000</v>
   <v name="DARWINV">      1.00000000      1.00000000      1.00000000      1.00000000      1.00000000</v>
   <i type="logical" name="LCORR"> T  </i>
  </separator>
  <i type="logical" name="GGA_COMPAT"> F  </i>
  <i type="logical" name="LBERRY"> F  </i>
  <i type="int" name="ICORELEVEL">     0</i>
  <i type="logical" name="LDAU"> F  </i>
  <i type="int" name="I_CONSTRAINED_M">     0</i>
  <separator name="electronic exchange-correlation" >
   <i type="string" name="GGA">--</i>
   <i type="int" name="VOSKOWN">     0</i>
   <i type="logical" name="LHFCALC"> F  </i>
   <i type="string" name="PRECFOCK"></i>
   <i type="logical" name="LSYMGRAD"> F  </i>
   <i type="logical" name="LHFONE"> F  </i>
   <i type="logical" name="LRHFCALC"> F  </i>
   <i type="logical" name="LTHOMAS"> F  </i>
   <i type="logical" name="LMODELHF"> F  </i>
   <i type="logical" name="LFOCKACE"> F  </i>
   <i name="ENCUT4O">     -1.00000000</i>
   <i type="int" name="EXXOEP">     0</i>
   <i type="int" name="FOURORBIT">     0</i>
   <i name="AEXX">      0.00000000</i>
   <i name="HFALPHA">      0.00000000</i>
   <i name="MCALPHA">      0.00000000</i>
   <i name="ALDAX">      1.00000000</i>
   <i name="AGGAX">      1.00000000</i>
   <i name="ALDAC">      1.00000000</i>
   <i name="AGGAC">      1.00000000</i>
   <i type="int" name="NKREDX">     1</i>
   <i type="int" name="NKREDY">     1</i>
   <i type="int" name="NKREDZ">     1</i>
   <i type="logical" name="SHIFTRED"> F  </i>
   <i type="logical" name="ODDONLY"> F  </i>
   <i type="logical" name="EVENONLY"> F  </i>
   <i type="int" name="LMAXFOCK">     0</i>
   <i type="int" name="NMAXFOCKAE">     0</i>
   <i type="logical" name="LFOCKAEDFT"> F  </i>
   <i name="HFSCREEN">      0.00000000</i>
   <i name="HFSCREENC">      0.00000000</i>
   <i type="int" name="NBANDSGWLOW">     0</i>
  </separator>
  <separator name="vdW DFT" >
   <i type="logical" name="LUSE_VDW"> F  </i>
   <i name="Zab_VDW">     -0.84910000</i>
   <i name="PARAM1">      0.12340000</i>
   <i name="PARAM2">      1.00000000</i>
   <i name="PARAM3">      0.00000000</i>
  </separator>
  <separator name="model GW" >
   <i type="int" name="MODEL_GW">     0</i>
   <i name="MODEL_EPS0">     37.63423484</i>
   <i name="MODEL_ALPHA">      1.00000000</i>
  </separator>
  <separator name="linear response parameters" >
   <i type="logical" name="LEPSILON"> F  </i>
   <i type="logical" name="LRPA"> F  </i>
   <i type="logical" name="LNABLA"> F  </i>
   <i type="logical" name="LVEL"> F  </i>
   <i type="int" name="KINTER">     0</i>
   <i name="CSHIFT">      0.10000000</i>
   <i name="OMEGAMAX">     -1.00000000</i>
   <i name="DEG_THRESHOLD">      0.00200000</i>
   <i name="RTIME">     -0.10000000</i>
   <i name="WPLASMAI">      0.00000000</i>
   <v name="DFIELD">      0.00000000      0.00000000      0.00000000</v>
   <v name="WPLASMA">      0.00000000      0.00000000      0.00000000      0.00000000      0.00000000      0.00000000      0.00000000      0.00000000      0.00000000</v>
  </separator>
  <separator name="orbital magnetization" >
   <i type="logical" name="NUCIND"> F  </i>
   <v name="MAGPOS">      0.00000000      0.00000000      0.00000000</v>
   <i type="logical" name="LNICSALL"> T  </i>
   <i type="logical" name="ORBITALMAG"> F  </i>
   <i type="logical" name="LMAGBLOCH"> F  </i>
   <i type="logical" name="LCHIMAG"> F  </i>
   <i type="logical" name="LGAUGE"> T  </i>
   <i type="int" name="MAGATOM">     0</i>
   <v name="MAGDIPOL">      0.00000000      0.00000000      0.00000000</v>
   <v name="AVECCONST">      0.00000000      0.00000000      0.00000000</v>
  </separator>
  <separator name="response functions" >
   <i type="logical" name="LFINITE_TEMPERATURE"> F  </i>
   <i type="logical" name="LADDER"> F  </i>
   <i type="logical" name="LRPAFORCE"> F  </i>
   <i type="logical" name="LFXC"> F  </i>
   <i type="logical" name="LHARTREE"> T  </i>
   <i type="int" name="IBSE">     0</i>
   <v type="int" name="KPOINT">    -1     0     0     0</v>
   <i type="logical" name="LTCTC"> F  </i>
   <i type="logical" name="LTCTE"> F  </i>
   <i type="logical" name="LTETE"> F  </i>
   <i type="logical" name="LTRIPLET"> F  </i>
   <i type="logical" name="LFXCEPS"> F  </i>
   <i type="logical" name="LFXHEG"> F  </i>
   <i type="int" name="NATURALO">     2</i>
   <i type="logical" name="LHOLEGF"> F  </i>
   <i type="logical" name="L2ORDER"> F  </i>
   <i type="logical" name="LDMP1"> F  </i>
   <i type="logical" name="LMP2LT"> F  </i>
   <i type="logical" name="LSMP2LT"> F  </i>
   <i type="logical" name="LGWLF"> F  </i>
   <i name="ENCUTGW">     -2.00000000</i>
   <i name="ENCUTGWSOFT">     -2.00000000</i>
   <i name="ENCUTLF">     -1.00000000</i>
   <i type="logical" name="LESF_SPLINES"> F  </i>
   <i type="int" name="LMAXMP2">    -1</i>
   <i name="SCISSOR">      0.00000000</i>
   <i type="int" name="NOMEGA">     0</i>
   <i type="int" name="NOMEGAR">     0</i>
   <i type="int" name="NBANDSGW">    -1</i>
   <i type="int" name="NBANDSO">    -1</i>
   <i type="int" name="NBANDSV">    -1</i>
   <i type="int" name="NELM">   600</i>
   <i type="int" name="NELMHF">     1</i>
   <i type="int" name="DIM">     3</i>
   <i type="int" name="IESPILON">     4</i>
   <i type="int" name="ANTIRES">     0</i>
   <i name="OMEGAMAX">    -30.00000000</i>
   <i name="OMEGAMIN">    -30.00000000</i>
   <i name="OMEGATL">   -200.00000000</i>
   <i type="int" name="OMEGAGRID">     0</i>
   <i name="CSHIFT">     -0.10000000</i>
   <i type="logical" name="LSELFENERGY"> F  </i>
   <i type="logical" name="LSPECTRAL"> F  </i>
   <i type="logical" name="LSPECTRALGW"> F  </i>
   <i type="logical" name="LSINGLES"> F  </i>
   <i type="logical" name="LFERMIGW"> F  </i>
   <i type="logical" name="ODDONLYGW"> F  </i>
   <i type="logical" name="EVENONLYGW"> F  </i>
   <i type="int" name="NKREDLFX">     1</i>
   <i type="int" name="NKREDLFY">     1</i>
   <i type="int" name="NKREDLFZ">     1</i>
   <i type="int" name="MAXMEM">  2800</i>
   <i type="int" name="TELESCOPE">     0</i>
   <i type="int" name="NTAUPAR">    -1</i>
   <i type="int" name="NOMEGAPAR">    -1</i>
   <i name="DAMP_NEWTON">      0.80000001</i>
   <i name="LAMBDA">      1.00000000</i>
  </separator>
  <separator name="External order field" >
   <i name="OFIELD_KAPPA">      0.00000000</i>
   <v name="OFIELD_K">      0.00000000      0.00000000      0.00000000</v>
   <i name="OFIELD_Q6_NEAR">      0.00000000</i>
   <i name="OFIELD_Q6_FAR">      0.00000000</i>
   <i name="OFIELD_A">      0.00000000</i>
  </separator>
 </parameters>
 <atominfo>
  <atoms>     325 </atoms>
  <types>       5 </types>
  <array name="atoms" >
   <dimension dim="1">ion</dimension>
   <field type="string">element</field>
   <field type="int">atomtype</field>
   <set>
    <rc><c>H </c><c>   1</c></rc>
    <rc><c>H </c><c>   1</c></rc>
    <rc><c>H </c><c>   1</c></rc>
    <rc><c>H </c><c>   1</c></rc>
    <rc><c>H </c><c>   1</c></rc>
    <rc><c>H </c><c>   1</c></rc>
    <rc><c>H </c><c>   1</c></rc>
    <rc><c>H </c><c>   1</c></rc>
    <rc><c>H </c><c>   1</c></rc>
    <rc><c>H </c><c>   1</c></rc>
    <rc><c>H </c><c>   1</c></rc>
    <rc><c>H </c><c>   1</c></rc>
    <rc><c>H </c><c>   1</c></rc>
    <rc><c>H </c><c>   1</c></rc>
    <rc><c>H </c><c>   1</c></rc>
    <rc><c>H </c><c>   1</c></rc>
    <rc><c>H </c><c>   1</c></rc>
    <rc><c>H </c><c>   1</c></rc>
    <rc><c>H </c><c>   1</c></rc>
    <rc><c>H </c><c>   1</c></rc>
    <rc><c>H </c><c>   1</c></rc>
    <rc><c>H </c><c>   1</c></rc>
    <rc><c>H </c><c>   1</c></rc>
    <rc><c>H </c><c>   1</c></rc>
    <rc><c>H </c><c>   1</c></rc>
    <rc><c>H </c><c>   1</c></rc>
    <rc><c>H </c><c>   1</c></rc>
    <rc><c>H </c><c>   1</c></rc>
    <rc><c>H </c><c>   1</c></rc>
    <rc><c>H </c><c>   1</c></rc>
    <rc><c>H </c><c>   1</c></rc>
    <rc><c>H </c><c>   1</c></rc>
    <rc><c>H </c><c>   1</c></rc>
    <rc><c>H </c><c>   1</c></rc>
    <rc><c>H </c><c>   1</c></rc>
    <rc><c>H </c><c>   1</c></rc>
    <rc><c>H </c><c>   1</c></rc>
    <rc><c>H </c><c>   1</c></rc>
    <rc><c>H </c><c>   1</c></rc>
    <rc><c>H </c><c>   1</c></rc>
    <rc><c>H </c><c>   1</c></rc>
    <rc><c>H </c><c>   1</c></rc>
    <rc><c>H </c><c>   1</c></rc>
    <rc><c>H </c><c>   1</c></rc>
    <rc><c>H </c><c>   1</c></rc>
    <rc><c>H </c><c>   1</c></rc>
    <rc><c>H </c><c>   1</c></rc>
    <rc><c>H </c><c>   1</c></rc>
    <rc><c>H </c><c>   1</c></rc>
    <rc><c>H </c><c>   1</c></rc>
    <rc><c>H </c><c>   1</c></rc>
    <rc><c>H </c><c>   1</c></rc>
    <rc><c>H </c><c>   1</c></rc>
    <rc><c>H </c><c>   1</c></rc>
    <rc><c>H </c><c>   1</c></rc>
    <rc><c>H </c><c>   1</c></rc>
    <rc><c>H </c><c>   1</c></rc>
    <rc><c>H </c><c>   1</c></rc>
    <rc><c>H </c><c>   1</c></rc>
    <rc><c>H </c><c>   1</c></rc>
    <rc><c>H </c><c>   1</c></rc>
    <rc><c>H </c><c>   1</c></rc>
    <rc><c>H </c><c>   1</c></rc>
    <rc><c>H </c><c>   1</c></rc>
    <rc><c>H </c><c>   1</c></rc>
    <rc><c>H </c><c>   1</c></rc>
    <rc><c>H </c><c>   1</c></rc>
    <rc><c>H </c><c>   1</c></rc>
    <rc><c>H </c><c>   1</c></rc>
    <rc><c>H </c><c>   1</c></rc>
    <rc><c>H </c><c>   1</c></rc>
    <rc><c>H </c><c>   1</c></rc>
    <rc><c>H </c><c>   1</c></rc>
    <rc><c>H </c><c>   1</c></rc>
    <rc><c>H </c><c>   1</c></rc>
    <rc><c>H </c><c>   1</c></rc>
    <rc><c>H </c><c>   1</c></rc>
    <rc><c>H </c><c>   1</c></rc>
    <rc><c>H </c><c>   1</c></rc>
    <rc><c>H </c><c>   1</c></rc>
    <rc><c>H </c><c>   1</c></rc>
    <rc><c>H </c><c>   1</c></rc>
    <rc><c>H </c><c>   1</c></rc>
    <rc><c>H </c><c>   1</c></rc>
    <rc><c>H </c><c>   1</c></rc>
    <rc><c>H </c><c>   1</c></rc>
    <rc><c>H </c><c>   1</c></rc>
    <rc><c>H </c><c>   1</c></rc>
    <rc><c>H </c><c>   1</c></rc>
    <rc><c>H </c><c>   1</c></rc>
    <rc><c>H </c><c>   1</c></rc>
    <rc><c>H </c><c>   1</c></rc>
    <rc><c>H </c><c>   1</c></rc>
    <rc><c>H </c><c>   1</c></rc>
    <rc><c>H </c><c>   1</c></rc>
    <rc><c>H </c><c>   1</c></rc>
    <rc><c>H </c><c>   1</c></rc>
    <rc><c>H </c><c>   1</c></rc>
    <rc><c>H </c><c>   1</c></rc>
    <rc><c>H </c><c>   1</c></rc>
    <rc><c>H </c><c>   1</c></rc>
    <rc><c>H </c><c>   1</c></rc>
    <rc><c>H </c><c>   1</c></rc>
    <rc><c>H </c><c>   1</c></rc>
    <rc><c>H </c><c>   1</c></rc>
    <rc><c>H </c><c>   1</c></rc>
    <rc><c>H </c><c>   1</c></rc>
    <rc><c>H </c><c>   1</c></rc>
    <rc><c>H </c><c>   1</c></rc>
    <rc><c>H </c><c>   1</c></rc>
    <rc><c>H </c><c>   1</c></rc>
    <rc><c>H </c><c>   1</c></rc>
    <rc><c>H </c><c>   1</c></rc>
    <rc><c>H </c><c>   1</c></rc>
    <rc><c>H </c><c>   1</c></rc>
    <rc><c>H </c><c>   1</c></rc>
    <rc><c>H </c><c>   1</c></rc>
    <rc><c>H </c><c>   1</c></rc>
    <rc><c>H </c><c>   1</c></rc>
    <rc><c>H </c><c>   1</c></rc>
    <rc><c>H </c><c>   1</c></rc>
    <rc><c>H </c><c>   1</c></rc>
    <rc><c>H </c><c>   1</c></rc>
    <rc><c>H </c><c>   1</c></rc>
    <rc><c>H </c><c>   1</c></rc>
    <rc><c>H </c><c>   1</c></rc>
    <rc><c>H </c><c>   1</c></rc>
    <rc><c>H </c><c>   1</c></rc>
    <rc><c>H </c><c>   1</c></rc>
    <rc><c>H </c><c>   1</c></rc>
    <rc><c>H </c><c>   1</c></rc>
    <rc><c>H </c><c>   1</c></rc>
    <rc><c>H </c><c>   1</c></rc>
    <rc><c>H </c><c>   1</c></rc>
    <rc><c>H </c><c>   1</c></rc>
    <rc><c>H </c><c>   1</c></rc>
    <rc><c>H </c><c>   1</c></rc>
    <rc><c>H </c><c>   1</c></rc>
    <rc><c>H </c><c>   1</c></rc>
    <rc><c>H </c><c>   1</c></rc>
    <rc><c>H </c><c>   1</c></rc>
    <rc><c>H </c><c>   1</c></rc>
    <rc><c>H </c><c>   1</c></rc>
    <rc><c>C </c><c>   2</c></rc>
    <rc><c>C </c><c>   2</c></rc>
    <rc><c>C </c><c>   2</c></rc>
    <rc><c>C </c><c>   2</c></rc>
    <rc><c>C </c><c>   2</c></rc>
    <rc><c>C </c><c>   2</c></rc>
    <rc><c>C </c><c>   2</c></rc>
    <rc><c>C </c><c>   2</c></rc>
    <rc><c>C </c><c>   2</c></rc>
    <rc><c>C </c><c>   2</c></rc>
    <rc><c>C </c><c>   2</c></rc>
    <rc><c>C </c><c>   2</c></rc>
    <rc><c>C </c><c>   2</c></rc>
    <rc><c>C </c><c>   2</c></rc>
    <rc><c>C </c><c>   2</c></rc>
    <rc><c>C </c><c>   2</c></rc>
    <rc><c>C </c><c>   2</c></rc>
    <rc><c>C </c><c>   2</c></rc>
    <rc><c>C </c><c>   2</c></rc>
    <rc><c>C </c><c>   2</c></rc>
    <rc><c>C </c><c>   2</c></rc>
    <rc><c>C </c><c>   2</c></rc>
    <rc><c>C </c><c>   2</c></rc>
    <rc><c>C </c><c>   2</c></rc>
    <rc><c>C </c><c>   2</c></rc>
    <rc><c>C </c><c>   2</c></rc>
    <rc><c>C </c><c>   2</c></rc>
    <rc><c>C </c><c>   2</c></rc>
    <rc><c>C </c><c>   2</c></rc>
    <rc><c>C </c><c>   2</c></rc>
    <rc><c>C </c><c>   2</c></rc>
    <rc><c>C </c><c>   2</c></rc>
    <rc><c>C </c><c>   2</c></rc>
    <rc><c>C </c><c>   2</c></rc>
    <rc><c>C </c><c>   2</c></rc>
    <rc><c>C </c><c>   2</c></rc>
    <rc><c>C </c><c>   2</c></rc>
    <rc><c>C </c><c>   2</c></rc>
    <rc><c>C </c><c>   2</c></rc>
    <rc><c>N </c><c>   3</c></rc>
    <rc><c>N </c><c>   3</c></rc>
    <rc><c>N </c><c>   3</c></rc>
    <rc><c>N </c><c>   3</c></rc>
    <rc><c>N </c><c>   3</c></rc>
    <rc><c>N </c><c>   3</c></rc>
    <rc><c>N </c><c>   3</c></rc>
    <rc><c>N </c><c>   3</c></rc>
    <rc><c>N </c><c>   3</c></rc>
    <rc><c>N </c><c>   3</c></rc>
    <rc><c>N </c><c>   3</c></rc>
    <rc><c>N </c><c>   3</c></rc>
    <rc><c>N </c><c>   3</c></rc>
    <rc><c>N </c><c>   3</c></rc>
    <rc><c>N </c><c>   3</c></rc>
    <rc><c>N </c><c>   3</c></rc>
    <rc><c>N </c><c>   3</c></rc>
    <rc><c>N </c><c>   3</c></rc>
    <rc><c>N </c><c>   3</c></rc>
    <rc><c>N </c><c>   3</c></rc>
    <rc><c>N </c><c>   3</c></rc>
    <rc><c>N </c><c>   3</c></rc>
    <rc><c>N </c><c>   3</c></rc>
    <rc><c>N </c><c>   3</c></rc>
    <rc><c>N </c><c>   3</c></rc>
    <rc><c>N </c><c>   3</c></rc>
    <rc><c>N </c><c>   3</c></rc>
    <rc><c>N </c><c>   3</c></rc>
    <rc><c>N </c><c>   3</c></rc>
    <rc><c>N </c><c>   3</c></rc>
    <rc><c>N </c><c>   3</c></rc>
    <rc><c>N </c><c>   3</c></rc>
    <rc><c>N </c><c>   3</c></rc>
    <rc><c>N </c><c>   3</c></rc>
    <rc><c>N </c><c>   3</c></rc>
    <rc><c>N </c><c>   3</c></rc>
    <rc><c>N </c><c>   3</c></rc>
    <rc><c>N </c><c>   3</c></rc>
    <rc><c>N </c><c>   3</c></rc>
    <rc><c>N </c><c>   3</c></rc>
    <rc><c>N </c><c>   3</c></rc>
    <rc><c>N </c><c>   3</c></rc>
    <rc><c>N </c><c>   3</c></rc>
    <rc><c>N </c><c>   3</c></rc>
    <rc><c>N </c><c>   3</c></rc>
    <rc><c>N </c><c>   3</c></rc>
    <rc><c>N </c><c>   3</c></rc>
    <rc><c>I </c><c>   4</c></rc>
    <rc><c>I </c><c>   4</c></rc>
    <rc><c>I </c><c>   4</c></rc>
    <rc><c>I </c><c>   4</c></rc>
    <rc><c>I </c><c>   4</c></rc>
    <rc><c>I </c><c>   4</c></rc>
    <rc><c>I </c><c>   4</c></rc>
    <rc><c>I </c><c>   4</c></rc>
    <rc><c>I </c><c>   4</c></rc>
    <rc><c>I </c><c>   4</c></rc>
    <rc><c>I </c><c>   4</c></rc>
    <rc><c>I </c><c>   4</c></rc>
    <rc><c>I </c><c>   4</c></rc>
    <rc><c>I </c><c>   4</c></rc>
    <rc><c>I </c><c>   4</c></rc>
    <rc><c>I </c><c>   4</c></rc>
    <rc><c>I </c><c>   4</c></rc>
    <rc><c>I </c><c>   4</c></rc>
    <rc><c>I </c><c>   4</c></rc>
    <rc><c>I </c><c>   4</c></rc>
    <rc><c>I </c><c>   4</c></rc>
    <rc><c>I </c><c>   4</c></rc>
    <rc><c>I </c><c>   4</c></rc>
    <rc><c>I </c><c>   4</c></rc>
    <rc><c>I </c><c>   4</c></rc>
    <rc><c>I </c><c>   4</c></rc>
    <rc><c>I </c><c>   4</c></rc>
    <rc><c>I </c><c>   4</c></rc>
    <rc><c>I </c><c>   4</c></rc>
    <rc><c>I </c><c>   4</c></rc>
    <rc><c>I </c><c>   4</c></rc>
    <rc><c>I </c><c>   4</c></rc>
    <rc><c>I </c><c>   4</c></rc>
    <rc><c>I </c><c>   4</c></rc>
    <rc><c>I </c><c>   4</c></rc>
    <rc><c>I </c><c>   4</c></rc>
    <rc><c>I </c><c>   4</c></rc>
    <rc><c>I </c><c>   4</c></rc>
    <rc><c>I </c><c>   4</c></rc>
    <rc><c>I </c><c>   4</c></rc>
    <rc><c>I </c><c>   4</c></rc>
    <rc><c>I </c><c>   4</c></rc>
    <rc><c>I </c><c>   4</c></rc>
    <rc><c>I </c><c>   4</c></rc>
    <rc><c>I </c><c>   4</c></rc>
    <rc><c>I </c><c>   4</c></rc>
    <rc><c>I </c><c>   4</c></rc>
    <rc><c>I </c><c>   4</c></rc>
    <rc><c>I </c><c>   4</c></rc>
    <rc><c>I </c><c>   4</c></rc>
    <rc><c>I </c><c>   4</c></rc>
    <rc><c>I </c><c>   4</c></rc>
    <rc><c>I </c><c>   4</c></rc>
    <rc><c>I </c><c>   4</c></rc>
    <rc><c>I </c><c>   4</c></rc>
    <rc><c>I </c><c>   4</c></rc>
    <rc><c>I </c><c>   4</c></rc>
    <rc><c>I </c><c>   4</c></rc>
    <rc><c>I </c><c>   4</c></rc>
    <rc><c>I </c><c>   4</c></rc>
    <rc><c>I </c><c>   4</c></rc>
    <rc><c>I </c><c>   4</c></rc>
    <rc><c>I </c><c>   4</c></rc>
    <rc><c>I </c><c>   4</c></rc>
    <rc><c>I </c><c>   4</c></rc>
    <rc><c>I </c><c>   4</c></rc>
    <rc><c>I </c><c>   4</c></rc>
    <rc><c>I </c><c>   4</c></rc>
    <rc><c>I </c><c>   4</c></rc>
    <rc><c>I </c><c>   4</c></rc>
    <rc><c>I </c><c>   4</c></rc>
    <rc><c>I </c><c>   4</c></rc>
    <rc><c>Pb</c><c>   5</c></rc>
    <rc><c>Pb</c><c>   5</c></rc>
    <rc><c>Pb</c><c>   5</c></rc>
    <rc><c>Pb</c><c>   5</c></rc>
    <rc><c>Pb</c><c>   5</c></rc>
    <rc><c>Pb</c><c>   5</c></rc>
    <rc><c>Pb</c><c>   5</c></rc>
    <rc><c>Pb</c><c>   5</c></rc>
    <rc><c>Pb</c><c>   5</c></rc>
    <rc><c>Pb</c><c>   5</c></rc>
    <rc><c>Pb</c><c>   5</c></rc>
    <rc><c>Pb</c><c>   5</c></rc>
    <rc><c>Pb</c><c>   5</c></rc>
    <rc><c>Pb</c><c>   5</c></rc>
    <rc><c>Pb</c><c>   5</c></rc>
    <rc><c>Pb</c><c>   5</c></rc>
    <rc><c>Pb</c><c>   5</c></rc>
    <rc><c>Pb</c><c>   5</c></rc>
    <rc><c>Pb</c><c>   5</c></rc>
    <rc><c>Pb</c><c>   5</c></rc>
    <rc><c>Pb</c><c>   5</c></rc>
    <rc><c>Pb</c><c>   5</c></rc>
    <rc><c>Pb</c><c>   5</c></rc>
    <rc><c>Pb</c><c>   5</c></rc>
   </set>
  </array>
  <array name="atomtypes" >
   <dimension dim="1">type</dimension>
   <field type="int">atomspertype</field>
   <field type="string">element</field>
   <field>mass</field>
   <field>valence</field>
   <field type="string">pseudopotential</field>
   <set>
    <rc><c> 143</c><c>H </c><c>      1.00000000</c><c>      1.00000000</c><c>  PAW_PBE H 15Jun2001                   </c></rc>
    <rc><c>  39</c><c>C </c><c>     12.01100000</c><c>      4.00000000</c><c>  PAW_PBE C 08Apr2002                   </c></rc>
    <rc><c>  47</c><c>N </c><c>     14.00100000</c><c>      5.00000000</c><c>  PAW_PBE N 08Apr2002                   </c></rc>
    <rc><c>  72</c><c>I </c><c>    126.90400000</c><c>      7.00000000</c><c>  PAW_PBE I 08Apr2002                   </c></rc>
    <rc><c>  24</c><c>Pb</c><c>    207.20000000</c><c>      4.00000000</c><c>  PAW_PBE Pb 08Apr2002                  </c></rc>
   </set>
  </array>
 </atominfo>
 <structure name="initialpos" >
  <crystal>
   <varray name="basis" >
    <v>      18.06080055       0.00000000       0.00000000 </v>
    <v>      -0.00491865      18.06279945       0.00000000 </v>
    <v>       0.00000000       0.00000000      62.48749924 </v>
   </varray>
   <i name="volume">  20385.21054034 </i>
   <varray name="rec_basis" >
    <v>       0.05536853       0.00001508      -0.00000000 </v>
    <v>       0.00000000       0.05536240       0.00000000 </v>
    <v>       0.00000000      -0.00000000       0.01600320 </v>
   </varray>
  </crystal>
  <varray name="positions" >
   <v>       0.46031147       0.32587685       0.57528065 </v>
   <v>       0.45026790       0.84312224       0.57453691 </v>
   <v>       0.92129640       0.24383695       0.58098193 </v>
   <v>       0.94454383       0.80700740       0.58001060 </v>
   <v>       0.30318995       0.06354522       0.57534402 </v>
   <v>       0.32037571       0.56990902       0.57681129 </v>
   <v>       0.79525045       0.07795920       0.57859192 </v>
   <v>       0.10690507       0.24065834       0.55870299 </v>
   <v>       0.09528374       0.67882930       0.56689744 </v>
   <v>       0.56656932       0.16943287       0.55635890 </v>
   <v>       0.49523471       0.65037694       0.56547675 </v>
   <v>       0.36215355       0.00855252       0.55976907 </v>
   <v>       0.27439813       0.62494571       0.55803404 </v>
   <v>       0.86910197       0.02814227       0.56685746 </v>
   <v>       0.05950571       0.23198310       0.58288282 </v>
   <v>       0.02359256       0.69273786       0.58544614 </v>
   <v>       0.57249193       0.24877578       0.57239165 </v>
   <v>       0.46610520       0.70926623       0.58565284 </v>
   <v>       0.27971057       0.43817151       0.57899276 </v>
   <v>       0.16827732       0.03874953       0.57203855 </v>
   <v>       0.67264295       0.02097041       0.57626284 </v>
   <v>       0.38051431       0.29256804       0.56163742 </v>
   <v>       0.48821379       0.86847802       0.54987365 </v>
   <v>       0.87937313       0.24327576       0.55588883 </v>
   <v>       0.97721433       0.86749899       0.56060041 </v>
   <v>       0.20396824       0.41253443       0.56280935 </v>
   <v>       0.14120167       0.97078002       0.55376231 </v>
   <v>       0.66838849       0.93327007       0.56304999 </v>
   <v>       0.44223065       0.19002881       0.54758920 </v>
   <v>       0.51949014       0.74426994       0.54123270 </v>
   <v>       0.99606268       0.24789020       0.53884117 </v>
   <v>       0.06892948       0.78967750       0.54894097 </v>
   <v>       0.19430579       0.52979026       0.54719795 </v>
   <v>       0.26438189       0.94288609       0.54404149 </v>
   <v>       0.78945808       0.93146427       0.55497007 </v>
   <v>       0.46350113       0.31099880       0.67460240 </v>
   <v>       0.43385190       0.80971301       0.67343700 </v>
   <v>       0.95648063       0.27881527       0.67842701 </v>
   <v>       0.92522154       0.77527888       0.67423062 </v>
   <v>       0.30536970       0.05548321       0.67370695 </v>
   <v>       0.29435869       0.53995376       0.67782576 </v>
   <v>       0.79029562       0.05346979       0.67536463 </v>
   <v>       0.84860364       0.49622581       0.66720083 </v>
   <v>       0.08869302       0.17479878       0.64544514 </v>
   <v>       0.09613099       0.69151638       0.65310475 </v>
   <v>       0.57682869       0.16754090       0.64918240 </v>
   <v>       0.57368773       0.67710662       0.65473618 </v>
   <v>       0.17591125       0.41384809       0.64649381 </v>
   <v>       0.17529822       0.92351178       0.64956504 </v>
   <v>       0.64882447       0.47930599       0.65885810 </v>
   <v>       0.67271415       0.91482729       0.64908863 </v>
   <v>       0.06325129       0.18348284       0.67233223 </v>
   <v>       0.03614738       0.68402872       0.67495244 </v>
   <v>       0.56915310       0.21285715       0.67347674 </v>
   <v>       0.53450448       0.70711150       0.67845314 </v>
   <v>       0.19840032       0.43299235       0.67320551 </v>
   <v>       0.20194927       0.95618009       0.67464122 </v>
   <v>       0.72184188       0.43869609       0.67356508 </v>
   <v>       0.69462660       0.94692436       0.67461919 </v>
   <v>       0.41373324       0.31945160       0.65079795 </v>
   <v>       0.41916133       0.83419943       0.64658697 </v>
   <v>       0.92501001       0.32027612       0.65546118 </v>
   <v>       0.92481860       0.83346279       0.65186689 </v>
   <v>       0.33494681       0.07787384       0.64781145 </v>
   <v>       0.32252659       0.58089099       0.65368030 </v>
   <v>       0.82444077       0.07773688       0.65007265 </v>
   <v>       0.85400996       0.55992259       0.64637440 </v>
   <v>       0.00308469       0.26162751       0.63314336 </v>
   <v>       0.03083433       0.78548235       0.63710533 </v>
   <v>       0.48010188       0.23013753       0.63291883 </v>
   <v>       0.50636464       0.75311245       0.63313249 </v>
   <v>       0.25451897       0.99638915       0.63096195 </v>
   <v>       0.25082790       0.50545004       0.63261695 </v>
   <v>       0.75202309       0.99282097       0.63181589 </v>
   <v>       0.72542072       0.55549841       0.63948472 </v>
   <v>       0.44874502       0.30128397       0.76888902 </v>
   <v>       0.44874501       0.80128391       0.76888902 </v>
   <v>       0.94874497       0.30128397       0.76888902 </v>
   <v>       0.94874501       0.80128391       0.76888902 </v>
   <v>       0.30127600       0.05129450       0.76887296 </v>
   <v>       0.30127601       0.55129450       0.76887296 </v>
   <v>       0.80127594       0.05129450       0.76887296 </v>
   <v>       0.80127598       0.55129450       0.76887296 </v>
   <v>       0.07877100       0.17118050       0.74344197 </v>
   <v>       0.07877101       0.67118045       0.74344197 </v>
   <v>       0.57877100       0.17118050       0.74344197 </v>
   <v>       0.57877099       0.67118045       0.74344197 </v>
   <v>       0.17119950       0.42117448       0.74342103 </v>
   <v>       0.17119950       0.92117451       0.74342103 </v>
   <v>       0.67119951       0.42117448       0.74342103 </v>
   <v>       0.67119950       0.92117451       0.74342103 </v>
   <v>       0.05125600       0.19871499       0.76888902 </v>
   <v>       0.05125600       0.69871493       0.76888902 </v>
   <v>       0.55125603       0.19871499       0.76888902 </v>
   <v>       0.55125602       0.69871493       0.76888902 </v>
   <v>       0.19872349       0.44870397       0.76887205 </v>
   <v>       0.19872349       0.94870397       0.76887205 </v>
   <v>       0.69872352       0.44870397       0.76887205 </v>
   <v>       0.69872351       0.94870397       0.76887205 </v>
   <v>       0.42123152       0.32881747       0.74344197 </v>
   <v>       0.42123151       0.82881744       0.74344197 </v>
   <v>       0.92123147       0.32881747       0.74344197 </v>
   <v>       0.92123151       0.82881744       0.74344197 </v>
   <v>       0.32880050       0.07882500       0.74342103 </v>
   <v>       0.32880049       0.57882496       0.74342103 </v>
   <v>       0.82880048       0.07882500       0.74342103 </v>
   <v>       0.82880052       0.57882496       0.74342103 </v>
   <v>       0.00000350       0.25000148       0.72582199 </v>
   <v>       0.00000350       0.75000145       0.72582199 </v>
   <v>       0.50000351       0.25000148       0.72582199 </v>
   <v>       0.50000350       0.75000145       0.72582199 </v>
   <v>       0.25000050       0.00000000       0.72580398 </v>
   <v>       0.25000052       0.50000000       0.72580398 </v>
   <v>       0.75000050       0.00000000       0.72580398 </v>
   <v>       0.75000049       0.50000000       0.72580398 </v>
   <v>       0.71763126       0.43827619       0.54206026 </v>
   <v>       0.73597254       0.49649529       0.52002222 </v>
   <v>       0.65385586       0.55200341       0.56113647 </v>
   <v>       0.70421061       0.63602679       0.55899474 </v>
   <v>       0.84436583       0.50375302       0.57221259 </v>
   <v>       0.78120642       0.57070616       0.58202523 </v>
   <v>       0.86538321       0.55855418       0.53271220 </v>
   <v>       0.79291094       0.62493742       0.52738301 </v>
   <v>       0.86771343       0.46568614       0.51898356 </v>
   <v>       0.86363967       0.42701333       0.54468029 </v>
   <v>       0.87307498       0.33010771       0.51951193 </v>
   <v>       0.78460482       0.32296690       0.53085563 </v>
   <v>       0.63808348       0.54905192       0.52102126 </v>
   <v>       0.69015694       0.63329123       0.51896849 </v>
   <v>       0.60510933       0.63252899       0.53253052 </v>
   <v>       0.75307043       0.45053156       0.59868224 </v>
   <v>       0.74522558       0.40462887       0.57364116 </v>
   <v>       0.67916888       0.47213865       0.58165546 </v>
   <v>       0.82467463       0.68669532       0.56270782 </v>
   <v>       0.89520069       0.68480009       0.54346484 </v>
   <v>       0.90147591       0.62177510       0.56554976 </v>
   <v>       0.81798033       0.38822658       0.48668441 </v>
   <v>       0.78502985       0.29860913       0.49212095 </v>
   <v>       0.66316703       0.31995925       0.52273834 </v>
   <v>       0.73135781       0.46134976       0.47066268 </v>
   <v>       0.53761134       0.37676520       0.52164022 </v>
   <v>       0.60615887       0.51779652       0.46947955 </v>
   <v>       0.50846359       0.47491491       0.49491225 </v>
   <v>       0.99365570       0.24406754       0.55600739 </v>
   <v>       0.03427183       0.77246767       0.56228263 </v>
   <v>       0.47246455       0.22943685       0.55756556 </v>
   <v>       0.49591395       0.75810400       0.55703414 </v>
   <v>       0.23730041       0.51896826       0.55922898 </v>
   <v>       0.25291749       0.98676180       0.55567273 </v>
   <v>       0.76877787       0.97947092       0.56381223 </v>
   <v>       0.00684476       0.24759150       0.65007473 </v>
   <v>       0.01101293       0.76275996       0.65212183 </v>
   <v>       0.49562764       0.24346465       0.64943757 </v>
   <v>       0.49661741       0.75581717       0.65024273 </v>
   <v>       0.24948129       0.49772706       0.64978463 </v>
   <v>       0.25525936       0.00073835       0.64831094 </v>
   <v>       0.75060129       0.52016793       0.65144957 </v>
   <v>       0.74863558       0.99612498       0.64916542 </v>
   <v>       0.49998898       0.24999498       0.74327702 </v>
   <v>       0.49998903       0.74999496       0.74327702 </v>
   <v>       0.99998898       0.24999498       0.74327702 </v>
   <v>       0.99998903       0.74999496       0.74327702 </v>
   <v>       0.25000050       0.00000100       0.74325596 </v>
   <v>       0.25000052       0.50000100       0.74325596 </v>
   <v>       0.75000050       0.00000100       0.74325596 </v>
   <v>       0.75000049       0.50000100       0.74325596 </v>
   <v>       0.70628668       0.38725460       0.49686036 </v>
   <v>       0.64958317       0.36263804       0.51080056 </v>
   <v>       0.68859746       0.44201796       0.48196520 </v>
   <v>       0.57961638       0.39469617       0.51020901 </v>
   <v>       0.61790434       0.47402469       0.48103921 </v>
   <v>       0.56371044       0.45021346       0.49516603 </v>
   <v>       0.75904260       0.47451708       0.53478342 </v>
   <v>       0.69183965       0.58353030       0.55072594 </v>
   <v>       0.78611161       0.51991741       0.57248255 </v>
   <v>       0.82298852       0.59427521       0.53977074 </v>
   <v>       0.83164849       0.43344699       0.52984896 </v>
   <v>       0.81874401       0.35714423       0.52015085 </v>
   <v>       0.65534654       0.59943687       0.52942724 </v>
   <v>       0.73840433       0.45860523       0.58175289 </v>
   <v>       0.86277379       0.64899427       0.55434757 </v>
   <v>       0.78373136       0.35619165       0.49788508 </v>
   <v>       0.05655187       0.23658635       0.56649331 </v>
   <v>       0.05169347       0.71065296       0.57221607 </v>
   <v>       0.54205285       0.21599955       0.56211280 </v>
   <v>       0.48927165       0.70365547       0.57082132 </v>
   <v>       0.43642807       0.28947272       0.56445012 </v>
   <v>       0.47713642       0.82706445       0.56048002 </v>
   <v>       0.92747726       0.24730312       0.56472056 </v>
   <v>       0.97813850       0.81553227       0.56726312 </v>
   <v>       0.23976930       0.45131751       0.56752709 </v>
   <v>       0.18362034       0.99851311       0.56097615 </v>
   <v>       0.69641704       0.97981330       0.56698419 </v>
   <v>       0.30988116       0.02330091       0.56375662 </v>
   <v>       0.28176935       0.57349863       0.56466720 </v>
   <v>       0.81352579       0.03193561       0.57037495 </v>
   <v>       0.05566590       0.19919055       0.65675978 </v>
   <v>       0.04968687       0.70932394       0.66073634 </v>
   <v>       0.55031986       0.20642386       0.65807730 </v>
   <v>       0.53684247       0.71142360       0.66188184 </v>
   <v>       0.20622060       0.44519910       0.65712844 </v>
   <v>       0.20768983       0.95739967       0.65828804 </v>
   <v>       0.70504236       0.47470399       0.66163948 </v>
   <v>       0.70232283       0.94968021       0.65828975 </v>
   <v>       0.45566927       0.29454505       0.65900864 </v>
   <v>       0.44720710       0.80264567       0.65744503 </v>
   <v>       0.95965653       0.28395111       0.66241630 </v>
   <v>       0.95074698       0.79271891       0.66024625 </v>
   <v>       0.30097490       0.04737767       0.65742922 </v>
   <v>       0.29081100       0.54081072       0.66139779 </v>
   <v>       0.78993560       0.04533574       0.65906102 </v>
   <v>       0.82211581       0.52515335       0.65527193 </v>
   <v>       0.04586250       0.20411950       0.75272599 </v>
   <v>       0.04586250       0.70411946       0.75272599 </v>
   <v>       0.54586251       0.20411950       0.75272599 </v>
   <v>       0.54586250       0.70411946       0.75272599 </v>
   <v>       0.20411900       0.45410100       0.75270499 </v>
   <v>       0.20411899       0.95410095       0.75270499 </v>
   <v>       0.70411898       0.45410100       0.75270499 </v>
   <v>       0.70411896       0.95410095       0.75270499 </v>
   <v>       0.45414002       0.29588849       0.75272697 </v>
   <v>       0.45414001       0.79588852       0.75272697 </v>
   <v>       0.95414002       0.29588849       0.75272697 </v>
[...]
   <v>       0.56656932       0.16943287       0.55635890 </v>
   <v>       0.49523471       0.65037694       0.56547675 </v>
   <v>       0.36215355       0.00855252       0.55976907 </v>
   <v>       0.27439813       0.62494571       0.55803404 </v>
   <v>       0.86910197       0.02814227       0.56685746 </v>
   <v>       0.05950571       0.23198310       0.58288282 </v>
   <v>       0.02359256       0.69273786       0.58544614 </v>
   <v>       0.57249193       0.24877578       0.57239165 </v>
   <v>       0.46610520       0.70926623       0.58565284 </v>
   <v>       0.27971057       0.43817151       0.57899276 </v>
   <v>       0.16827732       0.03874953       0.57203855 </v>
   <v>       0.67264295       0.02097041       0.57626284 </v>
   <v>       0.38051431       0.29256804       0.56163742 </v>
   <v>       0.48821379       0.86847802       0.54987365 </v>
   <v>       0.87937313       0.24327576       0.55588883 </v>
   <v>       0.97721433       0.86749899       0.56060041 </v>
   <v>       0.20396824       0.41253443       0.56280935 </v>
   <v>       0.14120167       0.97078002       0.55376231 </v>
   <v>       0.66838849       0.93327007       0.56304999 </v>
   <v>       0.44223065       0.19002881       0.54758920 </v>
   <v>       0.51949014       0.74426994       0.54123270 </v>
   <v>       0.99606268       0.24789020       0.53884117 </v>
   <v>       0.06892948       0.78967750       0.54894097 </v>
   <v>       0.19430579       0.52979026       0.54719795 </v>
   <v>       0.26438189       0.94288609       0.54404149 </v>
   <v>       0.78945808       0.93146427       0.55497007 </v>
   <v>       0.46350113       0.31099880       0.67460240 </v>
   <v>       0.43385190       0.80971301       0.67343700 </v>
   <v>       0.95648063       0.27881527       0.67842701 </v>
   <v>       0.92522154       0.77527888       0.67423062 </v>
   <v>       0.30536970       0.05548321       0.67370695 </v>
   <v>       0.29435869       0.53995376       0.67782576 </v>
   <v>       0.79029562       0.05346979       0.67536463 </v>
   <v>       0.84860364       0.49622581       0.66720083 </v>
   <v>       0.08869302       0.17479878       0.64544514 </v>
   <v>       0.09613099       0.69151638       0.65310475 </v>
   <v>       0.57682869       0.16754090       0.64918240 </v>
   <v>       0.57368773       0.67710662       0.65473618 </v>
   <v>       0.17591125       0.41384809       0.64649381 </v>
   <v>       0.17529822       0.92351178       0.64956504 </v>
   <v>       0.64882447       0.47930599       0.65885810 </v>
   <v>       0.67271415       0.91482729       0.64908863 </v>
   <v>       0.06325129       0.18348284       0.67233223 </v>
   <v>       0.03614738       0.68402872       0.67495244 </v>
   <v>       0.56915310       0.21285715       0.67347674 </v>
   <v>       0.53450448       0.70711150       0.67845314 </v>
   <v>       0.19840032       0.43299235       0.67320551 </v>
   <v>       0.20194927       0.95618009       0.67464122 </v>
   <v>       0.72184188       0.43869609       0.67356508 </v>
   <v>       0.69462660       0.94692436       0.67461919 </v>
   <v>       0.41373324       0.31945160       0.65079795 </v>
   <v>       0.41916133       0.83419943       0.64658697 </v>
   <v>       0.92501001       0.32027612       0.65546118 </v>
   <v>       0.92481860       0.83346279       0.65186689 </v>
   <v>       0.33494681       0.07787384       0.64781145 </v>
   <v>       0.32252659       0.58089099       0.65368030 </v>
   <v>       0.82444077       0.07773688       0.65007265 </v>
   <v>       0.85400996       0.55992259       0.64637440 </v>
   <v>       0.00308469       0.26162751       0.63314336 </v>
   <v>       0.03083433       0.78548235       0.63710533 </v>
   <v>       0.48010188       0.23013753       0.63291883 </v>
   <v>       0.50636464       0.75311245       0.63313249 </v>
   <v>       0.25451897       0.99638915       0.63096195 </v>
   <v>       0.25082790       0.50545004       0.63261695 </v>
   <v>       0.75202309       0.99282097       0.63181589 </v>
   <v>       0.72542072       0.55549841       0.63948472 </v>
   <v>       0.44874502       0.30128397       0.76888902 </v>
   <v>       0.44874501       0.80128391       0.76888902 </v>
   <v>       0.94874497       0.30128397       0.76888902 </v>
   <v>       0.94874501       0.80128391       0.76888902 </v>
   <v>       0.30127600       0.05129450       0.76887296 </v>
   <v>       0.30127601       0.55129450       0.76887296 </v>
   <v>       0.80127594       0.05129450       0.76887296 </v>
   <v>       0.80127598       0.55129450       0.76887296 </v>
   <v>       0.07877100       0.17118050       0.74344197 </v>
   <v>       0.07877101       0.67118045       0.74344197 </v>
   <v>       0.57877100       0.17118050       0.74344197 </v>
   <v>       0.57877099       0.67118045       0.74344197 </v>
   <v>       0.17119950       0.42117448       0.74342103 </v>
   <v>       0.17119950       0.92117451       0.74342103 </v>
   <v>       0.67119951       0.42117448       0.74342103 </v>
   <v>       0.67119950       0.92117451       0.74342103 </v>
   <v>       0.05125600       0.19871499       0.76888902 </v>
   <v>       0.05125600       0.69871493       0.76888902 </v>
   <v>       0.55125603       0.19871499       0.76888902 </v>
   <v>       0.55125602       0.69871493       0.76888902 </v>
   <v>       0.19872349       0.44870397       0.76887205 </v>
   <v>       0.19872349       0.94870397       0.76887205 </v>
   <v>       0.69872352       0.44870397       0.76887205 </v>
   <v>       0.69872351       0.94870397       0.76887205 </v>
   <v>       0.42123152       0.32881747       0.74344197 </v>
   <v>       0.42123151       0.82881744       0.74344197 </v>
   <v>       0.92123147       0.32881747       0.74344197 </v>
   <v>       0.92123151       0.82881744       0.74344197 </v>
   <v>       0.32880050       0.07882500       0.74342103 </v>
   <v>       0.32880049       0.57882496       0.74342103 </v>
   <v>       0.82880048       0.07882500       0.74342103 </v>
   <v>       0.82880052       0.57882496       0.74342103 </v>
   <v>       0.00000350       0.25000148       0.72582199 </v>
   <v>       0.00000350       0.75000145       0.72582199 </v>
   <v>       0.50000351       0.25000148       0.72582199 </v>
   <v>       0.50000350       0.75000145       0.72582199 </v>
   <v>       0.25000050       0.00000000       0.72580398 </v>
   <v>       0.25000052       0.50000000       0.72580398 </v>
   <v>       0.75000050       0.00000000       0.72580398 </v>
   <v>       0.75000049       0.50000000       0.72580398 </v>
   <v>       0.71763126       0.43827619       0.54206026 </v>
   <v>       0.73597254       0.49649529       0.52002222 </v>
   <v>       0.65385586       0.55200341       0.56113647 </v>
   <v>       0.70421061       0.63602679       0.55899474 </v>
   <v>       0.84436583       0.50375302       0.57221259 </v>
   <v>       0.78120642       0.57070616       0.58202523 </v>
   <v>       0.86538321       0.55855418       0.53271220 </v>
   <v>       0.79291094       0.62493742       0.52738301 </v>
   <v>       0.86771343       0.46568614       0.51898356 </v>
   <v>       0.86363967       0.42701333       0.54468029 </v>
   <v>       0.87307498       0.33010771       0.51951193 </v>
   <v>       0.78460482       0.32296690       0.53085563 </v>
   <v>       0.63808348       0.54905192       0.52102126 </v>
   <v>       0.69015694       0.63329123       0.51896849 </v>
   <v>       0.60510933       0.63252899       0.53253052 </v>
   <v>       0.75307043       0.45053156       0.59868224 </v>
   <v>       0.74522558       0.40462887       0.57364116 </v>
   <v>       0.67916888       0.47213865       0.58165546 </v>
   <v>       0.82467463       0.68669532       0.56270782 </v>
   <v>       0.89520069       0.68480009       0.54346484 </v>
   <v>       0.90147591       0.62177510       0.56554976 </v>
   <v>       0.81798033       0.38822658       0.48668441 </v>
   <v>       0.78502985       0.29860913       0.49212095 </v>
   <v>       0.66316703       0.31995925       0.52273834 </v>
   <v>       0.73135781       0.46134976       0.47066268 </v>
   <v>       0.53761134       0.37676520       0.52164022 </v>
   <v>       0.60615887       0.51779652       0.46947955 </v>
   <v>       0.50846359       0.47491491       0.49491225 </v>
   <v>       0.99365570       0.24406754       0.55600739 </v>
   <v>       0.03427183       0.77246767       0.56228263 </v>
   <v>       0.47246455       0.22943685       0.55756556 </v>
   <v>       0.49591395       0.75810400       0.55703414 </v>
   <v>       0.23730041       0.51896826       0.55922898 </v>
   <v>       0.25291749       0.98676180       0.55567273 </v>
   <v>       0.76877787       0.97947092       0.56381223 </v>
   <v>       0.00684476       0.24759150       0.65007473 </v>
   <v>       0.01101293       0.76275996       0.65212183 </v>
   <v>       0.49562764       0.24346465       0.64943757 </v>
   <v>       0.49661741       0.75581717       0.65024273 </v>
   <v>       0.24948129       0.49772706       0.64978463 </v>
   <v>       0.25525936       0.00073835       0.64831094 </v>
   <v>       0.75060129       0.52016793       0.65144957 </v>
   <v>       0.74863558       0.99612498       0.64916542 </v>
   <v>       0.49998898       0.24999498       0.74327702 </v>
   <v>       0.49998903       0.74999496       0.74327702 </v>
   <v>       0.99998898       0.24999498       0.74327702 </v>
   <v>       0.99998903       0.74999496       0.74327702 </v>
   <v>       0.25000050       0.00000100       0.74325596 </v>
   <v>       0.25000052       0.50000100       0.74325596 </v>
   <v>       0.75000050       0.00000100       0.74325596 </v>
   <v>       0.75000049       0.50000100       0.74325596 </v>
   <v>       0.70628668       0.38725460       0.49686036 </v>
   <v>       0.64958317       0.36263804       0.51080056 </v>
   <v>       0.68859746       0.44201796       0.48196520 </v>
   <v>       0.57961638       0.39469617       0.51020901 </v>
   <v>       0.61790434       0.47402469       0.48103921 </v>
   <v>       0.56371044       0.45021346       0.49516603 </v>
   <v>       0.75904260       0.47451708       0.53478342 </v>
   <v>       0.69183965       0.58353030       0.55072594 </v>
   <v>       0.78611161       0.51991741       0.57248255 </v>
   <v>       0.82298852       0.59427521       0.53977074 </v>
   <v>       0.83164849       0.43344699       0.52984896 </v>
   <v>       0.81874401       0.35714423       0.52015085 </v>
   <v>       0.65534654       0.59943687       0.52942724 </v>
   <v>       0.73840433       0.45860523       0.58175289 </v>
   <v>       0.86277379       0.64899427       0.55434757 </v>
   <v>       0.78373136       0.35619165       0.49788508 </v>
   <v>       0.05655187       0.23658635       0.56649331 </v>
   <v>       0.05169347       0.71065296       0.57221607 </v>
   <v>       0.54205285       0.21599955       0.56211280 </v>
   <v>       0.48927165       0.70365547       0.57082132 </v>
   <v>       0.43642807       0.28947272       0.56445012 </v>
   <v>       0.47713642       0.82706445       0.56048002 </v>
   <v>       0.92747726       0.24730312       0.56472056 </v>
   <v>       0.97813850       0.81553227       0.56726312 </v>
   <v>       0.23976930       0.45131751       0.56752709 </v>
   <v>       0.18362034       0.99851311       0.56097615 </v>
   <v>       0.69641704       0.97981330       0.56698419 </v>
   <v>       0.30988116       0.02330091       0.56375662 </v>
   <v>       0.28176935       0.57349863       0.56466720 </v>
   <v>       0.81352579       0.03193561       0.57037495 </v>
   <v>       0.05566590       0.19919055       0.65675978 </v>
   <v>       0.04968687       0.70932394       0.66073634 </v>
   <v>       0.55031986       0.20642386       0.65807730 </v>
   <v>       0.53684247       0.71142360       0.66188184 </v>
   <v>       0.20622060       0.44519910       0.65712844 </v>
   <v>       0.20768983       0.95739967       0.65828804 </v>
   <v>       0.70504236       0.47470399       0.66163948 </v>
   <v>       0.70232283       0.94968021       0.65828975 </v>
   <v>       0.45566927       0.29454505       0.65900864 </v>
   <v>       0.44720710       0.80264567       0.65744503 </v>
   <v>       0.95965653       0.28395111       0.66241630 </v>
   <v>       0.95074698       0.79271891       0.66024625 </v>
   <v>       0.30097490       0.04737767       0.65742922 </v>
   <v>       0.29081100       0.54081072       0.66139779 </v>
   <v>       0.78993560       0.04533574       0.65906102 </v>
   <v>       0.82211581       0.52515335       0.65527193 </v>
   <v>       0.04586250       0.20411950       0.75272599 </v>
   <v>       0.04586250       0.70411946       0.75272599 </v>
   <v>       0.54586251       0.20411950       0.75272599 </v>
   <v>       0.54586250       0.70411946       0.75272599 </v>
   <v>       0.20411900       0.45410100       0.75270499 </v>
   <v>       0.20411899       0.95410095       0.75270499 </v>
   <v>       0.70411898       0.45410100       0.75270499 </v>
   <v>       0.70411896       0.95410095       0.75270499 </v>
   <v>       0.45414002       0.29588849       0.75272697 </v>
   <v>       0.45414001       0.79588852       0.75272697 </v>
   <v>       0.95414002       0.29588849       0.75272697 </v>
   <v>       0.95414006       0.79588852       0.75272697 </v>
   <v>       0.29588249       0.04590050       0.75270499 </v>
   <v>       0.29588248       0.54590053       0.75270499 </v>
   <v>       0.79588244       0.04590050       0.75270499 </v>
   <v>       0.79588248       0.54590053       0.75270499 </v>
   <v>       0.76603994       0.54110771       0.54955718 </v>
   <v>       0.50254186       0.01706367       0.55297321 </v>
   <v>       0.48256317       0.51402233       0.55560618 </v>
   <v>       0.99469042       0.00493340       0.55220383 </v>
   <v>       0.03475213       0.50553119       0.55370126 </v>
   <v>       0.24548024       0.24804379       0.55337869 </v>
   <v>       0.24721280       0.76396708       0.55244289 </v>
   <v>       0.74194688       0.21260220       0.55683495 </v>
   <v>       0.70563599       0.79232087       0.54993360 </v>
   <v>       0.00588030       0.99698017       0.65478526 </v>
   <v>       0.01278409       0.49091468       0.65568064 </v>
   <v>       0.50175661       0.00172272       0.65482360 </v>
   <v>       0.50414684       0.49370731       0.65538328 </v>
   <v>       0.25617055       0.24490613       0.65449816 </v>
   <v>       0.25001574       0.75327433       0.65469546 </v>
   <v>       0.74616347       0.25841347       0.65561966 </v>
   <v>       0.74890061       0.74648608       0.65376370 </v>
   <v>       0.13993617       0.11310148       0.60717705 </v>
   <v>       0.14512523       0.61192701       0.61088079 </v>
   <v>       0.64524837       0.11019987       0.60981100 </v>
   <v>       0.62219744       0.62706142       0.61409103 </v>
   <v>       0.35926815       0.39313317       0.61004914 </v>
   <v>       0.37310624       0.88316724       0.60657719 </v>
   <v>       0.88504300       0.37037140       0.61293998 </v>
   <v>       0.86705525       0.88222258       0.61011507 </v>
   <v>       0.11569042       0.36045979       0.60901878 </v>
   <v>       0.12033473       0.87564446       0.60865091 </v>
   <v>       0.58924420       0.34330143       0.60493697 </v>
   <v>       0.61217005       0.86341715       0.61002136 </v>
   <v>       0.38315468       0.13331219       0.60723706 </v>
   <v>       0.38028648       0.63453921       0.61372633 </v>
   <v>       0.88919417       0.14263701       0.61379403 </v>
   <v>       0.91203693       0.65042683       0.61712172 </v>
   <v>       0.00000000       0.00000000       0.75492797 </v>
   <v>       0.00000000       0.50000000       0.75492797 </v>
   <v>       0.50000000       0.00000000       0.75492797 </v>
   <v>       0.49999999       0.50000000       0.75492797 </v>
   <v>       0.25000050       0.25000000       0.75493902 </v>
   <v>       0.25000051       0.74999997       0.75493902 </v>
   <v>       0.75000047       0.25000000       0.75493902 </v>
   <v>       0.75000046       0.74999997       0.75493902 </v>
   <v>       0.13579050       0.11421000       0.70478299 </v>
   <v>       0.13579050       0.61420998       0.70478299 </v>
   <v>       0.63579045       0.11421000       0.70478299 </v>
   <v>       0.63579049       0.61420998       0.70478299 </v>
   <v>       0.36420952       0.38578999       0.70478299 </v>
   <v>       0.36420950       0.88578996       0.70478299 </v>
   <v>       0.86420954       0.38578999       0.70478299 </v>
   <v>       0.86420953       0.88578996       0.70478299 </v>
   <v>       0.11421799       0.36421899       0.70478098 </v>
   <v>       0.11421799       0.86421899       0.70478098 </v>
   <v>       0.61421800       0.36421899       0.70478098 </v>
   <v>       0.61421799       0.86421899       0.70478098 </v>
   <v>       0.38578201       0.13578149       0.70478202 </v>
   <v>       0.38578200       0.63578149       0.70478202 </v>
   <v>       0.88578199       0.13578149       0.70478202 </v>
   <v>       0.88578203       0.63578149       0.70478202 </v>
   <v>       0.13466700       0.11533200       0.80125603 </v>
   <v>       0.13466699       0.61533199       0.80125603 </v>
   <v>       0.63466699       0.11533200       0.80125603 </v>
   <v>       0.63466698       0.61533199       0.80125603 </v>
   <v>       0.36533300       0.38466799       0.80125603 </v>
   <v>       0.36533299       0.88466796       0.80125603 </v>
   <v>       0.86533295       0.38466799       0.80125603 </v>
   <v>       0.86533294       0.88466796       0.80125603 </v>
   <v>       0.11532850       0.36533700       0.80126500 </v>
   <v>       0.11532850       0.86533698       0.80126500 </v>
   <v>       0.61532850       0.36533700       0.80126500 </v>
   <v>       0.61532849       0.86533698       0.80126500 </v>
   <v>       0.38467151       0.13466300       0.80126500 </v>
   <v>       0.38467150       0.63466297       0.80126500 </v>
   <v>       0.88467149       0.13466300       0.80126500 </v>
   <v>       0.88467153       0.63466297       0.80126500 </v>
   <v>       0.99509414       0.00443222       0.60545667 </v>
   <v>       0.00535038       0.50716539       0.60417809 </v>
   <v>       0.50380804       0.00661121       0.60502537 </v>
   <v>       0.49826459       0.50345265       0.60445610 </v>
   <v>       0.24897508       0.25205085       0.60463131 </v>
   <v>       0.24671886       0.75623174       0.60369838 </v>
   <v>       0.74713839       0.25922848       0.60592832 </v>
   <v>       0.73851160       0.75650935       0.60184163 </v>
   <v>       0.00000050       0.00000050       0.70482896 </v>
   <v>       0.00000050       0.50000048       0.70482896 </v>
   <v>       0.50000048       0.00000050       0.70482896 </v>
   <v>       0.50000046       0.50000048       0.70482896 </v>
   <v>       0.24999999       0.24999947       0.70482499 </v>
   <v>       0.25000001       0.74999950       0.70482499 </v>
   <v>       0.74999999       0.24999947       0.70482499 </v>
   <v>       0.74999998       0.74999950       0.70482499 </v>
   <v>       0.00000000       0.00000000       0.80731797 </v>
   <v>       0.00000000       0.50000000       0.80731797 </v>
   <v>       0.50000000       0.00000000       0.80731797 </v>
   <v>       0.49999999       0.50000000       0.80731797 </v>
   <v>       0.24999999       0.25000000       0.80731797 </v>
   <v>       0.25000001       0.74999997       0.80731797 </v>
   <v>       0.74999999       0.25000000       0.80731797 </v>
   <v>       0.74999998       0.74999997       0.80731797 </v>
  </varray>
 </structure>
</modeling>
