<?xml version="1.0" encoding="ISO-8859-1"?>
<modeling>
 <generator>
  <i name="program" type="string">vasp </i>
  <i name="version" type="string">6.2.1  </i>
  <i name="subversion" type="string">16May21 (build Nov 15 2021 14:57:28) complex                          parallel </i>
  <i name="platform" type="string">LinuxPGI </i>
  <i name="date" type="string">2023 07 30 </i>
  <i name="time" type="string">16:04:57 </i>
 </generator>
 <incar>
  <i type="string" name="SYSTEM">PSC</i>
  <i type="int" name="ISTART">     1</i>
  <i type="string" name="PREC">Normal</i>
  <i name="BMIX">      0.01000000</i>
  <i name="AMIN">      0.01000000</i>
  <i type="int" name="ICHARG">     1</i>
  <i type="int" name="NELM">   600</i>
  <i type="int" name="ISYM">     0</i>
  <i name="ENCUT">    500.00000000</i>
  <i type="string" name="LREAL">Auto</i>
  <i type="int" name="ISMEAR">     0</i>
  <i name="SIGMA">      0.05000000</i>
  <i type="logical" name="LWAVE"> F  </i>
  <i type="logical" name="LVTOT"> T  </i>
  <i type="logical" name="GGA_COMPAT"> F  </i>
  <i type="logical" name="LDIPOL"> T  </i>
  <i type="int" name="IDIPOL">     3</i>
  <i type="int" name="IVDW">    12</i>
 </incar>
 <primitive_cell>
  <structure name="primitive_cell" >
   <crystal>
    <varray name="basis" >
     <v>      18.06080055       0.00000000       0.00000000 </v>
     <v>      -0.00491865      18.06279945       0.00000000 </v>
     <v>       0.00000000       0.00000000      62.48749924 </v>
    </varray>
    <i name="volume">  20385.21054034 </i>
    <varray name="rec_basis" >
     <v>       0.05536853       0.00001508      -0.00000000 </v>
     <v>       0.00000000       0.05536240       0.00000000 </v>
     <v>       0.00000000      -0.00000000       0.01600320 </v>
    </varray>
   </crystal>
   <varray name="positions" >
    <v>       0.45385657       0.30015853       0.58014643 </v>
    <v>       0.44574597       0.80687646       0.58122807 </v>
    <v>       0.95438071       0.28702175       0.58510110 </v>
    <v>       0.96238181       0.80467991       0.58483945 </v>
    <v>       0.30399164       0.04871131       0.58054825 </v>
    <v>       0.30277728       0.54763995       0.58191797 </v>
    <v>       0.79535103       0.05346402       0.58072455 </v>
    <v>       0.08745805       0.17126430       0.55537237 </v>
    <v>       0.07731567       0.67077401       0.55611935 </v>
    <v>       0.58546285       0.17932841       0.55587827 </v>
    <v>       0.56914354       0.66867979       0.56135831 </v>
    <v>       0.33403757       0.07536751       0.55540320 </v>
    <v>       0.33183682       0.57753221       0.55696186 </v>
    <v>       0.82827277       0.07983663       0.55583395 </v>
    <v>       0.05770619       0.19714641       0.58096105 </v>
    <v>       0.05397632       0.69996496       0.58120609 </v>
    <v>       0.55717072       0.20902546       0.57986213 </v>
    <v>       0.53707257       0.70804153       0.58466760 </v>
    <v>       0.20013822       0.44950618       0.58184727 </v>
    <v>       0.19824373       0.95380977       0.58113387 </v>
    <v>       0.70102675       0.94748276       0.58070947 </v>
    <v>       0.41663173       0.32139588       0.55642056 </v>
    <v>       0.42283656       0.83572407       0.55608608 </v>
    <v>       0.91798748       0.32126666       0.56121045 </v>
    <v>       0.93083656       0.84039656       0.56107102 </v>
    <v>       0.16915231       0.42202946       0.55685662 </v>
    <v>       0.16652938       0.92510436       0.55632789 </v>
    <v>       0.67858687       0.91175059       0.55580831 </v>
    <v>       0.49911025       0.25163169       0.53767254 </v>
    <v>       0.50097557       0.74848653       0.53935727 </v>
    <v>       0.99774463       0.25119616       0.53927699 </v>
    <v>       0.99936022       0.75766657       0.53916631 </v>
    <v>       0.24696881       0.50110722       0.53959761 </v>
    <v>       0.25022790       0.99998486       0.53855370 </v>
    <v>       0.75666859       0.99089113       0.53857653 </v>
    <v>       0.44766943       0.30233725       0.67543325 </v>
    <v>       0.45115976       0.79775528       0.67556157 </v>
    <v>       0.94834214       0.30831229       0.67246733 </v>
    <v>       0.94725611       0.80319403       0.67402147 </v>
    <v>       0.30135081       0.05224679       0.67493364 </v>
    <v>       0.29858629       0.55113558       0.67517240 </v>
    <v>       0.80275181       0.05790056       0.67411847 </v>
    <v>       0.80363962       0.54523316       0.67497625 </v>
    <v>       0.07141083       0.16899377       0.65066524 </v>
    <v>       0.07391631       0.66865091       0.65000153 </v>
    <v>       0.57982148       0.17584437       0.64947780 </v>
    <v>       0.57668179       0.67048442       0.64639815 </v>
    <v>       0.16763376       0.42187534       0.64982632 </v>
    <v>       0.17157507       0.92028198       0.65025500 </v>
    <v>       0.66413264       0.42964521       0.64903161 </v>
    <v>       0.67015967       0.92412103       0.65160158 </v>
    <v>       0.04168176       0.20256434       0.67502765 </v>
    <v>       0.04874895       0.69836752       0.67481319 </v>
    <v>       0.55429378       0.20072198       0.67498419 </v>
    <v>       0.55201859       0.69400109       0.67352540 </v>
    <v>       0.19397992       0.44907482       0.67515945 </v>
    <v>       0.19886423       0.94804291       0.67545114 </v>
    <v>       0.69615165       0.45193725       0.67531226 </v>
    <v>       0.69866842       0.95556952       0.67631899 </v>
    <v>       0.42176131       0.33148906       0.65024694 </v>
    <v>       0.42152699       0.82994921       0.65103726 </v>
    <v>       0.92432769       0.33561818       0.64517561 </v>
    <v>       0.91851944       0.82685532       0.64843957 </v>
    <v>       0.32717271       0.07847253       0.64947066 </v>
    <v>       0.32647530       0.57683745       0.64984629 </v>
    <v>       0.82569124       0.08036442       0.64826168 </v>
    <v>       0.83157442       0.57930690       0.64936084 </v>
    <v>       0.00061770       0.24894386       0.63032389 </v>
    <v>       0.99148380       0.74348801       0.63152170 </v>
    <v>       0.50463825       0.25607902       0.63211911 </v>
    <v>       0.49682953       0.75370268       0.63111665 </v>
    <v>       0.24840499       0.00173419       0.63208987 </v>
    <v>       0.24798701       0.49590781       0.63207821 </v>
    <v>       0.74764735       0.00130249       0.63214817 </v>
    <v>       0.74386367       0.51088900       0.63288263 </v>
    <v>       0.44874502       0.30128397       0.76888902 </v>
    <v>       0.44874501       0.80128391       0.76888902 </v>
    <v>       0.94874497       0.30128397       0.76888902 </v>
    <v>       0.94874501       0.80128391       0.76888902 </v>
    <v>       0.30127600       0.05129450       0.76887296 </v>
    <v>       0.30127601       0.55129450       0.76887296 </v>
    <v>       0.80127594       0.05129450       0.76887296 </v>
    <v>       0.80127598       0.55129450       0.76887296 </v>
    <v>       0.07877100       0.17118050       0.74344197 </v>
    <v>       0.07877101       0.67118045       0.74344197 </v>
    <v>       0.57877100       0.17118050       0.74344197 </v>
    <v>       0.57877099       0.67118045       0.74344197 </v>
    <v>       0.17119950       0.42117448       0.74342103 </v>
    <v>       0.17119950       0.92117451       0.74342103 </v>
    <v>       0.67119951       0.42117448       0.74342103 </v>
    <v>       0.67119950       0.92117451       0.74342103 </v>
    <v>       0.05125600       0.19871499       0.76888902 </v>
    <v>       0.05125600       0.69871493       0.76888902 </v>
    <v>       0.55125603       0.19871499       0.76888902 </v>
    <v>       0.55125602       0.69871493       0.76888902 </v>
    <v>       0.19872349       0.44870397       0.76887205 </v>
    <v>       0.19872349       0.94870397       0.76887205 </v>
    <v>       0.69872352       0.44870397       0.76887205 </v>
    <v>       0.69872351       0.94870397       0.76887205 </v>
    <v>       0.42123152       0.32881747       0.74344197 </v>
    <v>       0.42123151       0.82881744       0.74344197 </v>
    <v>       0.92123147       0.32881747       0.74344197 </v>
    <v>       0.92123151       0.82881744       0.74344197 </v>
    <v>       0.32880050       0.07882500       0.74342103 </v>
    <v>       0.32880049       0.57882496       0.74342103 </v>
    <v>       0.82880048       0.07882500       0.74342103 </v>
    <v>       0.82880052       0.57882496       0.74342103 </v>
    <v>       0.00000350       0.25000148       0.72582199 </v>
    <v>       0.00000350       0.75000145       0.72582199 </v>
    <v>       0.50000351       0.25000148       0.72582199 </v>
    <v>       0.50000350       0.75000145       0.72582199 </v>
    <v>       0.25000050       0.00000000       0.72580398 </v>
    <v>       0.25000052       0.50000000       0.72580398 </v>
    <v>       0.75000050       0.00000000       0.72580398 </v>
    <v>       0.75000049       0.50000000       0.72580398 </v>
    <v>       0.72630663       0.46795623       0.55110303 </v>
    <v>       0.75006093       0.51639284       0.52882586 </v>
    <v>       0.65871575       0.56290276       0.56692369 </v>
    <v>       0.70012341       0.64808826       0.56863259 </v>
    <v>       0.84348183       0.53062642       0.58293837 </v>
    <v>       0.77066890       0.59128036       0.59096586 </v>
    <v>       0.88293731       0.57635303       0.54875044 </v>
    <v>       0.81718728       0.63797771       0.53664438 </v>
    <v>       0.87962096       0.49811750       0.53288020 </v>
    <v>       0.86647249       0.45754384       0.55833763 </v>
    <v>       0.89560013       0.35879645       0.53475057 </v>
    <v>       0.80299947       0.35713237       0.54476210 </v>
    <v>       0.63577448       0.57092194       0.53003283 </v>
    <v>       0.71316934       0.63033715       0.52542620 </v>
    <v>       0.63540665       0.66828898       0.53594264 </v>
    <v>       0.74095814       0.48134757       0.60519160 </v>
    <v>       0.75527407       0.43109908       0.58194068 </v>
    <v>       0.67971908       0.49032556       0.58426505 </v>
    <v>       0.82951493       0.68402286       0.57815305 </v>
    <v>       0.86843360       0.72175542       0.55644620 </v>
    <v>       0.91908982       0.65943106       0.57200424 </v>
    <v>       0.85127541       0.41172562       0.50085060 </v>
    <v>       0.81961103       0.31907254       0.50555067 </v>
    <v>       0.68355444       0.34016546       0.53153386 </v>
    <v>       0.76686312       0.48344686       0.48290075 </v>
    <v>       0.56226945       0.38845804       0.52719474 </v>
    <v>       0.63870209       0.53148734       0.47751940 </v>
    <v>       0.53640283       0.48649752       0.50013168 </v>
    <v>       0.00022023       0.24872834       0.55696284 </v>
    <v>       0.00287864       0.75772459       0.55687933 </v>
    <v>       0.50047734       0.25067198       0.55513539 </v>
    <v>       0.49769975       0.75219541       0.55700649 </v>
    <v>       0.25005102       0.49940112       0.55632941 </v>
    <v>       0.25070185       0.00061167       0.55528178 </v>
    <v>       0.75314346       0.99528601       0.55524857 </v>
    <v>       0.99795010       0.25221254       0.64747496 </v>
    <v>       0.99574549       0.74805865       0.64863517 </v>
    <v>       0.50038757       0.25414187       0.64928630 </v>
    <v>       0.49821287       0.75116823       0.64829336 </v>
    <v>       0.24664076       0.49891876       0.64925956 </v>
    <v>       0.24978046       0.99978909       0.64928282 </v>
    <v>       0.74841448       0.50483094       0.64954605 </v>
    <v>       0.74956592       0.00211464       0.64934515 </v>
    <v>       0.49998898       0.24999498       0.74327702 </v>
    <v>       0.49998903       0.74999496       0.74327702 </v>
    <v>       0.99998898       0.24999498       0.74327702 </v>
    <v>       0.99998903       0.74999496       0.74327702 </v>
    <v>       0.25000050       0.00000100       0.74325596 </v>
    <v>       0.25000052       0.50000100       0.74325596 </v>
    <v>       0.75000050       0.00000100       0.74325596 </v>
    <v>       0.75000049       0.50000100       0.74325596 </v>
    <v>       0.73429869       0.40682792       0.50776587 </v>
    <v>       0.67508846       0.37899580       0.51954557 </v>
    <v>       0.72008377       0.46246485       0.49244643 </v>
    <v>       0.60558485       0.40594366       0.51619816 </v>
    <v>       0.64873420       0.48634139       0.48923689 </v>
    <v>       0.59179298       0.46137737       0.50177312 </v>
    <v>       0.77066602       0.50102992       0.54379779 </v>
    <v>       0.69514264       0.60127439       0.55824776 </v>
    <v>       0.78445323       0.54405108       0.58118601 </v>
    <v>       0.83684521       0.61322742       0.55187039 </v>
    <v>       0.84144101       0.46369952       0.54257068 </v>
    <v>       0.83950156       0.38661218       0.53335204 </v>
    <v>       0.66640029       0.61753138       0.53636344 </v>
    <v>       0.73606451       0.48328113       0.58802209 </v>
    <v>       0.86656941       0.67187986       0.56540068 </v>
    <v>       0.81376982       0.37752892       0.51115045 </v>
    <v>       0.05094219       0.20348005       0.56487476 </v>
    <v>       0.04595737       0.70542689       0.56483404 </v>
    <v>       0.54994487       0.20900668       0.56440048 </v>
    <v>       0.53849205       0.70654910       0.56842546 </v>
    <v>       0.45411929       0.29345573       0.56466696 </v>
    <v>       0.45391555       0.80117225       0.56489277 </v>
    <v>       0.95516909       0.28865085       0.56873283 </v>
    <v>       0.96369875       0.80355802       0.56796266 </v>
    <v>       0.20453513       0.45509397       0.56587899 </v>
    <v>       0.20309477       0.95802164       0.56512090 </v>
    <v>       0.70890127       0.94971734       0.56479314 </v>
    <v>       0.29823510       0.04336283       0.56460628 </v>
    <v>       0.29691171       0.54339998       0.56593332 </v>
    <v>       0.79398135       0.04511307       0.56479516 </v>
    <v>       0.03968773       0.20487923       0.65872617 </v>
    <v>       0.04288072       0.70297475       0.65880181 </v>
    <v>       0.54701932       0.20681087       0.65885828 </v>
    <v>       0.54547097       0.70551516       0.65674616 </v>
    <v>       0.20325121       0.45387424       0.65873197 </v>
    <v>       0.20372951       0.95299904       0.65898727 </v>
    <v>       0.70101316       0.45906721       0.65884589 </v>
    <v>       0.70309437       0.95771457       0.65979481 </v>
    <v>       0.45464651       0.29783313       0.65897500 </v>
    <v>       0.45516600       0.79478167       0.65899069 </v>
    <v>       0.95416498       0.30177660       0.65566874 </v>
    <v>       0.95458488       0.79646063       0.65860188 </v>
    <v>       0.29469941       0.04544726       0.65852765 </v>
    <v>       0.29032447       0.54536305       0.65872642 </v>
    <v>       0.79547825       0.04851203       0.65784111 </v>
    <v>       0.79763130       0.54559657       0.65859016 </v>
    <v>       0.04586250       0.20411950       0.75272599 </v>
    <v>       0.04586250       0.70411946       0.75272599 </v>
    <v>       0.54586251       0.20411950       0.75272599 </v>
    <v>       0.54586250       0.70411946       0.75272599 </v>
    <v>       0.20411900       0.45410100       0.75270499 </v>
    <v>       0.20411899       0.95410095       0.75270499 </v>
    <v>       0.70411898       0.45410100       0.75270499 </v>
    <v>       0.70411896       0.95410095       0.75270499 </v>
    <v>       0.45414002       0.29588849       0.75272697 </v>
    <v>       0.45414001       0.79588852       0.75272697 </v>
    <v>       0.95414002       0.29588849       0.75272697 </v>
    <v>       0.95414006       0.79588852       0.75272697 </v>
    <v>       0.29588249       0.04590050       0.75270499 </v>
    <v>       0.29588248       0.54590053       0.75270499 </v>
    <v>       0.79588244       0.04590050       0.75270499 </v>
    <v>       0.79588248       0.54590053       0.75270499 </v>
    <v>       0.77394836       0.56878553       0.55976559 </v>
    <v>       0.49360167       0.99875867       0.55304018 </v>
    <v>       0.49390465       0.50596498       0.55357953 </v>
    <v>       0.99912968       0.99849920       0.55244576 </v>
    <v>       0.00653908       0.50602834       0.55381463 </v>
    <v>       0.24903275       0.25586144       0.55383306 </v>
    <v>       0.24838091       0.74366620       0.55166057 </v>
    <v>       0.74416372       0.24358709       0.55381744 </v>
    <v>       0.74335918       0.75654013       0.55001846 </v>
    <v>       0.99402791       0.99895298       0.65470236 </v>
    <v>       0.00228154       0.49344986       0.65428419 </v>
    <v>       0.50085950       0.99462451       0.65453607 </v>
    <v>       0.49411448       0.50088357       0.65443107 </v>
    <v>       0.24913725       0.24899164       0.65425928 </v>
    <v>       0.25114840       0.75093111       0.65430085 </v>
    <v>       0.75619854       0.25093998       0.65433565 </v>
    <v>       0.74897180       0.75098053       0.65330285 </v>
    <v>       0.14221816       0.10591906       0.60701203 </v>
    <v>       0.13977122       0.60788614       0.60687211 </v>
    <v>       0.64204949       0.10576249       0.60677426 </v>
    <v>       0.63653387       0.61329368       0.60932268 </v>
    <v>       0.35772315       0.39400236       0.60696210 </v>
    <v>       0.35777910       0.88679032       0.60697699 </v>
    <v>       0.86329577       0.38671970       0.60929832 </v>
    <v>       0.85475472       0.89077264       0.60689635 </v>
    <v>       0.11346102       0.35781967       0.60701893 </v>
    <v>       0.10593833       0.85467770       0.60674691 </v>
    <v>       0.60044456       0.35178642       0.60602142 </v>
    <v>       0.60886144       0.85471545       0.60658812 </v>
    <v>       0.39402375       0.14209099       0.60700099 </v>
    <v>       0.39211538       0.64418329       0.60696814 </v>
    <v>       0.89423808       0.14188761       0.60699928 </v>
    <v>       0.89961585       0.64694884       0.60936388 </v>
    <v>       0.00000000       0.00000000       0.75492797 </v>
    <v>       0.00000000       0.50000000       0.75492797 </v>
    <v>       0.50000000       0.00000000       0.75492797 </v>
    <v>       0.49999999       0.50000000       0.75492797 </v>
    <v>       0.25000050       0.25000000       0.75493902 </v>
    <v>       0.25000051       0.74999997       0.75493902 </v>
    <v>       0.75000047       0.25000000       0.75493902 </v>
    <v>       0.75000046       0.74999997       0.75493902 </v>
    <v>       0.13579050       0.11421000       0.70478299 </v>
    <v>       0.13579050       0.61420998       0.70478299 </v>
    <v>       0.63579045       0.11421000       0.70478299 </v>
    <v>       0.63579049       0.61420998       0.70478299 </v>
    <v>       0.36420952       0.38578999       0.70478299 </v>
    <v>       0.36420950       0.88578996       0.70478299 </v>
    <v>       0.86420954       0.38578999       0.70478299 </v>
    <v>       0.86420953       0.88578996       0.70478299 </v>
    <v>       0.11421799       0.36421899       0.70478098 </v>
    <v>       0.11421799       0.86421899       0.70478098 </v>
    <v>       0.61421800       0.36421899       0.70478098 </v>
    <v>       0.61421799       0.86421899       0.70478098 </v>
    <v>       0.38578201       0.13578149       0.70478202 </v>
    <v>       0.38578200       0.63578149       0.70478202 </v>
    <v>       0.88578199       0.13578149       0.70478202 </v>
    <v>       0.88578203       0.63578149       0.70478202 </v>
    <v>       0.13466700       0.11533200       0.80125603 </v>
    <v>       0.13466699       0.61533199       0.80125603 </v>
    <v>       0.63466699       0.11533200       0.80125603 </v>
    <v>       0.63466698       0.61533199       0.80125603 </v>
    <v>       0.36533300       0.38466799       0.80125603 </v>
    <v>       0.36533299       0.88466796       0.80125603 </v>
    <v>       0.86533295       0.38466799       0.80125603 </v>
    <v>       0.86533294       0.88466796       0.80125603 </v>
    <v>       0.11532850       0.36533700       0.80126500 </v>
    <v>       0.11532850       0.86533698       0.80126500 </v>
    <v>       0.61532850       0.36533700       0.80126500 </v>
    <v>       0.61532849       0.86533698       0.80126500 </v>
    <v>       0.38467151       0.13466300       0.80126500 </v>
    <v>       0.38467150       0.63466297       0.80126500 </v>
    <v>       0.88467149       0.13466300       0.80126500 </v>
    <v>       0.88467153       0.63466297       0.80126500 </v>
    <v>       0.00096772       0.00108380       0.60268964 </v>
    <v>       0.00221750       0.49898887       0.60406687 </v>
    <v>       0.49910707       0.00129468       0.60253091 </v>
    <v>       0.49911649       0.49868159       0.60195762 </v>
    <v>       0.24907958       0.25109663       0.60380351 </v>
    <v>       0.25093561       0.74903531       0.60265991 </v>
    <v>       0.74791095       0.25104389       0.60365504 </v>
    <v>       0.74374487       0.75639583       0.60401186 </v>
    <v>       0.00000050       0.00000050       0.70482896 </v>
    <v>       0.00000050       0.50000048       0.70482896 </v>
    <v>       0.50000048       0.00000050       0.70482896 </v>
    <v>       0.50000046       0.50000048       0.70482896 </v>
    <v>       0.24999999       0.24999947       0.70482499 </v>
    <v>       0.25000001       0.74999950       0.70482499 </v>
    <v>       0.74999999       0.24999947       0.70482499 </v>
    <v>       0.74999998       0.74999950       0.70482499 </v>
    <v>       0.00000000       0.00000000       0.80731797 </v>
    <v>       0.00000000       0.50000000       0.80731797 </v>
    <v>       0.50000000       0.00000000       0.80731797 </v>
    <v>       0.49999999       0.50000000       0.80731797 </v>
    <v>       0.24999999       0.25000000       0.80731797 </v>
    <v>       0.25000001       0.74999997       0.80731797 </v>
    <v>       0.74999999       0.25000000       0.80731797 </v>
    <v>       0.74999998       0.74999997       0.80731797 </v>
   </varray>
  </structure>
  <varray name="primitive_index" >
   <v type="int" >        1 </v>
   <v type="int" >        2 </v>
   <v type="int" >        3 </v>
   <v type="int" >        4 </v>
   <v type="int" >        5 </v>
   <v type="int" >        6 </v>
   <v type="int" >        7 </v>
   <v type="int" >        8 </v>
   <v type="int" >        9 </v>
   <v type="int" >       10 </v>
   <v type="int" >       11 </v>
   <v type="int" >       12 </v>
   <v type="int" >       13 </v>
   <v type="int" >       14 </v>
   <v type="int" >       15 </v>
   <v type="int" >       16 </v>
   <v type="int" >       17 </v>
   <v type="int" >       18 </v>
   <v type="int" >       19 </v>
   <v type="int" >       20 </v>
   <v type="int" >       21 </v>
   <v type="int" >       22 </v>
   <v type="int" >       23 </v>
   <v type="int" >       24 </v>
   <v type="int" >       25 </v>
   <v type="int" >       26 </v>
   <v type="int" >       27 </v>
   <v type="int" >       28 </v>
   <v type="int" >       29 </v>
   <v type="int" >       30 </v>
   <v type="int" >       31 </v>
   <v type="int" >       32 </v>
   <v type="int" >       33 </v>
   <v type="int" >       34 </v>
   <v type="int" >       35 </v>
   <v type="int" >       36 </v>
   <v type="int" >       37 </v>
   <v type="int" >       38 </v>
   <v type="int" >       39 </v>
   <v type="int" >       40 </v>
   <v type="int" >       41 </v>
   <v type="int" >       42 </v>
   <v type="int" >       43 </v>
   <v type="int" >       44 </v>
   <v type="int" >       45 </v>
   <v type="int" >       46 </v>
   <v type="int" >       47 </v>
   <v type="int" >       48 </v>
   <v type="int" >       49 </v>
   <v type="int" >       50 </v>
   <v type="int" >       51 </v>
   <v type="int" >       52 </v>
   <v type="int" >       53 </v>
   <v type="int" >       54 </v>
   <v type="int" >       55 </v>
   <v type="int" >       56 </v>
   <v type="int" >       57 </v>
   <v type="int" >       58 </v>
   <v type="int" >       59 </v>
   <v type="int" >       60 </v>
   <v type="int" >       61 </v>
   <v type="int" >       62 </v>
   <v type="int" >       63 </v>
   <v type="int" >       64 </v>
   <v type="int" >       65 </v>
   <v type="int" >       66 </v>
   <v type="int" >       67 </v>
   <v type="int" >       68 </v>
   <v type="int" >       69 </v>
   <v type="int" >       70 </v>
   <v type="int" >       71 </v>
   <v type="int" >       72 </v>
   <v type="int" >       73 </v>
   <v type="int" >       74 </v>
   <v type="int" >       75 </v>
   <v type="int" >       76 </v>
   <v type="int" >       77 </v>
   <v type="int" >       78 </v>
   <v type="int" >       79 </v>
   <v type="int" >       80 </v>
   <v type="int" >       81 </v>
   <v type="int" >       82 </v>
   <v type="int" >       83 </v>
   <v type="int" >       84 </v>
   <v type="int" >       85 </v>
   <v type="int" >       86 </v>
   <v type="int" >       87 </v>
   <v type="int" >       88 </v>
   <v type="int" >       89 </v>
   <v type="int" >       90 </v>
   <v type="int" >       91 </v>
   <v type="int" >       92 </v>
   <v type="int" >       93 </v>
   <v type="int" >       94 </v>
   <v type="int" >       95 </v>
   <v type="int" >       96 </v>
   <v type="int" >       97 </v>
   <v type="int" >       98 </v>
   <v type="int" >       99 </v>
   <v type="int" >      100 </v>
   <v type="int" >      101 </v>
   <v type="int" >      102 </v>
   <v type="int" >      103 </v>
   <v type="int" >      104 </v>
   <v type="int" >      105 </v>
   <v type="int" >      106 </v>
   <v type="int" >      107 </v>
   <v type="int" >      108 </v>
   <v type="int" >      109 </v>
   <v type="int" >      110 </v>
   <v type="int" >      111 </v>
   <v type="int" >      112 </v>
   <v type="int" >      113 </v>
   <v type="int" >      114 </v>
   <v type="int" >      115 </v>
   <v type="int" >      116 </v>
   <v type="int" >      117 </v>
   <v type="int" >      118 </v>
   <v type="int" >      119 </v>
   <v type="int" >      120 </v>
   <v type="int" >      121 </v>
   <v type="int" >      122 </v>
   <v type="int" >      123 </v>
   <v type="int" >      124 </v>
   <v type="int" >      125 </v>
   <v type="int" >      126 </v>
   <v type="int" >      127 </v>
   <v type="int" >      128 </v>
   <v type="int" >      129 </v>
   <v type="int" >      130 </v>
   <v type="int" >      131 </v>
   <v type="int" >      132 </v>
   <v type="int" >      133 </v>
   <v type="int" >      134 </v>
   <v type="int" >      135 </v>
   <v type="int" >      136 </v>
   <v type="int" >      137 </v>
   <v type="int" >      138 </v>
   <v type="int" >      139 </v>
   <v type="int" >      140 </v>
   <v type="int" >      141 </v>
   <v type="int" >      142 </v>
   <v type="int" >      143 </v>
   <v type="int" >      144 </v>
   <v type="int" >      145 </v>
   <v type="int" >      146 </v>
   <v type="int" >      147 </v>
   <v type="int" >      148 </v>
   <v type="int" >      149 </v>
   <v type="int" >      150 </v>
   <v type="int" >      151 </v>
   <v type="int" >      152 </v>
   <v type="int" >      153 </v>
   <v type="int" >      154 </v>
   <v type="int" >      155 </v>
   <v type="int" >      156 </v>
   <v type="int" >      157 </v>
   <v type="int" >      158 </v>
   <v type="int" >      159 </v>
   <v type="int" >      160 </v>
   <v type="int" >      161 </v>
   <v type="int" >      162 </v>
   <v type="int" >      163 </v>
   <v type="int" >      164 </v>
   <v type="int" >      165 </v>
   <v type="int" >      166 </v>
   <v type="int" >      167 </v>
   <v type="int" >      168 </v>
   <v type="int" >      169 </v>
   <v type="int" >      170 </v>
   <v type="int" >      171 </v>
   <v type="int" >      172 </v>
   <v type="int" >      173 </v>
   <v type="int" >      174 </v>
   <v type="int" >      175 </v>
   <v type="int" >      176 </v>
   <v type="int" >      177 </v>
   <v type="int" >      178 </v>
   <v type="int" >      179 </v>
   <v type="int" >      180 </v>
   <v type="int" >      181 </v>
   <v type="int" >      182 </v>
   <v type="int" >      183 </v>
   <v type="int" >      184 </v>
   <v type="int" >      185 </v>
   <v type="int" >      186 </v>
   <v type="int" >      187 </v>
   <v type="int" >      188 </v>
   <v type="int" >      189 </v>
   <v type="int" >      190 </v>
   <v type="int" >      191 </v>
   <v type="int" >      192 </v>
   <v type="int" >      193 </v>
   <v type="int" >      194 </v>
   <v type="int" >      195 </v>
   <v type="int" >      196 </v>
   <v type="int" >      197 </v>
   <v type="int" >      198 </v>
   <v type="int" >      199 </v>
   <v type="int" >      200 </v>
   <v type="int" >      201 </v>
   <v type="int" >      202 </v>
   <v type="int" >      203 </v>
   <v type="int" >      204 </v>
   <v type="int" >      205 </v>
   <v type="int" >      206 </v>
   <v type="int" >      207 </v>
   <v type="int" >      208 </v>
   <v type="int" >      209 </v>
   <v type="int" >      210 </v>
   <v type="int" >      211 </v>
   <v type="int" >      212 </v>
   <v type="int" >      213 </v>
   <v type="int" >      214 </v>
   <v type="int" >      215 </v>
   <v type="int" >      216 </v>
   <v type="int" >      217 </v>
   <v type="int" >      218 </v>
   <v type="int" >      219 </v>
   <v type="int" >      220 </v>
   <v type="int" >      221 </v>
   <v type="int" >      222 </v>
   <v type="int" >      223 </v>
   <v type="int" >      224 </v>
   <v type="int" >      225 </v>
   <v type="int" >      226 </v>
   <v type="int" >      227 </v>
   <v type="int" >      228 </v>
   <v type="int" >      229 </v>
   <v type="int" >      230 </v>
   <v type="int" >      231 </v>
   <v type="int" >      232 </v>
   <v type="int" >      233 </v>
   <v type="int" >      234 </v>
   <v type="int" >      235 </v>
   <v type="int" >      236 </v>
   <v type="int" >      237 </v>
   <v type="int" >      238 </v>
   <v type="int" >      239 </v>
   <v type="int" >      240 </v>
   <v type="int" >      241 </v>
   <v type="int" >      242 </v>
   <v type="int" >      243 </v>
   <v type="int" >      244 </v>
   <v type="int" >      245 </v>
   <v type="int" >      246 </v>
   <v type="int" >      247 </v>
   <v type="int" >      248 </v>
   <v type="int" >      249 </v>
   <v type="int" >      250 </v>
   <v type="int" >      251 </v>
   <v type="int" >      252 </v>
   <v type="int" >      253 </v>
   <v type="int" >      254 </v>
   <v type="int" >      255 </v>
   <v type="int" >      256 </v>
   <v type="int" >      257 </v>
   <v type="int" >      258 </v>
   <v type="int" >      259 </v>
   <v type="int" >      260 </v>
   <v type="int" >      261 </v>
   <v type="int" >      262 </v>
   <v type="int" >      263 </v>
   <v type="int" >      264 </v>
   <v type="int" >      265 </v>
   <v type="int" >      266 </v>
   <v type="int" >      267 </v>
   <v type="int" >      268 </v>
   <v type="int" >      269 </v>
   <v type="int" >      270 </v>
   <v type="int" >      271 </v>
   <v type="int" >      272 </v>
   <v type="int" >      273 </v>
   <v type="int" >      274 </v>
   <v type="int" >      275 </v>
   <v type="int" >      276 </v>
   <v type="int" >      277 </v>
   <v type="int" >      278 </v>
   <v type="int" >      279 </v>
   <v type="int" >      280 </v>
   <v type="int" >      281 </v>
   <v type="int" >      282 </v>
   <v type="int" >      283 </v>
   <v type="int" >      284 </v>
   <v type="int" >      285 </v>
   <v type="int" >      286 </v>
   <v type="int" >      287 </v>
   <v type="int" >      288 </v>
   <v type="int" >      289 </v>
   <v type="int" >      290 </v>
   <v type="int" >      291 </v>
   <v type="int" >      292 </v>
   <v type="int" >      293 </v>
   <v type="int" >      294 </v>
   <v type="int" >      295 </v>
   <v type="int" >      296 </v>
   <v type="int" >      297 </v>
   <v type="int" >      298 </v>
   <v type="int" >      299 </v>
   <v type="int" >      300 </v>
   <v type="int" >      301 </v>
   <v type="int" >      302 </v>
   <v type="int" >      303 </v>
   <v type="int" >      304 </v>
   <v type="int" >      305 </v>
   <v type="int" >      306 </v>
   <v type="int" >      307 </v>
   <v type="int" >      308 </v>
   <v type="int" >      309 </v>
   <v type="int" >      310 </v>
   <v type="int" >      311 </v>
   <v type="int" >      312 </v>
   <v type="int" >      313 </v>
   <v type="int" >      314 </v>
   <v type="int" >      315 </v>
   <v type="int" >      316 </v>
   <v type="int" >      317 </v>
   <v type="int" >      318 </v>
   <v type="int" >      319 </v>
   <v type="int" >      320 </v>
   <v type="int" >      321 </v>
   <v type="int" >      322 </v>
   <v type="int" >      323 </v>
   <v type="int" >      324 </v>
   <v type="int" >      325 </v>
  </varray>
 </primitive_cell>
 <kpoints>
  <generation param="Gamma">
   <v type="int" name="divisions">       3        3        1 </v>
   <v name="usershift">      0.00000000       0.00000000       0.00000000 </v>
   <v name="genvec1">      0.33333333       0.00000000       0.00000000 </v>
   <v name="genvec2">      0.00000000       0.33333333       0.00000000 </v>
   <v name="genvec3">      0.00000000       0.00000000       1.00000000 </v>
   <v name="shift">      0.00000000       0.00000000       0.00000000 </v>
  </generation>
  <varray name="kpointlist" >
   <v>       0.00000000       0.00000000       0.00000000 </v>
   <v>       0.33333333       0.00000000       0.00000000 </v>
   <v>       0.00000000       0.33333333       0.00000000 </v>
   <v>       0.33333333       0.33333333       0.00000000 </v>
   <v>      -0.33333333       0.33333333       0.00000000 </v>
  </varray>
  <varray name="weights" >
   <v>       0.11111111 </v>
   <v>       0.22222222 </v>
   <v>       0.22222222 </v>
   <v>       0.22222222 </v>
   <v>       0.22222222 </v>
  </varray>
 </kpoints>
 <parameters>
  <separator name="general" >
   <i type="string" name="SYSTEM">PSC</i>
   <i type="logical" name="LCOMPAT"> F  </i>
  </separator>
  <separator name="electronic" >
   <i type="string" name="PREC">normal</i>
   <i name="ENMAX">    500.00000000</i>
   <i name="ENAUG">    644.87300000</i>
   <i name="EDIFF">      0.00010000</i>
   <i type="int" name="IALGO">    38</i>
   <i type="int" name="IWAVPR">    10</i>
   <i type="int" name="NBANDS">   732</i>
   <i type="int" name="NBANDSLOW">    -1</i>
   <i type="int" name="NBANDSHIGH">    -1</i>
   <i name="NELECT">   1134.00000000</i>
   <i type="int" name="TURBO">     0</i>
   <i type="int" name="IRESTART">     0</i>
   <i type="int" name="NREBOOT">     0</i>
   <i type="int" name="NMIN">     0</i>
   <i name="EREF">      0.00000000</i>
   <separator name="electronic smearing" >
    <i type="int" name="ISMEAR">     0</i>
    <i name="SIGMA">      0.05000000</i>
    <i name="KSPACING">      0.50000000</i>
    <i type="logical" name="KGAMMA"> T  </i>
    <i type="logical" name="KBLOWUP"> T  </i>
   </separator>
   <separator name="electronic projectors" >
    <i type="logical" name="LREAL"> T  </i>
    <v name="ROPT">     -0.00050000     -0.00050000     -0.00050000     -0.00050000     -0.00050000</v>
    <i type="int" name="LMAXPAW">  -100</i>
    <i type="int" name="LMAXMIX">     2</i>
    <i type="logical" name="NLSPLINE"> F  </i>
   </separator>
   <separator name="electronic startup" >
    <i type="int" name="ISTART">     0</i>
    <i type="int" name="ICHARG">     1</i>
    <i type="int" name="INIWAV">     1</i>
   </separator>
   <separator name="electronic spin" >
    <i type="int" name="ISPIN">     1</i>
    <i type="logical" name="LNONCOLLINEAR"> F  </i>
    <v name="MAGMOM">      1.00000000      1.00000000      1.00000000      1.00000000      1.00000000      1.00000000      1.00000000      1.00000000      1.00000000      1.00000000      1.00000000      1.00000000      1.00000000      1.00000000      1.00000000      1.00000000      1.00000000      1.00000000      1.00000000      1.00000000
      1.00000000      1.00000000      1.00000000      1.00000000      1.00000000      1.00000000      1.00000000      1.00000000      1.00000000      1.00000000      1.00000000      1.00000000      1.00000000      1.00000000      1.00000000      1.00000000      1.00000000      1.00000000      1.00000000      1.00000000
      1.00000000      1.00000000      1.00000000      1.00000000      1.00000000      1.00000000      1.00000000      1.00000000      1.00000000      1.00000000      1.00000000      1.00000000      1.00000000      1.00000000      1.00000000      1.00000000      1.00000000      1.00000000      1.00000000      1.00000000
      1.00000000      1.00000000      1.00000000      1.00000000      1.00000000      1.00000000      1.00000000      1.00000000      1.00000000      1.00000000      1.00000000      1.00000000      1.00000000      1.00000000      1.00000000      1.00000000      1.00000000      1.00000000      1.00000000      1.00000000
      1.00000000      1.00000000      1.00000000      1.00000000      1.00000000      1.00000000      1.00000000      1.00000000      1.00000000      1.00000000      1.00000000      1.00000000      1.00000000      1.00000000      1.00000000      1.00000000      1.00000000      1.00000000      1.00000000      1.00000000
      1.00000000      1.00000000      1.00000000      1.00000000      1.00000000      1.00000000      1.00000000      1.00000000      1.00000000      1.00000000      1.00000000      1.00000000      1.00000000      1.00000000      1.00000000      1.00000000      1.00000000      1.00000000      1.00000000      1.00000000
      1.00000000      1.00000000      1.00000000      1.00000000      1.00000000      1.00000000      1.00000000      1.00000000      1.00000000      1.00000000      1.00000000      1.00000000      1.00000000      1.00000000      1.00000000      1.00000000      1.00000000      1.00000000      1.00000000      1.00000000
      1.00000000      1.00000000      1.00000000      1.00000000      1.00000000      1.00000000      1.00000000      1.00000000      1.00000000      1.00000000      1.00000000      1.00000000      1.00000000      1.00000000      1.00000000      1.00000000      1.00000000      1.00000000      1.00000000      1.00000000
      1.00000000      1.00000000      1.00000000      1.00000000      1.00000000      1.00000000      1.00000000      1.00000000      1.00000000      1.00000000      1.00000000      1.00000000      1.00000000      1.00000000      1.00000000      1.00000000      1.00000000      1.00000000      1.00000000      1.00000000
      1.00000000      1.00000000      1.00000000      1.00000000      1.00000000      1.00000000      1.00000000      1.00000000      1.00000000      1.00000000      1.00000000      1.00000000      1.00000000      1.00000000      1.00000000      1.00000000      1.00000000      1.00000000      1.00000000      1.00000000
      1.00000000      1.00000000      1.00000000      1.00000000      1.00000000      1.00000000      1.00000000      1.00000000      1.00000000      1.00000000      1.00000000      1.00000000      1.00000000      1.00000000      1.00000000      1.00000000      1.00000000      1.00000000      1.00000000      1.00000000
      1.00000000      1.00000000      1.00000000      1.00000000      1.00000000      1.00000000      1.00000000      1.00000000      1.00000000      1.00000000      1.00000000      1.00000000      1.00000000      1.00000000      1.00000000      1.00000000      1.00000000      1.00000000      1.00000000      1.00000000
      1.00000000      1.00000000      1.00000000      1.00000000      1.00000000      1.00000000      1.00000000      1.00000000      1.00000000      1.00000000      1.00000000      1.00000000      1.00000000      1.00000000      1.00000000      1.00000000      1.00000000      1.00000000      1.00000000      1.00000000
      1.00000000      1.00000000      1.00000000      1.00000000      1.00000000      1.00000000      1.00000000      1.00000000      1.00000000      1.00000000      1.00000000      1.00000000      1.00000000      1.00000000      1.00000000      1.00000000      1.00000000      1.00000000      1.00000000      1.00000000
      1.00000000      1.00000000      1.00000000      1.00000000      1.00000000      1.00000000      1.00000000      1.00000000      1.00000000      1.00000000      1.00000000      1.00000000      1.00000000      1.00000000      1.00000000      1.00000000      1.00000000      1.00000000      1.00000000      1.00000000
      1.00000000      1.00000000      1.00000000      1.00000000      1.00000000      1.00000000      1.00000000      1.00000000      1.00000000      1.00000000      1.00000000      1.00000000      1.00000000      1.00000000      1.00000000      1.00000000      1.00000000      1.00000000      1.00000000      1.00000000
      1.00000000      1.00000000      1.00000000      1.00000000      1.00000000</v>
    <i name="NUPDOWN">     -1.00000000</i>
    <i type="logical" name="LSORBIT"> F  </i>
    <v name="SAXIS">      0.00000000      0.00000000      1.00000000</v>
    <i type="logical" name="LSPIRAL"> F  </i>
    <v name="QSPIRAL">      0.00000000      0.00000000      0.00000000</v>
    <i type="logical" name="LZEROZ"> F  </i>
   </separator>
   <separator name="electronic exchange-correlation" >
    <i type="logical" name="LASPH"> F  </i>
    <i type="logical" name="LMETAGGA"> F  </i>
   </separator>
   <separator name="electronic convergence" >
    <i type="int" name="NELM">   600</i>
    <i type="int" name="NELMDL">     0</i>
    <i type="int" name="NELMIN">     2</i>
    <i name="ENINI">    500.00000000</i>
    <separator name="electronic convergence detail" >
     <i type="logical" name="LDIAG"> T  </i>
     <i type="logical" name="LSUBROT"> F  </i>
     <i name="WEIMIN">      0.00000000</i>
     <i name="EBREAK">      0.00000003</i>
     <i name="DEPER">      0.30000000</i>
     <i type="int" name="NRMM">     4</i>
     <i name="TIME">      0.40000000</i>
    </separator>
   </separator>
   <separator name="electronic mixer" >
    <i name="AMIX">      0.40000000</i>
    <i name="BMIX">      0.01000000</i>
    <i name="AMIN">      0.01000000</i>
    <i name="AMIX_MAG">      1.60000000</i>
    <i name="BMIX_MAG">      0.01000000</i>
    <separator name="electronic mixer details" >
     <i type="int" name="IMIX">     4</i>
     <i type="logical" name="MIXFIRST"> F  </i>
     <i type="int" name="MAXMIX">   -45</i>
     <i name="WC">    100.00000000</i>
     <i type="int" name="INIMIX">     1</i>
     <i type="int" name="MIXPRE">     1</i>
     <i type="int" name="MREMOVE">     5</i>
    </separator>
   </separator>
   <separator name="electronic dipolcorrection" >
    <i type="logical" name="LDIPOL"> T  </i>
    <i type="logical" name="LMONO"> F  </i>
    <i type="int" name="IDIPOL">     3</i>
    <i name="EPSILON">      1.00000000</i>
    <v name="DIPOL">   -100.00000000   -100.00000000   -100.00000000</v>
    <i name="EFIELD">      0.00000000</i>
   </separator>
  </separator>
  <separator name="grids" >
   <i type="int" name="NGX">   100</i>
   <i type="int" name="NGY">   100</i>
   <i type="int" name="NGZ">   350</i>
   <i type="int" name="NGXF">   200</i>
   <i type="int" name="NGYF">   200</i>
   <i type="int" name="NGZF">   700</i>
   <i type="logical" name="ADDGRID"> F  </i>
  </separator>
  <separator name="ionic" >
   <i type="int" name="NSW">     0</i>
   <i type="int" name="IBRION">    -1</i>
   <i type="int" name="MDALGO">     0</i>
   <i type="int" name="ISIF">     2</i>
   <i name="PSTRESS">      0.00000000</i>
   <i name="EDIFFG">      0.00100000</i>
   <i type="int" name="NFREE">     0</i>
   <i name="POTIM">      0.50000000</i>
   <i name="SMASS">     -3.00000000</i>
   <i name="SCALEE">      1.00000000</i>
  </separator>
  <separator name="ionic md" >
   <i name="TEBEG">      0.00010000</i>
   <i name="TEEND">      0.00010000</i>
   <i type="int" name="NBLOCK">     1</i>
   <i type="int" name="KBLOCK">     1</i>
   <i type="int" name="NPACO">   256</i>
   <i name="APACO">     16.00000000</i>
  </separator>
  <separator name="symmetry" >
   <i type="int" name="ISYM">     0</i>
   <i name="SYMPREC">      0.00001000</i>
  </separator>
  <separator name="dos" >
   <i type="int" name="LORBIT">     0</i>
   <v name="RWIGS">     -1.00000000     -1.00000000     -1.00000000     -1.00000000     -1.00000000</v>
   <i type="int" name="NEDOS">   301</i>
   <i name="EMIN">     10.00000000</i>
   <i name="EMAX">    -10.00000000</i>
   <i name="EFERMI">      0.00000000</i>
  </separator>
  <separator name="writing" >
   <i type="int" name="NWRITE">     2</i>
   <i type="logical" name="LWAVE"> F  </i>
   <i type="logical" name="LDOWNSAMPLE"> F  </i>
   <i type="logical" name="LCHARG"> T  </i>
   <i type="logical" name="LPARD"> F  </i>
   <i type="logical" name="LVTOT"> T  </i>
   <i type="logical" name="LVHAR"> F  </i>
   <i type="logical" name="LELF"> F  </i>
   <i type="logical" name="LOPTICS"> F  </i>
   <v name="STM">      0.00000000      0.00000000      0.00000000      0.00000000      0.00000000      0.00000000      0.00000000</v>
  </separator>
  <separator name="performance" >
   <i type="int" name="NPAR">     4</i>
   <i type="int" name="NSIM">     4</i>
   <i type="int" name="NBLK">    -1</i>
   <i type="logical" name="LPLANE"> T  </i>
   <i type="logical" name="LSCALAPACK"> T  </i>
   <i type="logical" name="LSCAAWARE"> F  </i>
   <i type="logical" name="LSCALU"> F  </i>
   <i type="logical" name="LASYNC"> F  </i>
   <i type="logical" name="LORBITALREAL"> F  </i>
  </separator>
  <separator name="miscellaneous" >
   <i type="int" name="IDIOT">     3</i>
   <i type="int" name="PHON_NSTRUCT">    -1</i>
   <i type="logical" name="LMUSIC"> F  </i>
   <v name="POMASS">      1.00000000     12.01100000     14.00100000    126.90400000    207.20000000</v>
   <v name="DARWINR">      0.00000000      0.00000000      0.00000000      0.00000000      0.00000000</v>
   <v name="DARWINV">      1.00000000      1.00000000      1.00000000      1.00000000      1.00000000</v>
   <i type="logical" name="LCORR"> T  </i>
  </separator>
  <i type="logical" name="GGA_COMPAT"> F  </i>
  <i type="logical" name="LBERRY"> F  </i>
  <i type="int" name="ICORELEVEL">     0</i>
  <i type="logical" name="LDAU"> F  </i>
  <i type="int" name="I_CONSTRAINED_M">     0</i>
  <separator name="electronic exchange-correlation" >
   <i type="string" name="GGA">--</i>
   <i type="int" name="VOSKOWN">     0</i>
   <i type="logical" name="LHFCALC"> F  </i>
   <i type="string" name="PRECFOCK"></i>
   <i type="logical" name="LSYMGRAD"> F  </i>
   <i type="logical" name="LHFONE"> F  </i>
   <i type="logical" name="LRHFCALC"> F  </i>
   <i type="logical" name="LTHOMAS"> F  </i>
   <i type="logical" name="LMODELHF"> F  </i>
   <i type="logical" name="LFOCKACE"> F  </i>
   <i name="ENCUT4O">     -1.00000000</i>
   <i type="int" name="EXXOEP">     0</i>
   <i type="int" name="FOURORBIT">     0</i>
   <i name="AEXX">      0.00000000</i>
   <i name="HFALPHA">      0.00000000</i>
   <i name="MCALPHA">      0.00000000</i>
   <i name="ALDAX">      1.00000000</i>
   <i name="AGGAX">      1.00000000</i>
   <i name="ALDAC">      1.00000000</i>
   <i name="AGGAC">      1.00000000</i>
   <i type="int" name="NKREDX">     1</i>
   <i type="int" name="NKREDY">     1</i>
   <i type="int" name="NKREDZ">     1</i>
   <i type="logical" name="SHIFTRED"> F  </i>
   <i type="logical" name="ODDONLY"> F  </i>
   <i type="logical" name="EVENONLY"> F  </i>
   <i type="int" name="LMAXFOCK">     0</i>
   <i type="int" name="NMAXFOCKAE">     0</i>
   <i type="logical" name="LFOCKAEDFT"> F  </i>
   <i name="HFSCREEN">      0.00000000</i>
   <i name="HFSCREENC">      0.00000000</i>
   <i type="int" name="NBANDSGWLOW">     0</i>
  </separator>
  <separator name="vdW DFT" >
   <i type="logical" name="LUSE_VDW"> F  </i>
   <i name="Zab_VDW">     -0.84910000</i>
   <i name="PARAM1">      0.12340000</i>
   <i name="PARAM2">      1.00000000</i>
   <i name="PARAM3">      0.00000000</i>
  </separator>
  <separator name="model GW" >
   <i type="int" name="MODEL_GW">     0</i>
   <i name="MODEL_EPS0">     37.63423484</i>
   <i name="MODEL_ALPHA">      1.00000000</i>
  </separator>
  <separator name="linear response parameters" >
   <i type="logical" name="LEPSILON"> F  </i>
   <i type="logical" name="LRPA"> F  </i>
   <i type="logical" name="LNABLA"> F  </i>
   <i type="logical" name="LVEL"> F  </i>
   <i type="int" name="KINTER">     0</i>
   <i name="CSHIFT">      0.10000000</i>
   <i name="OMEGAMAX">     -1.00000000</i>
   <i name="DEG_THRESHOLD">      0.00200000</i>
   <i name="RTIME">     -0.10000000</i>
   <i name="WPLASMAI">      0.00000000</i>
   <v name="DFIELD">      0.00000000      0.00000000      0.00000000</v>
   <v name="WPLASMA">      0.00000000      0.00000000      0.00000000      0.00000000      0.00000000      0.00000000      0.00000000      0.00000000      0.00000000</v>
  </separator>
  <separator name="orbital magnetization" >
   <i type="logical" name="NUCIND"> F  </i>
   <v name="MAGPOS">      0.00000000      0.00000000      0.00000000</v>
   <i type="logical" name="LNICSALL"> T  </i>
   <i type="logical" name="ORBITALMAG"> F  </i>
   <i type="logical" name="LMAGBLOCH"> F  </i>
   <i type="logical" name="LCHIMAG"> F  </i>
   <i type="logical" name="LGAUGE"> T  </i>
   <i type="int" name="MAGATOM">     0</i>
   <v name="MAGDIPOL">      0.00000000      0.00000000      0.00000000</v>
   <v name="AVECCONST">      0.00000000      0.00000000      0.00000000</v>
  </separator>
  <separator name="response functions" >
   <i type="logical" name="LFINITE_TEMPERATURE"> F  </i>
   <i type="logical" name="LADDER"> F  </i>
   <i type="logical" name="LRPAFORCE"> F  </i>
   <i type="logical" name="LFXC"> F  </i>
   <i type="logical" name="LHARTREE"> T  </i>
   <i type="int" name="IBSE">     0</i>
   <v type="int" name="KPOINT">    -1     0     0     0</v>
   <i type="logical" name="LTCTC"> F  </i>
   <i type="logical" name="LTCTE"> F  </i>
   <i type="logical" name="LTETE"> F  </i>
   <i type="logical" name="LTRIPLET"> F  </i>
   <i type="logical" name="LFXCEPS"> F  </i>
   <i type="logical" name="LFXHEG"> F  </i>
   <i type="int" name="NATURALO">     2</i>
   <i type="logical" name="LHOLEGF"> F  </i>
   <i type="logical" name="L2ORDER"> F  </i>
   <i type="logical" name="LDMP1"> F  </i>
   <i type="logical" name="LMP2LT"> F  </i>
   <i type="logical" name="LSMP2LT"> F  </i>
   <i type="logical" name="LGWLF"> F  </i>
   <i name="ENCUTGW">     -2.00000000</i>
   <i name="ENCUTGWSOFT">     -2.00000000</i>
   <i name="ENCUTLF">     -1.00000000</i>
   <i type="logical" name="LESF_SPLINES"> F  </i>
   <i type="int" name="LMAXMP2">    -1</i>
   <i name="SCISSOR">      0.00000000</i>
   <i type="int" name="NOMEGA">     0</i>
   <i type="int" name="NOMEGAR">     0</i>
   <i type="int" name="NBANDSGW">    -1</i>
   <i type="int" name="NBANDSO">    -1</i>
   <i type="int" name="NBANDSV">    -1</i>
   <i type="int" name="NELM">   600</i>
   <i type="int" name="NELMHF">     1</i>
   <i type="int" name="DIM">     3</i>
   <i type="int" name="IESPILON">     4</i>
   <i type="int" name="ANTIRES">     0</i>
   <i name="OMEGAMAX">    -30.00000000</i>
   <i name="OMEGAMIN">    -30.00000000</i>
   <i name="OMEGATL">   -200.00000000</i>
   <i type="int" name="OMEGAGRID">     0</i>
   <i name="CSHIFT">     -0.10000000</i>
   <i type="logical" name="LSELFENERGY"> F  </i>
   <i type="logical" name="LSPECTRAL"> F  </i>
   <i type="logical" name="LSPECTRALGW"> F  </i>
   <i type="logical" name="LSINGLES"> F  </i>
   <i type="logical" name="LFERMIGW"> F  </i>
   <i type="logical" name="ODDONLYGW"> F  </i>
   <i type="logical" name="EVENONLYGW"> F  </i>
   <i type="int" name="NKREDLFX">     1</i>
   <i type="int" name="NKREDLFY">     1</i>
   <i type="int" name="NKREDLFZ">     1</i>
   <i type="int" name="MAXMEM">  2800</i>
   <i type="int" name="TELESCOPE">     0</i>
   <i type="int" name="NTAUPAR">    -1</i>
   <i type="int" name="NOMEGAPAR">    -1</i>
   <i name="DAMP_NEWTON">      0.80000001</i>
   <i name="LAMBDA">      1.00000000</i>
  </separator>
  <separator name="External order field" >
   <i name="OFIELD_KAPPA">      0.00000000</i>
   <v name="OFIELD_K">      0.00000000      0.00000000      0.00000000</v>
   <i name="OFIELD_Q6_NEAR">      0.00000000</i>
   <i name="OFIELD_Q6_FAR">      0.00000000</i>
   <i name="OFIELD_A">      0.00000000</i>
  </separator>
 </parameters>
 <atominfo>
  <atoms>     325 </atoms>
  <types>       5 </types>
  <array name="atoms" >
   <dimension dim="1">ion</dimension>
   <field type="string">element</field>
   <field type="int">atomtype</field>
   <set>
    <rc><c>H </c><c>   1</c></rc>
    <rc><c>H </c><c>   1</c></rc>
    <rc><c>H </c><c>   1</c></rc>
    <rc><c>H </c><c>   1</c></rc>
    <rc><c>H </c><c>   1</c></rc>
    <rc><c>H </c><c>   1</c></rc>
    <rc><c>H </c><c>   1</c></rc>
    <rc><c>H </c><c>   1</c></rc>
    <rc><c>H </c><c>   1</c></rc>
    <rc><c>H </c><c>   1</c></rc>
    <rc><c>H </c><c>   1</c></rc>
    <rc><c>H </c><c>   1</c></rc>
    <rc><c>H </c><c>   1</c></rc>
    <rc><c>H </c><c>   1</c></rc>
    <rc><c>H </c><c>   1</c></rc>
    <rc><c>H </c><c>   1</c></rc>
    <rc><c>H </c><c>   1</c></rc>
    <rc><c>H </c><c>   1</c></rc>
    <rc><c>H </c><c>   1</c></rc>
    <rc><c>H </c><c>   1</c></rc>
    <rc><c>H </c><c>   1</c></rc>
    <rc><c>H </c><c>   1</c></rc>
    <rc><c>H </c><c>   1</c></rc>
    <rc><c>H </c><c>   1</c></rc>
    <rc><c>H </c><c>   1</c></rc>
    <rc><c>H </c><c>   1</c></rc>
    <rc><c>H </c><c>   1</c></rc>
    <rc><c>H </c><c>   1</c></rc>
    <rc><c>H </c><c>   1</c></rc>
    <rc><c>H </c><c>   1</c></rc>
    <rc><c>H </c><c>   1</c></rc>
    <rc><c>H </c><c>   1</c></rc>
    <rc><c>H </c><c>   1</c></rc>
    <rc><c>H </c><c>   1</c></rc>
    <rc><c>H </c><c>   1</c></rc>
    <rc><c>H </c><c>   1</c></rc>
    <rc><c>H </c><c>   1</c></rc>
    <rc><c>H </c><c>   1</c></rc>
    <rc><c>H </c><c>   1</c></rc>
    <rc><c>H </c><c>   1</c></rc>
    <rc><c>H </c><c>   1</c></rc>
    <rc><c>H </c><c>   1</c></rc>
    <rc><c>H </c><c>   1</c></rc>
    <rc><c>H </c><c>   1</c></rc>
    <rc><c>H </c><c>   1</c></rc>
    <rc><c>H </c><c>   1</c></rc>
    <rc><c>H </c><c>   1</c></rc>
    <rc><c>H </c><c>   1</c></rc>
    <rc><c>H </c><c>   1</c></rc>
    <rc><c>H </c><c>   1</c></rc>
    <rc><c>H </c><c>   1</c></rc>
    <rc><c>H </c><c>   1</c></rc>
    <rc><c>H </c><c>   1</c></rc>
    <rc><c>H </c><c>   1</c></rc>
    <rc><c>H </c><c>   1</c></rc>
    <rc><c>H </c><c>   1</c></rc>
    <rc><c>H </c><c>   1</c></rc>
    <rc><c>H </c><c>   1</c></rc>
    <rc><c>H </c><c>   1</c></rc>
    <rc><c>H </c><c>   1</c></rc>
    <rc><c>H </c><c>   1</c></rc>
    <rc><c>H </c><c>   1</c></rc>
    <rc><c>H </c><c>   1</c></rc>
    <rc><c>H </c><c>   1</c></rc>
    <rc><c>H </c><c>   1</c></rc>
    <rc><c>H </c><c>   1</c></rc>
    <rc><c>H </c><c>   1</c></rc>
    <rc><c>H </c><c>   1</c></rc>
    <rc><c>H </c><c>   1</c></rc>
    <rc><c>H </c><c>   1</c></rc>
    <rc><c>H </c><c>   1</c></rc>
    <rc><c>H </c><c>   1</c></rc>
    <rc><c>H </c><c>   1</c></rc>
    <rc><c>H </c><c>   1</c></rc>
    <rc><c>H </c><c>   1</c></rc>
    <rc><c>H </c><c>   1</c></rc>
    <rc><c>H </c><c>   1</c></rc>
    <rc><c>H </c><c>   1</c></rc>
    <rc><c>H </c><c>   1</c></rc>
    <rc><c>H </c><c>   1</c></rc>
    <rc><c>H </c><c>   1</c></rc>
    <rc><c>H </c><c>   1</c></rc>
    <rc><c>H </c><c>   1</c></rc>
    <rc><c>H </c><c>   1</c></rc>
    <rc><c>H </c><c>   1</c></rc>
    <rc><c>H </c><c>   1</c></rc>
    <rc><c>H </c><c>   1</c></rc>
    <rc><c>H </c><c>   1</c></rc>
    <rc><c>H </c><c>   1</c></rc>
    <rc><c>H </c><c>   1</c></rc>
    <rc><c>H </c><c>   1</c></rc>
    <rc><c>H </c><c>   1</c></rc>
    <rc><c>H </c><c>   1</c></rc>
    <rc><c>H </c><c>   1</c></rc>
    <rc><c>H </c><c>   1</c></rc>
    <rc><c>H </c><c>   1</c></rc>
    <rc><c>H </c><c>   1</c></rc>
    <rc><c>H </c><c>   1</c></rc>
    <rc><c>H </c><c>   1</c></rc>
    <rc><c>H </c><c>   1</c></rc>
    <rc><c>H </c><c>   1</c></rc>
    <rc><c>H </c><c>   1</c></rc>
    <rc><c>H </c><c>   1</c></rc>
    <rc><c>H </c><c>   1</c></rc>
    <rc><c>H </c><c>   1</c></rc>
    <rc><c>H </c><c>   1</c></rc>
    <rc><c>H </c><c>   1</c></rc>
    <rc><c>H </c><c>   1</c></rc>
    <rc><c>H </c><c>   1</c></rc>
    <rc><c>H </c><c>   1</c></rc>
    <rc><c>H </c><c>   1</c></rc>
    <rc><c>H </c><c>   1</c></rc>
    <rc><c>H </c><c>   1</c></rc>
    <rc><c>H </c><c>   1</c></rc>
    <rc><c>H </c><c>   1</c></rc>
    <rc><c>H </c><c>   1</c></rc>
    <rc><c>H </c><c>   1</c></rc>
    <rc><c>H </c><c>   1</c></rc>
    <rc><c>H </c><c>   1</c></rc>
    <rc><c>H </c><c>   1</c></rc>
    <rc><c>H </c><c>   1</c></rc>
    <rc><c>H </c><c>   1</c></rc>
    <rc><c>H </c><c>   1</c></rc>
    <rc><c>H </c><c>   1</c></rc>
    <rc><c>H </c><c>   1</c></rc>
    <rc><c>H </c><c>   1</c></rc>
    <rc><c>H </c><c>   1</c></rc>
    <rc><c>H </c><c>   1</c></rc>
    <rc><c>H </c><c>   1</c></rc>
    <rc><c>H </c><c>   1</c></rc>
    <rc><c>H </c><c>   1</c></rc>
    <rc><c>H </c><c>   1</c></rc>
    <rc><c>H </c><c>   1</c></rc>
    <rc><c>H </c><c>   1</c></rc>
    <rc><c>H </c><c>   1</c></rc>
    <rc><c>H </c><c>   1</c></rc>
    <rc><c>H </c><c>   1</c></rc>
    <rc><c>H </c><c>   1</c></rc>
    <rc><c>H </c><c>   1</c></rc>
    <rc><c>H </c><c>   1</c></rc>
    <rc><c>H </c><c>   1</c></rc>
    <rc><c>H </c><c>   1</c></rc>
    <rc><c>H </c><c>   1</c></rc>
    <rc><c>C </c><c>   2</c></rc>
    <rc><c>C </c><c>   2</c></rc>
    <rc><c>C </c><c>   2</c></rc>
    <rc><c>C </c><c>   2</c></rc>
    <rc><c>C </c><c>   2</c></rc>
    <rc><c>C </c><c>   2</c></rc>
    <rc><c>C </c><c>   2</c></rc>
    <rc><c>C </c><c>   2</c></rc>
    <rc><c>C </c><c>   2</c></rc>
    <rc><c>C </c><c>   2</c></rc>
    <rc><c>C </c><c>   2</c></rc>
    <rc><c>C </c><c>   2</c></rc>
    <rc><c>C </c><c>   2</c></rc>
    <rc><c>C </c><c>   2</c></rc>
    <rc><c>C </c><c>   2</c></rc>
    <rc><c>C </c><c>   2</c></rc>
    <rc><c>C </c><c>   2</c></rc>
    <rc><c>C </c><c>   2</c></rc>
    <rc><c>C </c><c>   2</c></rc>
    <rc><c>C </c><c>   2</c></rc>
    <rc><c>C </c><c>   2</c></rc>
    <rc><c>C </c><c>   2</c></rc>
    <rc><c>C </c><c>   2</c></rc>
    <rc><c>C </c><c>   2</c></rc>
    <rc><c>C </c><c>   2</c></rc>
    <rc><c>C </c><c>   2</c></rc>
    <rc><c>C </c><c>   2</c></rc>
    <rc><c>C </c><c>   2</c></rc>
    <rc><c>C </c><c>   2</c></rc>
    <rc><c>C </c><c>   2</c></rc>
    <rc><c>C </c><c>   2</c></rc>
    <rc><c>C </c><c>   2</c></rc>
    <rc><c>C </c><c>   2</c></rc>
    <rc><c>C </c><c>   2</c></rc>
    <rc><c>C </c><c>   2</c></rc>
    <rc><c>C </c><c>   2</c></rc>
    <rc><c>C </c><c>   2</c></rc>
    <rc><c>C </c><c>   2</c></rc>
    <rc><c>C </c><c>   2</c></rc>
    <rc><c>N </c><c>   3</c></rc>
    <rc><c>N </c><c>   3</c></rc>
    <rc><c>N </c><c>   3</c></rc>
    <rc><c>N </c><c>   3</c></rc>
    <rc><c>N </c><c>   3</c></rc>
    <rc><c>N </c><c>   3</c></rc>
    <rc><c>N </c><c>   3</c></rc>
    <rc><c>N </c><c>   3</c></rc>
    <rc><c>N </c><c>   3</c></rc>
    <rc><c>N </c><c>   3</c></rc>
    <rc><c>N </c><c>   3</c></rc>
    <rc><c>N </c><c>   3</c></rc>
    <rc><c>N </c><c>   3</c></rc>
    <rc><c>N </c><c>   3</c></rc>
    <rc><c>N </c><c>   3</c></rc>
    <rc><c>N </c><c>   3</c></rc>
    <rc><c>N </c><c>   3</c></rc>
    <rc><c>N </c><c>   3</c></rc>
    <rc><c>N </c><c>   3</c></rc>
    <rc><c>N </c><c>   3</c></rc>
    <rc><c>N </c><c>   3</c></rc>
    <rc><c>N </c><c>   3</c></rc>
    <rc><c>N </c><c>   3</c></rc>
    <rc><c>N </c><c>   3</c></rc>
    <rc><c>N </c><c>   3</c></rc>
    <rc><c>N </c><c>   3</c></rc>
    <rc><c>N </c><c>   3</c></rc>
    <rc><c>N </c><c>   3</c></rc>
    <rc><c>N </c><c>   3</c></rc>
    <rc><c>N </c><c>   3</c></rc>
    <rc><c>N </c><c>   3</c></rc>
    <rc><c>N </c><c>   3</c></rc>
    <rc><c>N </c><c>   3</c></rc>
    <rc><c>N </c><c>   3</c></rc>
    <rc><c>N </c><c>   3</c></rc>
    <rc><c>N </c><c>   3</c></rc>
    <rc><c>N </c><c>   3</c></rc>
    <rc><c>N </c><c>   3</c></rc>
    <rc><c>N </c><c>   3</c></rc>
    <rc><c>N </c><c>   3</c></rc>
    <rc><c>N </c><c>   3</c></rc>
    <rc><c>N </c><c>   3</c></rc>
    <rc><c>N </c><c>   3</c></rc>
    <rc><c>N </c><c>   3</c></rc>
    <rc><c>N </c><c>   3</c></rc>
    <rc><c>N </c><c>   3</c></rc>
    <rc><c>N </c><c>   3</c></rc>
    <rc><c>I </c><c>   4</c></rc>
    <rc><c>I </c><c>   4</c></rc>
    <rc><c>I </c><c>   4</c></rc>
    <rc><c>I </c><c>   4</c></rc>
    <rc><c>I </c><c>   4</c></rc>
    <rc><c>I </c><c>   4</c></rc>
    <rc><c>I </c><c>   4</c></rc>
    <rc><c>I </c><c>   4</c></rc>
    <rc><c>I </c><c>   4</c></rc>
    <rc><c>I </c><c>   4</c></rc>
    <rc><c>I </c><c>   4</c></rc>
    <rc><c>I </c><c>   4</c></rc>
    <rc><c>I </c><c>   4</c></rc>
    <rc><c>I </c><c>   4</c></rc>
    <rc><c>I </c><c>   4</c></rc>
    <rc><c>I </c><c>   4</c></rc>
    <rc><c>I </c><c>   4</c></rc>
    <rc><c>I </c><c>   4</c></rc>
    <rc><c>I </c><c>   4</c></rc>
    <rc><c>I </c><c>   4</c></rc>
    <rc><c>I </c><c>   4</c></rc>
    <rc><c>I </c><c>   4</c></rc>
    <rc><c>I </c><c>   4</c></rc>
    <rc><c>I </c><c>   4</c></rc>
    <rc><c>I </c><c>   4</c></rc>
    <rc><c>I </c><c>   4</c></rc>
    <rc><c>I </c><c>   4</c></rc>
    <rc><c>I </c><c>   4</c></rc>
    <rc><c>I </c><c>   4</c></rc>
    <rc><c>I </c><c>   4</c></rc>
    <rc><c>I </c><c>   4</c></rc>
    <rc><c>I </c><c>   4</c></rc>
    <rc><c>I </c><c>   4</c></rc>
    <rc><c>I </c><c>   4</c></rc>
    <rc><c>I </c><c>   4</c></rc>
    <rc><c>I </c><c>   4</c></rc>
    <rc><c>I </c><c>   4</c></rc>
    <rc><c>I </c><c>   4</c></rc>
    <rc><c>I </c><c>   4</c></rc>
    <rc><c>I </c><c>   4</c></rc>
    <rc><c>I </c><c>   4</c></rc>
    <rc><c>I </c><c>   4</c></rc>
    <rc><c>I </c><c>   4</c></rc>
    <rc><c>I </c><c>   4</c></rc>
    <rc><c>I </c><c>   4</c></rc>
    <rc><c>I </c><c>   4</c></rc>
    <rc><c>I </c><c>   4</c></rc>
    <rc><c>I </c><c>   4</c></rc>
    <rc><c>I </c><c>   4</c></rc>
    <rc><c>I </c><c>   4</c></rc>
    <rc><c>I </c><c>   4</c></rc>
    <rc><c>I </c><c>   4</c></rc>
    <rc><c>I </c><c>   4</c></rc>
    <rc><c>I </c><c>   4</c></rc>
    <rc><c>I </c><c>   4</c></rc>
    <rc><c>I </c><c>   4</c></rc>
    <rc><c>I </c><c>   4</c></rc>
    <rc><c>I </c><c>   4</c></rc>
    <rc><c>I </c><c>   4</c></rc>
    <rc><c>I </c><c>   4</c></rc>
    <rc><c>I </c><c>   4</c></rc>
    <rc><c>I </c><c>   4</c></rc>
    <rc><c>I </c><c>   4</c></rc>
    <rc><c>I </c><c>   4</c></rc>
    <rc><c>I </c><c>   4</c></rc>
    <rc><c>I </c><c>   4</c></rc>
    <rc><c>I </c><c>   4</c></rc>
    <rc><c>I </c><c>   4</c></rc>
    <rc><c>I </c><c>   4</c></rc>
    <rc><c>I </c><c>   4</c></rc>
    <rc><c>I </c><c>   4</c></rc>
    <rc><c>I </c><c>   4</c></rc>
    <rc><c>Pb</c><c>   5</c></rc>
    <rc><c>Pb</c><c>   5</c></rc>
    <rc><c>Pb</c><c>   5</c></rc>
    <rc><c>Pb</c><c>   5</c></rc>
    <rc><c>Pb</c><c>   5</c></rc>
    <rc><c>Pb</c><c>   5</c></rc>
    <rc><c>Pb</c><c>   5</c></rc>
    <rc><c>Pb</c><c>   5</c></rc>
    <rc><c>Pb</c><c>   5</c></rc>
    <rc><c>Pb</c><c>   5</c></rc>
    <rc><c>Pb</c><c>   5</c></rc>
    <rc><c>Pb</c><c>   5</c></rc>
    <rc><c>Pb</c><c>   5</c></rc>
    <rc><c>Pb</c><c>   5</c></rc>
    <rc><c>Pb</c><c>   5</c></rc>
    <rc><c>Pb</c><c>   5</c></rc>
    <rc><c>Pb</c><c>   5</c></rc>
    <rc><c>Pb</c><c>   5</c></rc>
    <rc><c>Pb</c><c>   5</c></rc>
    <rc><c>Pb</c><c>   5</c></rc>
    <rc><c>Pb</c><c>   5</c></rc>
    <rc><c>Pb</c><c>   5</c></rc>
    <rc><c>Pb</c><c>   5</c></rc>
    <rc><c>Pb</c><c>   5</c></rc>
   </set>
  </array>
  <array name="atomtypes" >
   <dimension dim="1">type</dimension>
   <field type="int">atomspertype</field>
   <field type="string">element</field>
   <field>mass</field>
   <field>valence</field>
   <field type="string">pseudopotential</field>
   <set>
    <rc><c> 143</c><c>H </c><c>      1.00000000</c><c>      1.00000000</c><c>  PAW_PBE H 15Jun2001                   </c></rc>
    <rc><c>  39</c><c>C </c><c>     12.01100000</c><c>      4.00000000</c><c>  PAW_PBE C 08Apr2002                   </c></rc>
    <rc><c>  47</c><c>N </c><c>     14.00100000</c><c>      5.00000000</c><c>  PAW_PBE N 08Apr2002                   </c></rc>
    <rc><c>  72</c><c>I </c><c>    126.90400000</c><c>      7.00000000</c><c>  PAW_PBE I 08Apr2002                   </c></rc>
    <rc><c>  24</c><c>Pb</c><c>    207.20000000</c><c>      4.00000000</c><c>  PAW_PBE Pb 08Apr2002                  </c></rc>
   </set>
  </array>
 </atominfo>
 <structure name="initialpos" >
  <crystal>
   <varray name="basis" >
    <v>      18.06080055       0.00000000       0.00000000 </v>
    <v>      -0.00491865      18.06279945       0.00000000 </v>
    <v>       0.00000000       0.00000000      62.48749924 </v>
   </varray>
   <i name="volume">  20385.21054034 </i>
   <varray name="rec_basis" >
    <v>       0.05536853       0.00001508      -0.00000000 </v>
    <v>       0.00000000       0.05536240       0.00000000 </v>
    <v>       0.00000000      -0.00000000       0.01600320 </v>
   </varray>
  </crystal>
  <varray name="positions" >
   <v>       0.45385657       0.30015853       0.58014643 </v>
   <v>       0.44574597       0.80687646       0.58122807 </v>
   <v>       0.95438071       0.28702175       0.58510110 </v>
   <v>       0.96238181       0.80467991       0.58483945 </v>
   <v>       0.30399164       0.04871131       0.58054825 </v>
   <v>       0.30277728       0.54763995       0.58191797 </v>
   <v>       0.79535103       0.05346402       0.58072455 </v>
   <v>       0.08745805       0.17126430       0.55537237 </v>
   <v>       0.07731567       0.67077401       0.55611935 </v>
   <v>       0.58546285       0.17932841       0.55587827 </v>
   <v>       0.56914354       0.66867979       0.56135831 </v>
   <v>       0.33403757       0.07536751       0.55540320 </v>
   <v>       0.33183682       0.57753221       0.55696186 </v>
   <v>       0.82827277       0.07983663       0.55583395 </v>
   <v>       0.05770619       0.19714641       0.58096105 </v>
   <v>       0.05397632       0.69996496       0.58120609 </v>
   <v>       0.55717072       0.20902546       0.57986213 </v>
   <v>       0.53707257       0.70804153       0.58466760 </v>
   <v>       0.20013822       0.44950618       0.58184727 </v>
   <v>       0.19824373       0.95380977       0.58113387 </v>
   <v>       0.70102675       0.94748276       0.58070947 </v>
   <v>       0.41663173       0.32139588       0.55642056 </v>
   <v>       0.42283656       0.83572407       0.55608608 </v>
   <v>       0.91798748       0.32126666       0.56121045 </v>
   <v>       0.93083656       0.84039656       0.56107102 </v>
   <v>       0.16915231       0.42202946       0.55685662 </v>
   <v>       0.16652938       0.92510436       0.55632789 </v>
   <v>       0.67858687       0.91175059       0.55580831 </v>
   <v>       0.49911025       0.25163169       0.53767254 </v>
   <v>       0.50097557       0.74848653       0.53935727 </v>
   <v>       0.99774463       0.25119616       0.53927699 </v>
   <v>       0.99936022       0.75766657       0.53916631 </v>
   <v>       0.24696881       0.50110722       0.53959761 </v>
   <v>       0.25022790       0.99998486       0.53855370 </v>
   <v>       0.75666859       0.99089113       0.53857653 </v>
   <v>       0.44766943       0.30233725       0.67543325 </v>
   <v>       0.45115976       0.79775528       0.67556157 </v>
   <v>       0.94834214       0.30831229       0.67246733 </v>
   <v>       0.94725611       0.80319403       0.67402147 </v>
   <v>       0.30135081       0.05224679       0.67493364 </v>
   <v>       0.29858629       0.55113558       0.67517240 </v>
   <v>       0.80275181       0.05790056       0.67411847 </v>
   <v>       0.80363962       0.54523316       0.67497625 </v>
   <v>       0.07141083       0.16899377       0.65066524 </v>
   <v>       0.07391631       0.66865091       0.65000153 </v>
   <v>       0.57982148       0.17584437       0.64947780 </v>
   <v>       0.57668179       0.67048442       0.64639815 </v>
   <v>       0.16763376       0.42187534       0.64982632 </v>
   <v>       0.17157507       0.92028198       0.65025500 </v>
   <v>       0.66413264       0.42964521       0.64903161 </v>
   <v>       0.67015967       0.92412103       0.65160158 </v>
   <v>       0.04168176       0.20256434       0.67502765 </v>
   <v>       0.04874895       0.69836752       0.67481319 </v>
   <v>       0.55429378       0.20072198       0.67498419 </v>
   <v>       0.55201859       0.69400109       0.67352540 </v>
   <v>       0.19397992       0.44907482       0.67515945 </v>
   <v>       0.19886423       0.94804291       0.67545114 </v>
   <v>       0.69615165       0.45193725       0.67531226 </v>
   <v>       0.69866842       0.95556952       0.67631899 </v>
   <v>       0.42176131       0.33148906       0.65024694 </v>
   <v>       0.42152699       0.82994921       0.65103726 </v>
   <v>       0.92432769       0.33561818       0.64517561 </v>
   <v>       0.91851944       0.82685532       0.64843957 </v>
   <v>       0.32717271       0.07847253       0.64947066 </v>
   <v>       0.32647530       0.57683745       0.64984629 </v>
   <v>       0.82569124       0.08036442       0.64826168 </v>
   <v>       0.83157442       0.57930690       0.64936084 </v>
   <v>       0.00061770       0.24894386       0.63032389 </v>
   <v>       0.99148380       0.74348801       0.63152170 </v>
   <v>       0.50463825       0.25607902       0.63211911 </v>
   <v>       0.49682953       0.75370268       0.63111665 </v>
   <v>       0.24840499       0.00173419       0.63208987 </v>
   <v>       0.24798701       0.49590781       0.63207821 </v>
   <v>       0.74764735       0.00130249       0.63214817 </v>
   <v>       0.74386367       0.51088900       0.63288263 </v>
   <v>       0.44874502       0.30128397       0.76888902 </v>
   <v>       0.44874501       0.80128391       0.76888902 </v>
   <v>       0.94874497       0.30128397       0.76888902 </v>
   <v>       0.94874501       0.80128391       0.76888902 </v>
   <v>       0.30127600       0.05129450       0.76887296 </v>
   <v>       0.30127601       0.55129450       0.76887296 </v>
   <v>       0.80127594       0.05129450       0.76887296 </v>
   <v>       0.80127598       0.55129450       0.76887296 </v>
   <v>       0.07877100       0.17118050       0.74344197 </v>
   <v>       0.07877101       0.67118045       0.74344197 </v>
   <v>       0.57877100       0.17118050       0.74344197 </v>
   <v>       0.57877099       0.67118045       0.74344197 </v>
   <v>       0.17119950       0.42117448       0.74342103 </v>
   <v>       0.17119950       0.92117451       0.74342103 </v>
   <v>       0.67119951       0.42117448       0.74342103 </v>
   <v>       0.67119950       0.92117451       0.74342103 </v>
   <v>       0.05125600       0.19871499       0.76888902 </v>
   <v>       0.05125600       0.69871493       0.76888902 </v>
   <v>       0.55125603       0.19871499       0.76888902 </v>
   <v>       0.55125602       0.69871493       0.76888902 </v>
   <v>       0.19872349       0.44870397       0.76887205 </v>
   <v>       0.19872349       0.94870397       0.76887205 </v>
   <v>       0.69872352       0.44870397       0.76887205 </v>
   <v>       0.69872351       0.94870397       0.76887205 </v>
   <v>       0.42123152       0.32881747       0.74344197 </v>
   <v>       0.42123151       0.82881744       0.74344197 </v>
   <v>       0.92123147       0.32881747       0.74344197 </v>
   <v>       0.92123151       0.82881744       0.74344197 </v>
   <v>       0.32880050       0.07882500       0.74342103 </v>
   <v>       0.32880049       0.57882496       0.74342103 </v>
   <v>       0.82880048       0.07882500       0.74342103 </v>
   <v>       0.82880052       0.57882496       0.74342103 </v>
   <v>       0.00000350       0.25000148       0.72582199 </v>
   <v>       0.00000350       0.75000145       0.72582199 </v>
   <v>       0.50000351       0.25000148       0.72582199 </v>
   <v>       0.50000350       0.75000145       0.72582199 </v>
   <v>       0.25000050       0.00000000       0.72580398 </v>
   <v>       0.25000052       0.50000000       0.72580398 </v>
   <v>       0.75000050       0.00000000       0.72580398 </v>
   <v>       0.75000049       0.50000000       0.72580398 </v>
   <v>       0.72630663       0.46795623       0.55110303 </v>
   <v>       0.75006093       0.51639284       0.52882586 </v>
   <v>       0.65871575       0.56290276       0.56692369 </v>
   <v>       0.70012341       0.64808826       0.56863259 </v>
   <v>       0.84348183       0.53062642       0.58293837 </v>
   <v>       0.77066890       0.59128036       0.59096586 </v>
   <v>       0.88293731       0.57635303       0.54875044 </v>
   <v>       0.81718728       0.63797771       0.53664438 </v>
   <v>       0.87962096       0.49811750       0.53288020 </v>
   <v>       0.86647249       0.45754384       0.55833763 </v>
   <v>       0.89560013       0.35879645       0.53475057 </v>
   <v>       0.80299947       0.35713237       0.54476210 </v>
   <v>       0.63577448       0.57092194       0.53003283 </v>
   <v>       0.71316934       0.63033715       0.52542620 </v>
   <v>       0.63540665       0.66828898       0.53594264 </v>
   <v>       0.74095814       0.48134757       0.60519160 </v>
   <v>       0.75527407       0.43109908       0.58194068 </v>
   <v>       0.67971908       0.49032556       0.58426505 </v>
   <v>       0.82951493       0.68402286       0.57815305 </v>
   <v>       0.86843360       0.72175542       0.55644620 </v>
   <v>       0.91908982       0.65943106       0.57200424 </v>
   <v>       0.85127541       0.41172562       0.50085060 </v>
   <v>       0.81961103       0.31907254       0.50555067 </v>
   <v>       0.68355444       0.34016546       0.53153386 </v>
   <v>       0.76686312       0.48344686       0.48290075 </v>
   <v>       0.56226945       0.38845804       0.52719474 </v>
   <v>       0.63870209       0.53148734       0.47751940 </v>
   <v>       0.53640283       0.48649752       0.50013168 </v>
   <v>       0.00022023       0.24872834       0.55696284 </v>
   <v>       0.00287864       0.75772459       0.55687933 </v>
   <v>       0.50047734       0.25067198       0.55513539 </v>
   <v>       0.49769975       0.75219541       0.55700649 </v>
   <v>       0.25005102       0.49940112       0.55632941 </v>
   <v>       0.25070185       0.00061167       0.55528178 </v>
   <v>       0.75314346       0.99528601       0.55524857 </v>
   <v>       0.99795010       0.25221254       0.64747496 </v>
   <v>       0.99574549       0.74805865       0.64863517 </v>
   <v>       0.50038757       0.25414187       0.64928630 </v>
   <v>       0.49821287       0.75116823       0.64829336 </v>
   <v>       0.24664076       0.49891876       0.64925956 </v>
   <v>       0.24978046       0.99978909       0.64928282 </v>
   <v>       0.74841448       0.50483094       0.64954605 </v>
   <v>       0.74956592       0.00211464       0.64934515 </v>
   <v>       0.49998898       0.24999498       0.74327702 </v>
   <v>       0.49998903       0.74999496       0.74327702 </v>
   <v>       0.99998898       0.24999498       0.74327702 </v>
   <v>       0.99998903       0.74999496       0.74327702 </v>
   <v>       0.25000050       0.00000100       0.74325596 </v>
   <v>       0.25000052       0.50000100       0.74325596 </v>
   <v>       0.75000050       0.00000100       0.74325596 </v>
   <v>       0.75000049       0.50000100       0.74325596 </v>
   <v>       0.73429869       0.40682792       0.50776587 </v>
   <v>       0.67508846       0.37899580       0.51954557 </v>
   <v>       0.72008377       0.46246485       0.49244643 </v>
   <v>       0.60558485       0.40594366       0.51619816 </v>
   <v>       0.64873420       0.48634139       0.48923689 </v>
   <v>       0.59179298       0.46137737       0.50177312 </v>
   <v>       0.77066602       0.50102992       0.54379779 </v>
   <v>       0.69514264       0.60127439       0.55824776 </v>
   <v>       0.78445323       0.54405108       0.58118601 </v>
   <v>       0.83684521       0.61322742       0.55187039 </v>
   <v>       0.84144101       0.46369952       0.54257068 </v>
   <v>       0.83950156       0.38661218       0.53335204 </v>
   <v>       0.66640029       0.61753138       0.53636344 </v>
   <v>       0.73606451       0.48328113       0.58802209 </v>
   <v>       0.86656941       0.67187986       0.56540068 </v>
   <v>       0.81376982       0.37752892       0.51115045 </v>
   <v>       0.05094219       0.20348005       0.56487476 </v>
   <v>       0.04595737       0.70542689       0.56483404 </v>
   <v>       0.54994487       0.20900668       0.56440048 </v>
   <v>       0.53849205       0.70654910       0.56842546 </v>
   <v>       0.45411929       0.29345573       0.56466696 </v>
   <v>       0.45391555       0.80117225       0.56489277 </v>
   <v>       0.95516909       0.28865085       0.56873283 </v>
   <v>       0.96369875       0.80355802       0.56796266 </v>
   <v>       0.20453513       0.45509397       0.56587899 </v>
   <v>       0.20309477       0.95802164       0.56512090 </v>
   <v>       0.70890127       0.94971734       0.56479314 </v>
   <v>       0.29823510       0.04336283       0.56460628 </v>
   <v>       0.29691171       0.54339998       0.56593332 </v>
   <v>       0.79398135       0.04511307       0.56479516 </v>
   <v>       0.03968773       0.20487923       0.65872617 </v>
   <v>       0.04288072       0.70297475       0.65880181 </v>
   <v>       0.54701932       0.20681087       0.65885828 </v>
   <v>       0.54547097       0.70551516       0.65674616 </v>
   <v>       0.20325121       0.45387424       0.65873197 </v>
   <v>       0.20372951       0.95299904       0.65898727 </v>
   <v>       0.70101316       0.45906721       0.65884589 </v>
   <v>       0.70309437       0.95771457       0.65979481 </v>
   <v>       0.45464651       0.29783313       0.65897500 </v>
   <v>       0.45516600       0.79478167       0.65899069 </v>
   <v>       0.95416498       0.30177660       0.65566874 </v>
   <v>       0.95458488       0.79646063       0.65860188 </v>
   <v>       0.29469941       0.04544726       0.65852765 </v>
   <v>       0.29032447       0.54536305       0.65872642 </v>
   <v>       0.79547825       0.04851203       0.65784111 </v>
   <v>       0.79763130       0.54559657       0.65859016 </v>
   <v>       0.04586250       0.20411950       0.75272599 </v>
   <v>       0.04586250       0.70411946       0.75272599 </v>
   <v>       0.54586251       0.20411950       0.75272599 </v>
   <v>       0.54586250       0.70411946       0.75272599 </v>
   <v>       0.20411900       0.45410100       0.75270499 </v>
   <v>       0.20411899       0.95410095       0.75270499 </v>
   <v>       0.70411898       0.45410100       0.75270499 </v>
   <v>       0.70411896       0.95410095       0.75270499 </v>
   <v>       0.45414002       0.29588849       0.75272697 </v>
   <v>       0.45414001       0.79588852       0.75272697 </v>
   <v>       0.95414002       0.29588849       0.75272697 </v>
[...]
   <v>       0.58546285       0.17932841       0.55587827 </v>
   <v>       0.56914354       0.66867979       0.56135831 </v>
   <v>       0.33403757       0.07536751       0.55540320 </v>
   <v>       0.33183682       0.57753221       0.55696186 </v>
   <v>       0.82827277       0.07983663       0.55583395 </v>
   <v>       0.05770619       0.19714641       0.58096105 </v>
   <v>       0.05397632       0.69996496       0.58120609 </v>
   <v>       0.55717072       0.20902546       0.57986213 </v>
   <v>       0.53707257       0.70804153       0.58466760 </v>
   <v>       0.20013822       0.44950618       0.58184727 </v>
   <v>       0.19824373       0.95380977       0.58113387 </v>
   <v>       0.70102675       0.94748276       0.58070947 </v>
   <v>       0.41663173       0.32139588       0.55642056 </v>
   <v>       0.42283656       0.83572407       0.55608608 </v>
   <v>       0.91798748       0.32126666       0.56121045 </v>
   <v>       0.93083656       0.84039656       0.56107102 </v>
   <v>       0.16915231       0.42202946       0.55685662 </v>
   <v>       0.16652938       0.92510436       0.55632789 </v>
   <v>       0.67858687       0.91175059       0.55580831 </v>
   <v>       0.49911025       0.25163169       0.53767254 </v>
   <v>       0.50097557       0.74848653       0.53935727 </v>
   <v>       0.99774463       0.25119616       0.53927699 </v>
   <v>       0.99936022       0.75766657       0.53916631 </v>
   <v>       0.24696881       0.50110722       0.53959761 </v>
   <v>       0.25022790       0.99998486       0.53855370 </v>
   <v>       0.75666859       0.99089113       0.53857653 </v>
   <v>       0.44766943       0.30233725       0.67543325 </v>
   <v>       0.45115976       0.79775528       0.67556157 </v>
   <v>       0.94834214       0.30831229       0.67246733 </v>
   <v>       0.94725611       0.80319403       0.67402147 </v>
   <v>       0.30135081       0.05224679       0.67493364 </v>
   <v>       0.29858629       0.55113558       0.67517240 </v>
   <v>       0.80275181       0.05790056       0.67411847 </v>
   <v>       0.80363962       0.54523316       0.67497625 </v>
   <v>       0.07141083       0.16899377       0.65066524 </v>
   <v>       0.07391631       0.66865091       0.65000153 </v>
   <v>       0.57982148       0.17584437       0.64947780 </v>
   <v>       0.57668179       0.67048442       0.64639815 </v>
   <v>       0.16763376       0.42187534       0.64982632 </v>
   <v>       0.17157507       0.92028198       0.65025500 </v>
   <v>       0.66413264       0.42964521       0.64903161 </v>
   <v>       0.67015967       0.92412103       0.65160158 </v>
   <v>       0.04168176       0.20256434       0.67502765 </v>
   <v>       0.04874895       0.69836752       0.67481319 </v>
   <v>       0.55429378       0.20072198       0.67498419 </v>
   <v>       0.55201859       0.69400109       0.67352540 </v>
   <v>       0.19397992       0.44907482       0.67515945 </v>
   <v>       0.19886423       0.94804291       0.67545114 </v>
   <v>       0.69615165       0.45193725       0.67531226 </v>
   <v>       0.69866842       0.95556952       0.67631899 </v>
   <v>       0.42176131       0.33148906       0.65024694 </v>
   <v>       0.42152699       0.82994921       0.65103726 </v>
   <v>       0.92432769       0.33561818       0.64517561 </v>
   <v>       0.91851944       0.82685532       0.64843957 </v>
   <v>       0.32717271       0.07847253       0.64947066 </v>
   <v>       0.32647530       0.57683745       0.64984629 </v>
   <v>       0.82569124       0.08036442       0.64826168 </v>
   <v>       0.83157442       0.57930690       0.64936084 </v>
   <v>       0.00061770       0.24894386       0.63032389 </v>
   <v>       0.99148380       0.74348801       0.63152170 </v>
   <v>       0.50463825       0.25607902       0.63211911 </v>
   <v>       0.49682953       0.75370268       0.63111665 </v>
   <v>       0.24840499       0.00173419       0.63208987 </v>
   <v>       0.24798701       0.49590781       0.63207821 </v>
   <v>       0.74764735       0.00130249       0.63214817 </v>
   <v>       0.74386367       0.51088900       0.63288263 </v>
   <v>       0.44874502       0.30128397       0.76888902 </v>
   <v>       0.44874501       0.80128391       0.76888902 </v>
   <v>       0.94874497       0.30128397       0.76888902 </v>
   <v>       0.94874501       0.80128391       0.76888902 </v>
   <v>       0.30127600       0.05129450       0.76887296 </v>
   <v>       0.30127601       0.55129450       0.76887296 </v>
   <v>       0.80127594       0.05129450       0.76887296 </v>
   <v>       0.80127598       0.55129450       0.76887296 </v>
   <v>       0.07877100       0.17118050       0.74344197 </v>
   <v>       0.07877101       0.67118045       0.74344197 </v>
   <v>       0.57877100       0.17118050       0.74344197 </v>
   <v>       0.57877099       0.67118045       0.74344197 </v>
   <v>       0.17119950       0.42117448       0.74342103 </v>
   <v>       0.17119950       0.92117451       0.74342103 </v>
   <v>       0.67119951       0.42117448       0.74342103 </v>
   <v>       0.67119950       0.92117451       0.74342103 </v>
   <v>       0.05125600       0.19871499       0.76888902 </v>
   <v>       0.05125600       0.69871493       0.76888902 </v>
   <v>       0.55125603       0.19871499       0.76888902 </v>
   <v>       0.55125602       0.69871493       0.76888902 </v>
   <v>       0.19872349       0.44870397       0.76887205 </v>
   <v>       0.19872349       0.94870397       0.76887205 </v>
   <v>       0.69872352       0.44870397       0.76887205 </v>
   <v>       0.69872351       0.94870397       0.76887205 </v>
   <v>       0.42123152       0.32881747       0.74344197 </v>
   <v>       0.42123151       0.82881744       0.74344197 </v>
   <v>       0.92123147       0.32881747       0.74344197 </v>
   <v>       0.92123151       0.82881744       0.74344197 </v>
   <v>       0.32880050       0.07882500       0.74342103 </v>
   <v>       0.32880049       0.57882496       0.74342103 </v>
   <v>       0.82880048       0.07882500       0.74342103 </v>
   <v>       0.82880052       0.57882496       0.74342103 </v>
   <v>       0.00000350       0.25000148       0.72582199 </v>
   <v>       0.00000350       0.75000145       0.72582199 </v>
   <v>       0.50000351       0.25000148       0.72582199 </v>
   <v>       0.50000350       0.75000145       0.72582199 </v>
   <v>       0.25000050       0.00000000       0.72580398 </v>
   <v>       0.25000052       0.50000000       0.72580398 </v>
   <v>       0.75000050       0.00000000       0.72580398 </v>
   <v>       0.75000049       0.50000000       0.72580398 </v>
   <v>       0.72630663       0.46795623       0.55110303 </v>
   <v>       0.75006093       0.51639284       0.52882586 </v>
   <v>       0.65871575       0.56290276       0.56692369 </v>
   <v>       0.70012341       0.64808826       0.56863259 </v>
   <v>       0.84348183       0.53062642       0.58293837 </v>
   <v>       0.77066890       0.59128036       0.59096586 </v>
   <v>       0.88293731       0.57635303       0.54875044 </v>
   <v>       0.81718728       0.63797771       0.53664438 </v>
   <v>       0.87962096       0.49811750       0.53288020 </v>
   <v>       0.86647249       0.45754384       0.55833763 </v>
   <v>       0.89560013       0.35879645       0.53475057 </v>
   <v>       0.80299947       0.35713237       0.54476210 </v>
   <v>       0.63577448       0.57092194       0.53003283 </v>
   <v>       0.71316934       0.63033715       0.52542620 </v>
   <v>       0.63540665       0.66828898       0.53594264 </v>
   <v>       0.74095814       0.48134757       0.60519160 </v>
   <v>       0.75527407       0.43109908       0.58194068 </v>
   <v>       0.67971908       0.49032556       0.58426505 </v>
   <v>       0.82951493       0.68402286       0.57815305 </v>
   <v>       0.86843360       0.72175542       0.55644620 </v>
   <v>       0.91908982       0.65943106       0.57200424 </v>
   <v>       0.85127541       0.41172562       0.50085060 </v>
   <v>       0.81961103       0.31907254       0.50555067 </v>
   <v>       0.68355444       0.34016546       0.53153386 </v>
   <v>       0.76686312       0.48344686       0.48290075 </v>
   <v>       0.56226945       0.38845804       0.52719474 </v>
   <v>       0.63870209       0.53148734       0.47751940 </v>
   <v>       0.53640283       0.48649752       0.50013168 </v>
   <v>       0.00022023       0.24872834       0.55696284 </v>
   <v>       0.00287864       0.75772459       0.55687933 </v>
   <v>       0.50047734       0.25067198       0.55513539 </v>
   <v>       0.49769975       0.75219541       0.55700649 </v>
   <v>       0.25005102       0.49940112       0.55632941 </v>
   <v>       0.25070185       0.00061167       0.55528178 </v>
   <v>       0.75314346       0.99528601       0.55524857 </v>
   <v>       0.99795010       0.25221254       0.64747496 </v>
   <v>       0.99574549       0.74805865       0.64863517 </v>
   <v>       0.50038757       0.25414187       0.64928630 </v>
   <v>       0.49821287       0.75116823       0.64829336 </v>
   <v>       0.24664076       0.49891876       0.64925956 </v>
   <v>       0.24978046       0.99978909       0.64928282 </v>
   <v>       0.74841448       0.50483094       0.64954605 </v>
   <v>       0.74956592       0.00211464       0.64934515 </v>
   <v>       0.49998898       0.24999498       0.74327702 </v>
   <v>       0.49998903       0.74999496       0.74327702 </v>
   <v>       0.99998898       0.24999498       0.74327702 </v>
   <v>       0.99998903       0.74999496       0.74327702 </v>
   <v>       0.25000050       0.00000100       0.74325596 </v>
   <v>       0.25000052       0.50000100       0.74325596 </v>
   <v>       0.75000050       0.00000100       0.74325596 </v>
   <v>       0.75000049       0.50000100       0.74325596 </v>
   <v>       0.73429869       0.40682792       0.50776587 </v>
   <v>       0.67508846       0.37899580       0.51954557 </v>
   <v>       0.72008377       0.46246485       0.49244643 </v>
   <v>       0.60558485       0.40594366       0.51619816 </v>
   <v>       0.64873420       0.48634139       0.48923689 </v>
   <v>       0.59179298       0.46137737       0.50177312 </v>
   <v>       0.77066602       0.50102992       0.54379779 </v>
   <v>       0.69514264       0.60127439       0.55824776 </v>
   <v>       0.78445323       0.54405108       0.58118601 </v>
   <v>       0.83684521       0.61322742       0.55187039 </v>
   <v>       0.84144101       0.46369952       0.54257068 </v>
   <v>       0.83950156       0.38661218       0.53335204 </v>
   <v>       0.66640029       0.61753138       0.53636344 </v>
   <v>       0.73606451       0.48328113       0.58802209 </v>
   <v>       0.86656941       0.67187986       0.56540068 </v>
   <v>       0.81376982       0.37752892       0.51115045 </v>
   <v>       0.05094219       0.20348005       0.56487476 </v>
   <v>       0.04595737       0.70542689       0.56483404 </v>
   <v>       0.54994487       0.20900668       0.56440048 </v>
   <v>       0.53849205       0.70654910       0.56842546 </v>
   <v>       0.45411929       0.29345573       0.56466696 </v>
   <v>       0.45391555       0.80117225       0.56489277 </v>
   <v>       0.95516909       0.28865085       0.56873283 </v>
   <v>       0.96369875       0.80355802       0.56796266 </v>
   <v>       0.20453513       0.45509397       0.56587899 </v>
   <v>       0.20309477       0.95802164       0.56512090 </v>
   <v>       0.70890127       0.94971734       0.56479314 </v>
   <v>       0.29823510       0.04336283       0.56460628 </v>
   <v>       0.29691171       0.54339998       0.56593332 </v>
   <v>       0.79398135       0.04511307       0.56479516 </v>
   <v>       0.03968773       0.20487923       0.65872617 </v>
   <v>       0.04288072       0.70297475       0.65880181 </v>
   <v>       0.54701932       0.20681087       0.65885828 </v>
   <v>       0.54547097       0.70551516       0.65674616 </v>
   <v>       0.20325121       0.45387424       0.65873197 </v>
   <v>       0.20372951       0.95299904       0.65898727 </v>
   <v>       0.70101316       0.45906721       0.65884589 </v>
   <v>       0.70309437       0.95771457       0.65979481 </v>
   <v>       0.45464651       0.29783313       0.65897500 </v>
   <v>       0.45516600       0.79478167       0.65899069 </v>
   <v>       0.95416498       0.30177660       0.65566874 </v>
   <v>       0.95458488       0.79646063       0.65860188 </v>
   <v>       0.29469941       0.04544726       0.65852765 </v>
   <v>       0.29032447       0.54536305       0.65872642 </v>
   <v>       0.79547825       0.04851203       0.65784111 </v>
   <v>       0.79763130       0.54559657       0.65859016 </v>
   <v>       0.04586250       0.20411950       0.75272599 </v>
   <v>       0.04586250       0.70411946       0.75272599 </v>
   <v>       0.54586251       0.20411950       0.75272599 </v>
   <v>       0.54586250       0.70411946       0.75272599 </v>
   <v>       0.20411900       0.45410100       0.75270499 </v>
   <v>       0.20411899       0.95410095       0.75270499 </v>
   <v>       0.70411898       0.45410100       0.75270499 </v>
   <v>       0.70411896       0.95410095       0.75270499 </v>
   <v>       0.45414002       0.29588849       0.75272697 </v>
   <v>       0.45414001       0.79588852       0.75272697 </v>
   <v>       0.95414002       0.29588849       0.75272697 </v>
   <v>       0.95414006       0.79588852       0.75272697 </v>
   <v>       0.29588249       0.04590050       0.75270499 </v>
   <v>       0.29588248       0.54590053       0.75270499 </v>
   <v>       0.79588244       0.04590050       0.75270499 </v>
   <v>       0.79588248       0.54590053       0.75270499 </v>
   <v>       0.77394836       0.56878553       0.55976559 </v>
   <v>       0.49360167       0.99875867       0.55304018 </v>
   <v>       0.49390465       0.50596498       0.55357953 </v>
   <v>       0.99912968       0.99849920       0.55244576 </v>
   <v>       0.00653908       0.50602834       0.55381463 </v>
   <v>       0.24903275       0.25586144       0.55383306 </v>
   <v>       0.24838091       0.74366620       0.55166057 </v>
   <v>       0.74416372       0.24358709       0.55381744 </v>
   <v>       0.74335918       0.75654013       0.55001846 </v>
   <v>       0.99402791       0.99895298       0.65470236 </v>
   <v>       0.00228154       0.49344986       0.65428419 </v>
   <v>       0.50085950       0.99462451       0.65453607 </v>
   <v>       0.49411448       0.50088357       0.65443107 </v>
   <v>       0.24913725       0.24899164       0.65425928 </v>
   <v>       0.25114840       0.75093111       0.65430085 </v>
   <v>       0.75619854       0.25093998       0.65433565 </v>
   <v>       0.74897180       0.75098053       0.65330285 </v>
   <v>       0.14221816       0.10591906       0.60701203 </v>
   <v>       0.13977122       0.60788614       0.60687211 </v>
   <v>       0.64204949       0.10576249       0.60677426 </v>
   <v>       0.63653387       0.61329368       0.60932268 </v>
   <v>       0.35772315       0.39400236       0.60696210 </v>
   <v>       0.35777910       0.88679032       0.60697699 </v>
   <v>       0.86329577       0.38671970       0.60929832 </v>
   <v>       0.85475472       0.89077264       0.60689635 </v>
   <v>       0.11346102       0.35781967       0.60701893 </v>
   <v>       0.10593833       0.85467770       0.60674691 </v>
   <v>       0.60044456       0.35178642       0.60602142 </v>
   <v>       0.60886144       0.85471545       0.60658812 </v>
   <v>       0.39402375       0.14209099       0.60700099 </v>
   <v>       0.39211538       0.64418329       0.60696814 </v>
   <v>       0.89423808       0.14188761       0.60699928 </v>
   <v>       0.89961585       0.64694884       0.60936388 </v>
   <v>       0.00000000       0.00000000       0.75492797 </v>
   <v>       0.00000000       0.50000000       0.75492797 </v>
   <v>       0.50000000       0.00000000       0.75492797 </v>
   <v>       0.49999999       0.50000000       0.75492797 </v>
   <v>       0.25000050       0.25000000       0.75493902 </v>
   <v>       0.25000051       0.74999997       0.75493902 </v>
   <v>       0.75000047       0.25000000       0.75493902 </v>
   <v>       0.75000046       0.74999997       0.75493902 </v>
   <v>       0.13579050       0.11421000       0.70478299 </v>
   <v>       0.13579050       0.61420998       0.70478299 </v>
   <v>       0.63579045       0.11421000       0.70478299 </v>
   <v>       0.63579049       0.61420998       0.70478299 </v>
   <v>       0.36420952       0.38578999       0.70478299 </v>
   <v>       0.36420950       0.88578996       0.70478299 </v>
   <v>       0.86420954       0.38578999       0.70478299 </v>
   <v>       0.86420953       0.88578996       0.70478299 </v>
   <v>       0.11421799       0.36421899       0.70478098 </v>
   <v>       0.11421799       0.86421899       0.70478098 </v>
   <v>       0.61421800       0.36421899       0.70478098 </v>
   <v>       0.61421799       0.86421899       0.70478098 </v>
   <v>       0.38578201       0.13578149       0.70478202 </v>
   <v>       0.38578200       0.63578149       0.70478202 </v>
   <v>       0.88578199       0.13578149       0.70478202 </v>
   <v>       0.88578203       0.63578149       0.70478202 </v>
   <v>       0.13466700       0.11533200       0.80125603 </v>
   <v>       0.13466699       0.61533199       0.80125603 </v>
   <v>       0.63466699       0.11533200       0.80125603 </v>
   <v>       0.63466698       0.61533199       0.80125603 </v>
   <v>       0.36533300       0.38466799       0.80125603 </v>
   <v>       0.36533299       0.88466796       0.80125603 </v>
   <v>       0.86533295       0.38466799       0.80125603 </v>
   <v>       0.86533294       0.88466796       0.80125603 </v>
   <v>       0.11532850       0.36533700       0.80126500 </v>
   <v>       0.11532850       0.86533698       0.80126500 </v>
   <v>       0.61532850       0.36533700       0.80126500 </v>
   <v>       0.61532849       0.86533698       0.80126500 </v>
   <v>       0.38467151       0.13466300       0.80126500 </v>
   <v>       0.38467150       0.63466297       0.80126500 </v>
   <v>       0.88467149       0.13466300       0.80126500 </v>
   <v>       0.88467153       0.63466297       0.80126500 </v>
   <v>       0.00096772       0.00108380       0.60268964 </v>
   <v>       0.00221750       0.49898887       0.60406687 </v>
   <v>       0.49910707       0.00129468       0.60253091 </v>
   <v>       0.49911649       0.49868159       0.60195762 </v>
   <v>       0.24907958       0.25109663       0.60380351 </v>
   <v>       0.25093561       0.74903531       0.60265991 </v>
   <v>       0.74791095       0.25104389       0.60365504 </v>
   <v>       0.74374487       0.75639583       0.60401186 </v>
   <v>       0.00000050       0.00000050       0.70482896 </v>
   <v>       0.00000050       0.50000048       0.70482896 </v>
   <v>       0.50000048       0.00000050       0.70482896 </v>
   <v>       0.50000046       0.50000048       0.70482896 </v>
   <v>       0.24999999       0.24999947       0.70482499 </v>
   <v>       0.25000001       0.74999950       0.70482499 </v>
   <v>       0.74999999       0.24999947       0.70482499 </v>
   <v>       0.74999998       0.74999950       0.70482499 </v>
   <v>       0.00000000       0.00000000       0.80731797 </v>
   <v>       0.00000000       0.50000000       0.80731797 </v>
   <v>       0.50000000       0.00000000       0.80731797 </v>
   <v>       0.49999999       0.50000000       0.80731797 </v>
   <v>       0.24999999       0.25000000       0.80731797 </v>
   <v>       0.25000001       0.74999997       0.80731797 </v>
   <v>       0.74999999       0.25000000       0.80731797 </v>
   <v>       0.74999998       0.74999997       0.80731797 </v>
  </varray>
 </structure>
</modeling>
