 vasp.6.2.1 16May21 (build Nov 15 2021 14:57:28) complex                         
 executed on             LinuxPGI date 2023.07.24  21:22:12
 running on    4 total cores
 distrk:  each k-point on    4 cores,    1 groups
 distr:  one band on NCORE=   1 cores,    4 groups


--------------------------------------------------------------------------------------------------------


 INCAR:
   SYSTEM = PSC
   ISTART = 1
   ICHARG = 1
   PREC = Normal
   ENCUT = 500
   GGA_COMPAT = F
   NELM = 600
   ISYM = 0
   LREAL = Auto
   ISMEAR = 0
   SIGMA = 0.05
   AMIN = 0.01
   BMIX = 0.01
   LVTOT = T
   LWAVE = F
   LDIPOL = T
   IDIPOL = 3
   LVDW = T
   IVDW = 12

 POTCAR:    PAW_PBE H 15Jun2001                   
 POTCAR:    PAW_PBE C 08Apr2002                   
 POTCAR:    PAW_PBE N 08Apr2002                   
 POTCAR:    PAW_PBE I 08Apr2002                   
 POTCAR:    PAW_PBE Pb 08Apr2002                  
 WARNING: For LVTOT=.TRUE., VASP.5.x writes the TOTAL local potential to the
     file LOCPOT. If you want only the Hartree contributions, use LVHAR=.TRUE.
     instead. 

 POTCAR:    PAW_PBE H 15Jun2001                   
   SHA256 =  030f79b5d3ab3cf0e668861823c8fb652ff669f3e15e46930bd03bfd63a607b6 H/POTCAR              
   COPYR  = (c) Copyright 15Jun2001 Georg Kresse                                                    
   COPYR  = This file is part of the software VASP. Any use, copying, and all other rights are regul
   COPYR  = If you do not have a valid VASP license, you may not use, copy or distribute this file. 
   VRHFIN =H: ultrasoft test                                                                        
   LEXCH  = PE                                                                                      
   EATOM  =    12.4884 eV,    0.9179 Ry                                                             
                                                                                                    
   TITEL  = PAW_PBE H 15Jun2001                                                                     
   LULTRA =        F    use ultrasoft PP ?                                                          
   IUNSCR =        0    unscreen: 0-lin 1-nonlin 2-no                                               
   RPACOR =    0.000    partial core radius                                                         
   POMASS =    1.000; ZVAL   =    1.000    mass and valenz                                          
   RCORE  =    1.100    outmost cutoff radius                                                       
   RWIGS  =    0.700; RWIGS  =    0.370    wigner-seitz radius (au A)                               
   ENMAX  =  250.000; ENMIN  =  200.000 eV                                                          
   RCLOC  =    0.701    cutoff for local pot                                                        
   LCOR   =        T    correct aug charges                                                         
   LPAW   =        T    paw PP                                                                      
   EAUG   =  400.000                                                                                
   RMAX   =    1.123    core radius for proj-oper                                                   
   RAUG   =    1.200    factor for augmentation sphere                                              
   RDEP   =    1.112    radius for radial grids                                                     
   RDEPT  =    0.926    core radius for aug-charge                                                  
                                                                                                    
   Atomic configuration                                                                             
    2 entries                                                                                       
     n  l   j            E        occ.                                                              
     1  0  0.50        -6.4927   1.0000                                                             
     2  1  0.50        -3.4015   0.0000                                                             
   Description                                                                                      
     l       E           TYP  RCUT    TYP  RCUT                                                     
     0     -6.4927494     23  1.100                                                                 
     0      6.8029130     23  1.100                                                                 
     1     -4.0817478     23  1.100                                                                 
  local pseudopotential read in
  atomic valenz-charges read in
  non local Contribution for L=            0  read in
    real space projection operators read in
  non local Contribution for L=            0  read in
    real space projection operators read in
  non local Contribution for L=            1  read in
    real space projection operators read in
    PAW grid and wavefunctions read in
 
   number of l-projection  operators is LMAX  =            3
   number of lm-projection operators is LMMAX =            5
 
 POTCAR:    PAW_PBE C 08Apr2002                   
   SHA256 =  253f7b50bb8d59471dbedb8285d89021f4a42ed1a2c5d38a03a736e69125dd95 C/POTCAR              
   COPYR  = (c) Copyright 08Apr2002 Georg Kresse                                                    
   COPYR  = This file is part of the software VASP. Any use, copying, and all other rights are regul
   COPYR  = If you do not have a valid VASP license, you may not use, copy or distribute this file. 
   VRHFIN =C: s2p2                                                                                  
   LEXCH  = PE                                                                                      
   EATOM  =   147.1560 eV,   10.8157 Ry                                                             
                                                                                                    
   TITEL  = PAW_PBE C 08Apr2002                                                                     
   LULTRA =        F    use ultrasoft PP ?                                                          
   IUNSCR =        1    unscreen: 0-lin 1-nonlin 2-no                                               
   RPACOR =    1.200    partial core radius                                                         
   POMASS =   12.011; ZVAL   =    4.000    mass and valenz                                          
   RCORE  =    1.500    outmost cutoff radius                                                       
   RWIGS  =    1.630; RWIGS  =    0.863    wigner-seitz radius (au A)                               
   ENMAX  =  400.000; ENMIN  =  300.000 eV                                                          
   ICORE  =        2    local potential                                                             
   LCOR   =        T    correct aug charges                                                         
   LPAW   =        T    paw PP                                                                      
   EAUG   =  644.873                                                                                
   DEXC   =    0.000                                                                                
   RMAX   =    1.529    core radius for proj-oper                                                   
   RAUG   =    1.300    factor for augmentation sphere                                              
   RDEP   =    1.501    radius for radial grids                                                     
   RDEPT  =    1.300    core radius for aug-charge                                                  
                                                                                                    
   Atomic configuration                                                                             
    4 entries                                                                                       
     n  l   j            E        occ.                                                              
     1  0  0.50      -273.3789   2.0000                                                             
     2  0  0.50       -13.7508   2.0000                                                             
     2  1  0.50        -5.2854   2.0000                                                             
     3  2  1.50        -5.4423   0.0000                                                             
   Description                                                                                      
     l       E           TYP  RCUT    TYP  RCUT                                                     
     0    -13.7508458     23  1.200                                                                 
     0     -8.2022199     23  1.200                                                                 
     1     -5.2854383     23  1.500                                                                 
     1     34.0145650     23  1.500                                                                 
     2     -5.4423304      7  1.500                                                                 
  local pseudopotential read in
  partial core-charges read in
  partial kinetic energy density read in
  atomic valenz-charges read in
  non local Contribution for L=            0  read in
    real space projection operators read in
  non local Contribution for L=            0  read in
    real space projection operators read in
  non local Contribution for L=            1  read in
    real space projection operators read in
  non local Contribution for L=            1  read in
    real space projection operators read in
    PAW grid and wavefunctions read in
 
   number of l-projection  operators is LMAX  =            4
   number of lm-projection operators is LMMAX =            8
 
 POTCAR:    PAW_PBE N 08Apr2002                   
   SHA256 =  e053789ff3a61a86a1b75d8a110fcc91f86041011e7b0817c7c99e4e8a6349d7 N/POTCAR              
   COPYR  = (c) Copyright 08Apr2002 Georg Kresse                                                    
   COPYR  = This file is part of the software VASP. Any use, copying, and all other rights are regul
   COPYR  = If you do not have a valid VASP license, you may not use, copy or distribute this file. 
   VRHFIN =N: s2p3                                                                                  
   LEXCH  = PE                                                                                      
   EATOM  =   264.5486 eV,   19.4438 Ry                                                             
                                                                                                    
   TITEL  = PAW_PBE N 08Apr2002                                                                     
   LULTRA =        F    use ultrasoft PP ?                                                          
   IUNSCR =        1    unscreen: 0-lin 1-nonlin 2-no                                               
   RPACOR =    1.200    partial core radius                                                         
   POMASS =   14.001; ZVAL   =    5.000    mass and valenz                                          
   RCORE  =    1.500    outmost cutoff radius                                                       
   RWIGS  =    1.400; RWIGS  =    0.741    wigner-seitz radius (au A)                               
   ENMAX  =  400.000; ENMIN  =  300.000 eV                                                          
   ICORE  =        2    local potential                                                             
   LCOR   =        T    correct aug charges                                                         
   LPAW   =        T    paw PP                                                                      
   EAUG   =  627.112                                                                                
   DEXC   =    0.000                                                                                
   RMAX   =    1.529    core radius for proj-oper                                                   
   RAUG   =    1.300    factor for augmentation sphere                                              
   RDEP   =    1.514    radius for radial grids                                                     
   RDEPT  =    1.338    core radius for aug-charge                                                  
                                                                                                    
   Atomic configuration                                                                             
    4 entries                                                                                       
     n  l   j            E        occ.                                                              
     1  0  0.50      -384.7179   2.0000                                                             
     2  0  0.50       -18.5828   2.0000                                                             
     2  1  0.50        -7.0898   3.0000                                                             
     3  2  1.50        -6.8029   0.0000                                                             
   Description                                                                                      
     l       E           TYP  RCUT    TYP  RCUT                                                     
     0    -18.5828119     23  1.200                                                                 
     0    -13.5018863     23  1.200                                                                 
     1     -7.0897853     23  1.500                                                                 
     1      9.5240782     23  1.500                                                                 
     2     -6.8029130      7  1.500                                                                 
  local pseudopotential read in
  partial core-charges read in
  partial kinetic energy density read in
  atomic valenz-charges read in
  non local Contribution for L=            0  read in
    real space projection operators read in
  non local Contribution for L=            0  read in
    real space projection operators read in
  non local Contribution for L=            1  read in
    real space projection operators read in
  non local Contribution for L=            1  read in
    real space projection operators read in
    PAW grid and wavefunctions read in
 
   number of l-projection  operators is LMAX  =            4
   number of lm-projection operators is LMMAX =            8
 
 POTCAR:    PAW_PBE I 08Apr2002                   
   SHA256 =  e40f3f59b681c1fc3e3091736183c4589116986673d2b852a5012aec72758799 I/POTCAR              
   COPYR  = (c) Copyright 08Apr2002 Georg Kresse                                                    
   COPYR  = This file is part of the software VASP. Any use, copying, and all other rights are regul
   COPYR  = If you do not have a valid VASP license, you may not use, copy or distribute this file. 
   VRHFIN =I : s2p5                                                                                 
   LEXCH  = PE                                                                                      
   EATOM  =   315.8678 eV,   23.2156 Ry                                                             
                                                                                                    
   TITEL  = PAW_PBE I 08Apr2002                                                                     
   LULTRA =        F    use ultrasoft PP ?                                                          
   IUNSCR =        1    unscreen: 0-lin 1-nonlin 2-no                                               
   RPACOR =    2.200    partial core radius                                                         
   POMASS =  126.904; ZVAL   =    7.000    mass and valenz                                          
   RCORE  =    2.300    outmost cutoff radius                                                       
   RWIGS  =    2.810; RWIGS  =    1.487    wigner-seitz radius (au A)                               
   ENMAX  =  175.647; ENMIN  =  131.735 eV                                                          
   ICORE  =        3    local potential                                                             
   LCOR   =        T    correct aug charges                                                         
   LPAW   =        T    paw PP                                                                      
   EAUG   =  370.139                                                                                
   DEXC   =    0.000                                                                                
   RMAX   =    2.359    core radius for proj-oper                                                   
   RAUG   =    1.300    factor for augmentation sphere                                              
   RDEP   =    2.392    radius for radial grids                                                     
   RDEPT  =    2.170    core radius for aug-charge                                                  
                                                                                                    
   Atomic configuration                                                                             
   13 entries                                                                                       
     n  l   j            E        occ.                                                              
     1  0  0.50    -32976.3739   2.0000                                                             
     2  0  0.50     -5094.5933   2.0000                                                             
     2  1  1.50     -4572.0131   6.0000                                                             
     3  0  0.50     -1028.2813   2.0000                                                             
     3  1  1.50      -859.0250   6.0000                                                             
     3  2  2.50      -605.7620  10.0000                                                             
     4  0  0.50      -180.5540   2.0000                                                             
     4  1  1.50      -127.5306   6.0000                                                             
     4  2  2.50       -50.2720  10.0000                                                             
     5  0  0.50       -17.4058   2.0000                                                             
     5  1  0.50        -7.0851   5.0000                                                             
     5  2  1.50        -7.0750   0.0000                                                             
     4  3  2.50        -7.0750   0.0000                                                             
   Description                                                                                      
     l       E           TYP  RCUT    TYP  RCUT                                                     
     0    -17.4058016     23  2.300                                                                 
     0    -18.7663842     23  2.300                                                                 
     1     -7.0850686     23  2.300                                                                 
     1     -4.2150896     23  2.300                                                                 
     2     -7.0750295     23  2.300                                                                 
     3     -1.3605826     23  2.300                                                                 
  local pseudopotential read in
  partial core-charges read in
  partial kinetic energy density read in
  atomic valenz-charges read in
  non local Contribution for L=            0  read in
    real space projection operators read in
  non local Contribution for L=            0  read in
    real space projection operators read in
  non local Contribution for L=            1  read in
    real space projection operators read in
  non local Contribution for L=            1  read in
    real space projection operators read in
  non local Contribution for L=            2  read in
    real space projection operators read in
    PAW grid and wavefunctions read in
 
   number of l-projection  operators is LMAX  =            5
   number of lm-projection operators is LMMAX =           13
 
 POTCAR:    PAW_PBE Pb 08Apr2002                  
   SHA256 =  797118a27cf1bcd06b9881c67a26cdde129e3cd1a551dd4a281f9681ce847303 Pb/POTCAR             
   COPYR  = (c) Copyright 08Apr2002 Georg Kresse                                                    
   COPYR  = This file is part of the software VASP. Any use, copying, and all other rights are regul
   COPYR  = If you do not have a valid VASP license, you may not use, copy or distribute this file. 
   VRHFIN =Pb:                                                                                      
   LEXCH  = PE                                                                                      
   EATOM  =    96.9868 eV,    7.1283 Ry                                                             
                                                                                                    
   TITEL  = PAW_PBE Pb 08Apr2002                                                                    
   LULTRA =        F    use ultrasoft PP ?                                                          
   IUNSCR =        1    unscreen: 0-lin 1-nonlin 2-no                                               
   RPACOR =    2.200    partial core radius                                                         
   POMASS =  207.200; ZVAL   =    4.000    mass and valenz                                          
   RCORE  =    3.100    outmost cutoff radius                                                       
   RWIGS  =    3.260; RWIGS  =    1.725    wigner-seitz radius (au A)                               
   ENMAX  =   97.973; ENMIN  =   73.480 eV                                                          
   ICORE  =        3    local potential                                                             
   LCOR   =        T    correct aug charges                                                         
   LPAW   =        T    paw PP                                                                      
   EAUG   =  234.873                                                                                
   DEXC   =    0.000                                                                                
   RMAX   =    3.158    core radius for proj-oper                                                   
   RAUG   =    1.300    factor for augmentation sphere                                              
   RDEP   =    3.202    radius for radial grids                                                     
   RDEPT  =    2.659    core radius for aug-charge                                                  
                                                                                                    
   Atomic configuration                                                                             
   17 entries                                                                                       
     n  l   j            E        occ.                                                              
     1  0  0.50    -88091.8466   2.0000                                                             
     2  0  0.50    -15753.4197   2.0000                                                             
     2  1  1.50    -13508.1797   6.0000                                                             
     3  0  0.50     -3781.7194   2.0000                                                             
     3  1  1.50     -3138.2529   6.0000                                                             
     3  2  2.50     -2483.2977  10.0000                                                             
     4  0  0.50      -856.2895   2.0000                                                             
     4  1  1.50      -645.4943   6.0000                                                             
     4  2  2.50      -401.8768  10.0000                                                             
     4  3  3.50      -132.9059  14.0000                                                             
     5  0  0.50      -144.0950   2.0000                                                             
     5  1  1.50       -85.7879   6.0000                                                             
     5  2  2.50       -21.1769  10.0000                                                             
     6  0  0.50       -12.0372   2.0000                                                             
     6  1  1.50        -3.4971   2.0000                                                             
     6  2  2.50        -1.3606   0.0000                                                             
     5  3  2.50        -2.7212   0.0000                                                             
   Description                                                                                      
     l       E           TYP  RCUT    TYP  RCUT                                                     
     0    -12.0371566     23  3.100                                                                 
     0    -13.3977392     23  3.100                                                                 
     1     -3.4971341     23  3.100                                                                 
     1     -5.4423304     23  3.100                                                                 
     2     -1.3605826     23  3.100                                                                 
     3     -1.3605826     23  3.100                                                                 
  local pseudopotential read in
  partial core-charges read in
  partial kinetic energy density read in
  atomic valenz-charges read in
  non local Contribution for L=            0  read in
    real space projection operators read in
  non local Contribution for L=            0  read in
    real space projection operators read in
  non local Contribution for L=            1  read in
    real space projection operators read in
  non local Contribution for L=            1  read in
    real space projection operators read in
  non local Contribution for L=            2  read in
    real space projection operators read in
    PAW grid and wavefunctions read in
 
   number of l-projection  operators is LMAX  =            5
   number of lm-projection operators is LMMAX =           13
 
 Optimization of the real space projectors (new method)

 maximal supplied QI-value         = 34.20
 optimisation between [QCUT,QGAM] = [ 11.29, 22.57] = [ 35.68,142.71] Ry 
 Optimized for a Real-space Cutoff    1.16 Angstroem

   l    n(q)    QCUT    max X(q) W(low)/X(q) W(high)/X(q)  e(spline) 
   0      8    11.287    19.460    0.40E-03    0.73E-03    0.16E-06
   0      8    11.287    12.209    0.38E-03    0.70E-03    0.15E-06
   1      7    11.287     4.655    0.22E-03    0.25E-04    0.22E-06
 Optimization of the real space projectors (new method)

 maximal supplied QI-value         = 25.13
 optimisation between [QCUT,QGAM] = [ 11.31, 22.87] = [ 35.82,146.48] Ry 
 Optimized for a Real-space Cutoff    1.00 Angstroem

   l    n(q)    QCUT    max X(q) W(low)/X(q) W(high)/X(q)  e(spline) 
   0      7    11.310   115.676    0.43E-03    0.13E-02    0.19E-06
   0      7    11.310    87.132    0.43E-03    0.13E-02    0.18E-06
   1      6    11.310     4.429    0.42E-03    0.74E-03    0.11E-06
   1      6    11.310     2.733    0.34E-03    0.55E-03    0.92E-07
 Optimization of the real space projectors (new method)

 maximal supplied QI-value         = 25.13
 optimisation between [QCUT,QGAM] = [ 11.31, 22.87] = [ 35.82,146.48] Ry 
 Optimized for a Real-space Cutoff    1.27 Angstroem

   l    n(q)    QCUT    max X(q) W(low)/X(q) W(high)/X(q)  e(spline) 
   0      9    11.310    79.467    0.75E-04    0.16E-03    0.36E-06
   0      9    11.310    66.151    0.74E-04    0.16E-03    0.36E-06
   1      8    11.310    17.416    0.35E-03    0.12E-03    0.95E-06
   1      8    11.310    12.382    0.37E-03    0.13E-03    0.98E-06
 Optimization of the real space projectors (new method)

 maximal supplied QI-value         = 16.25
 optimisation between [QCUT,QGAM] = [ 11.38, 22.75] = [ 36.24,144.96] Ry 
 Optimized for a Real-space Cutoff    1.31 Angstroem

   l    n(q)    QCUT    max X(q) W(low)/X(q) W(high)/X(q)  e(spline) 
   0      9    11.376   194.483    0.24E-03    0.23E-03    0.67E-07
   0      9    11.376   190.334    0.23E-03    0.22E-03    0.65E-07
   1      8    11.376   116.687    0.25E-03    0.63E-04    0.16E-06
   1      8    11.376    88.696    0.25E-03    0.61E-04    0.16E-06
   2      8    11.376     4.877    0.17E-03    0.14E-03    0.29E-07
 Optimization of the real space projectors (new method)

 maximal supplied QI-value         = 12.09
 optimisation between [QCUT,QGAM] = [ 11.37, 22.86] = [ 36.19,146.31] Ry 
 Optimized for a Real-space Cutoff    1.66 Angstroem

   l    n(q)    QCUT    max X(q) W(low)/X(q) W(high)/X(q)  e(spline) 
   0     11    11.369   135.111    0.12E-03    0.69E-04    0.19E-05
   0     11    11.369   146.850    0.11E-03    0.65E-04    0.18E-05
   1     11    11.369   148.016    0.17E-03    0.32E-03    0.89E-06
   1     11    11.369   122.989    0.17E-03    0.32E-03    0.91E-06
   2     10    11.369     8.916    0.12E-03    0.45E-04    0.33E-06
  PAW_PBE H 15Jun2001                   :
 energy of atom  1       EATOM=  -12.4884
 kinetic energy error for atom=    0.0020 (will be added to EATOM!!)
  PAW_PBE C 08Apr2002                   :
 energy of atom  2       EATOM= -147.1560
 kinetic energy error for atom=    0.0076 (will be added to EATOM!!)
  PAW_PBE N 08Apr2002                   :
 energy of atom  3       EATOM= -264.5486
 kinetic energy error for atom=    0.0138 (will be added to EATOM!!)
  PAW_PBE I 08Apr2002                   :
 energy of atom  4       EATOM= -315.8678
 kinetic energy error for atom=    0.0009 (will be added to EATOM!!)
  PAW_PBE Pb 08Apr2002                  :
 energy of atom  5       EATOM=  -96.9868
 kinetic energy error for atom=    0.0000 (will be added to EATOM!!)
 
 
 POSCAR:  H  C  N  I Pb
  positions in cartesian coordinates
  No initial velocities read in
 exchange correlation table for  LEXCH =        8
   RHO(1)=    0.500       N(1)  =     2000
   RHO(2)=  100.500       N(2)  =     4000
 


--------------------------------------------------------------------------------------------------------


 ion  position               nearest neighbor table
   1  0.452  0.305  0.581- 187 1.01
   2  0.445  0.810  0.580- 188 1.01
   3  0.959  0.312  0.577- 189 1.03
   4  0.968  0.814  0.581- 190 1.03
   5  0.315  0.036  0.581- 194 1.04
   6  0.302  0.552  0.581- 195 1.04
   7  0.784  0.059  0.583- 196 1.04
   8  0.076  0.148  0.562- 183 1.03
   9  0.069  0.660  0.556- 184 1.03
  10  0.588  0.185  0.557- 185 1.02
  11  0.567  0.667  0.559- 186 1.03
  12  0.336  0.069  0.556- 194 1.02
  13  0.318  0.587  0.555- 195 1.02
  14  0.824  0.084  0.558- 196 1.01
  15  0.039  0.192  0.585- 183 1.05
  16  0.053  0.700  0.581- 184 1.01
  17  0.565  0.228  0.581- 185 1.02
  18  0.526  0.699  0.582- 186 1.03
  19  0.206  0.444  0.582- 191 1.04
  20  0.199  0.949  0.583- 192 1.04
  21  0.696  0.944  0.581- 193 1.04
  22  0.402  0.312  0.557- 187 1.03
  23  0.436  0.852  0.555- 188 1.03
  24  0.951  0.330  0.550- 189 1.01
  25  0.933  0.839  0.557- 190 1.03
  26  0.169  0.419  0.558- 191 1.01
  27  0.156  0.935  0.558- 192 1.01
  28  0.687  0.905  0.555- 193 1.02
  29  0.487  0.234  0.539- 146 1.12
  30  0.513  0.764  0.539- 147 1.09
  31  0.019  0.235  0.537- 144 1.09
  32  0.994  0.747  0.538- 145 1.12
  33  0.237  0.507  0.538- 148 1.11
  34  0.238  0.009  0.539- 149 1.11
  35  0.767  0.990  0.539- 150 1.12
  36  0.454  0.306  0.676- 205 1.01
  37  0.450  0.798  0.675- 206 1.01
  38  0.943  0.302  0.673- 207 1.01
  39  0.947  0.804  0.676- 208 1.06
  40  0.295  0.051  0.675- 209 1.01
  41  0.298  0.552  0.675- 210 1.00
  42  0.804  0.051  0.674- 211 1.01
  43  0.803  0.566  0.675- 212 1.05
  44  0.080  0.172  0.651- 197 1.02
  45  0.080  0.673  0.651- 198 1.05
  46  0.573  0.165  0.650- 199 1.05
  47  0.572  0.668  0.647- 200 1.03
  48  0.173  0.419  0.648- 201 1.03
  49  0.171  0.919  0.647- 202 1.09
  50  0.681  0.420  0.654- 203 0.97
  51  0.664  0.927  0.649- 204 1.09
  52  0.047  0.203  0.676- 197 1.06
  53  0.044  0.700  0.677- 198 1.04
  54  0.553  0.203  0.675- 199 1.03
  55  0.549  0.693  0.673- 200 1.02
  56  0.200  0.447  0.674- 201 1.00
  57  0.197  0.946  0.674- 202 1.00
  58  0.701  0.460  0.677- 203 1.01
  59  0.695  0.957  0.675- 204 1.00
  60  0.417  0.329  0.650- 205 1.03
  61  0.418  0.831  0.651- 206 1.03
  62  0.918  0.326  0.647- 207 1.02
  63  0.925  0.838  0.650- 208 1.02
  64  0.326  0.084  0.650- 209 1.03
  65  0.329  0.583  0.650- 210 1.09
  66  0.836  0.074  0.648- 211 1.03
  67  0.833  0.579  0.649- 212 0.99
  68  0.004  0.245  0.631- 151 1.13
  69  0.008  0.757  0.633- 152 1.12
  70  0.488  0.239  0.633- 153 1.07
  71  0.492  0.752  0.631- 154 1.12
  72  0.249  0.003  0.631- 156 1.11
  73  0.254  0.503  0.631- 155 1.11
  74  0.748  0.997  0.631- 158 1.11
  75  0.763  0.491  0.634- 157 1.12
  76  0.449  0.301  0.769- 221 1.02
  77  0.449  0.801  0.769- 222 1.02
  78  0.949  0.301  0.769- 223 1.02
  79  0.949  0.801  0.769- 224 1.02
  80  0.301  0.051  0.769- 225 1.02
  81  0.301  0.551  0.769- 226 1.02
  82  0.801  0.051  0.769- 227 1.02
  83  0.801  0.551  0.769- 228 1.02
  84  0.079  0.171  0.743- 213 1.02
  85  0.079  0.671  0.743- 214 1.02
  86  0.579  0.171  0.743- 215 1.02
  87  0.579  0.671  0.743- 216 1.02
  88  0.171  0.421  0.743- 217 1.02
  89  0.171  0.921  0.743- 218 1.02
  90  0.671  0.421  0.743- 219 1.02
  91  0.671  0.921  0.743- 220 1.02
  92  0.051  0.199  0.769- 213 1.02
  93  0.051  0.699  0.769- 214 1.02
  94  0.551  0.199  0.769- 215 1.02
  95  0.551  0.699  0.769- 216 1.02
  96  0.199  0.449  0.769- 217 1.02
  97  0.199  0.949  0.769- 218 1.02
  98  0.699  0.449  0.769- 219 1.02
  99  0.699  0.949  0.769- 220 1.02
 100  0.421  0.329  0.743- 221 1.02
 101  0.421  0.829  0.743- 222 1.02
 102  0.921  0.329  0.743- 223 1.02
 103  0.921  0.829  0.743- 224 1.02
 104  0.329  0.079  0.743- 225 1.02
 105  0.329  0.579  0.743- 226 1.02
 106  0.829  0.079  0.743- 227 1.02
 107  0.829  0.579  0.743- 228 1.02
 108  0.000  0.250  0.726- 161 1.09
 109  0.000  0.750  0.726- 162 1.09
 110  0.500  0.250  0.726- 159 1.09
 111  0.500  0.750  0.726- 160 1.09
 112  0.250  0.000  0.726- 163 1.09
 113  0.250  0.500  0.726- 164 1.09
 114  0.750  0.000  0.726- 165 1.09
 115  0.750  0.500  0.726- 166 1.09
 116  0.787  0.568  0.529- 173 1.11
 117  0.736  0.483  0.531- 173 1.09
 118  0.875  0.506  0.551- 174 1.10
 119  0.850  0.478  0.578- 174 1.11
 120  0.741  0.640  0.569- 175 1.11
 121  0.804  0.590  0.587- 175 1.10
 122  0.650  0.538  0.573- 176 1.12
 123  0.678  0.451  0.562- 176 1.09
 124  0.625  0.549  0.543- 177 1.11
 125  0.674  0.634  0.545- 177 1.09
 126  0.629  0.661  0.513- 178 1.07
 127  0.703  0.609  0.504- 178 1.09
 128  0.824  0.395  0.536- 179 1.10
 129  0.756  0.388  0.558- 179 1.12
 130  0.847  0.365  0.563- 179 1.08
 131  0.866  0.690  0.562- 180 1.10
 132  0.851  0.625  0.542- 180 1.10
 133  0.910  0.602  0.564- 180 1.10
 134  0.770  0.501  0.600- 181 1.11
 135  0.740  0.408  0.594- 181 1.13
 136  0.678  0.471  0.607- 181 1.11
 137  0.549  0.548  0.512- 182 1.09
 138  0.582  0.567  0.486- 182 1.10
 139  0.717  0.502  0.479- 168 1.07
 140  0.557  0.424  0.525- 169 1.11
 141  0.778  0.379  0.480- 170 1.08
 142  0.618  0.303  0.526- 171 1.09
 143  0.731  0.280  0.503- 172 1.08
 144  0.012  0.240  0.555-  31 1.09 189 1.33 183 1.35
 145  0.002  0.750  0.555-  32 1.12 184 1.29 190 1.31
 146  0.496  0.247  0.556-  29 1.12 185 1.30 187 1.35
 147  0.502  0.759  0.556-  30 1.09 186 1.31 188 1.37
 148  0.243  0.502  0.556-  33 1.11 191 1.30 195 1.34
 149  0.245  0.002  0.556-  34 1.11 192 1.30 194 1.34
 150  0.756  0.995  0.556-  35 1.12 196 1.30 193 1.34
 151  1.000  0.248  0.649-  68 1.13 197 1.28 207 1.34
 152  0.003  0.755  0.650-  69 1.12 198 1.30 208 1.31
 153  0.495  0.246  0.650-  70 1.07 199 1.29 205 1.35
 154  0.495  0.749  0.649-  71 1.12 206 1.32 200 1.32
 155  0.251  0.501  0.649-  73 1.11 210 1.29 201 1.34
 156  0.248  0.001  0.649-  72 1.11 202 1.29 209 1.36
 157  0.757  0.499  0.651-  75 1.12 203 1.31 212 1.34
 158  0.749  0.000  0.649-  74 1.11 204 1.29 211 1.35
 159  0.500  0.250  0.743- 110 1.09 221 1.31 215 1.31
 160  0.500  0.750  0.743- 111 1.09 222 1.31 216 1.31
 161  1.000  0.250  0.743- 108 1.09 223 1.31 213 1.31
 162  1.000  0.750  0.743- 109 1.09 224 1.31 214 1.31
 163  0.250  0.000  0.743- 112 1.09 225 1.31 218 1.31
 164  0.250  0.500  0.743- 113 1.09 226 1.31 217 1.31
 165  0.750  0.000  0.743- 114 1.09 227 1.31 220 1.31
 166  0.750  0.500  0.743- 115 1.09 228 1.31 219 1.31
 167  0.631  0.473  0.501- 168 1.39 169 1.41 182 1.51
 168  0.693  0.459  0.489- 139 1.07 167 1.39 170 1.43
 169  0.604  0.415  0.514- 140 1.11 167 1.41 171 1.43
 170  0.729  0.388  0.489- 141 1.08 172 1.39 168 1.43
 171  0.640  0.345  0.515- 142 1.09 172 1.39 169 1.43
 172  0.703  0.332  0.503- 143 1.08 171 1.39 170 1.39
 173  0.740  0.540  0.537- 117 1.09 116 1.11 229 1.47 177 1.51
 174  0.831  0.480  0.561- 118 1.10 119 1.11 179 1.48 229 1.53
 175  0.788  0.600  0.570- 121 1.10 120 1.11 229 1.52 180 1.54
 176  0.696  0.496  0.572- 123 1.09 122 1.12 229 1.52 181 1.55
 177  0.669  0.583  0.535- 125 1.09 124 1.11 178 1.50 173 1.51
 178  0.652  0.606  0.513- 126 1.07 127 1.09 177 1.50 182 1.55
 179  0.814  0.404  0.554- 130 1.08 128 1.10 129 1.12 174 1.48
 180  0.858  0.630  0.559- 132 1.10 131 1.10 133 1.10 175 1.54
 181  0.721  0.468  0.594- 134 1.11 136 1.11 135 1.13 176 1.55
 182  0.598  0.550  0.502- 137 1.09 138 1.10 167 1.51 178 1.55
 183  0.045  0.191  0.568-   8 1.03  15 1.05 144 1.35
 184  0.043  0.700  0.565-  16 1.01   9 1.03 145 1.29
 185  0.554  0.218  0.565-  17 1.02  10 1.02 146 1.30
 186  0.534  0.705  0.566-  11 1.03  18 1.03 147 1.31
 187  0.446  0.291  0.566-   1 1.01  22 1.03 146 1.35
 188  0.457  0.811  0.565-   2 1.01  23 1.03 147 1.37
 189  0.971  0.296  0.561-  24 1.01   3 1.03 144 1.33
 190  0.967  0.803  0.565-  25 1.03   4 1.03 145 1.31
 191  0.204  0.453  0.566-  26 1.01  19 1.04 148 1.30
 192  0.198  0.960  0.566-  27 1.01  20 1.04 149 1.30
 193  0.710  0.946  0.565-  28 1.02  21 1.04 150 1.34
 194  0.302  0.038  0.565-  12 1.02   5 1.04 149 1.34
 195  0.290  0.550  0.565-  13 1.02   6 1.04 148 1.34
 196  0.790  0.048  0.566-  14 1.01   7 1.04 150 1.30
 197  0.044  0.206  0.659-  44 1.02  52 1.06 151 1.28
 198  0.045  0.708  0.660-  53 1.04  45 1.05 152 1.30
 199  0.542  0.203  0.659-  54 1.03  46 1.05 153 1.29
 200  0.541  0.701  0.657-  55 1.02  47 1.03 154 1.32
 201  0.206  0.452  0.658-  56 1.00  48 1.03 155 1.34
 202  0.204  0.954  0.658-  57 1.00  49 1.09 156 1.29
 203  0.709  0.456  0.661-  50 0.97  58 1.01 157 1.31
 204  0.701  0.961  0.659-  59 1.00  51 1.09 158 1.29
 205  0.452  0.297  0.660-  36 1.01  60 1.03 153 1.35
 206  0.451  0.796  0.659-  37 1.01  61 1.03 154 1.32
 207  0.951  0.295  0.657-  38 1.01  62 1.02 151 1.34
 208  0.956  0.802  0.659-  63 1.02  39 1.06 152 1.31
 209  0.293  0.049  0.659-  40 1.01  64 1.03 156 1.36
 210  0.293  0.547  0.659-  41 1.00  65 1.09 155 1.29
 211  0.800  0.045  0.658-  42 1.01  66 1.03 158 1.35
 212  0.801  0.552  0.659-  67 0.99  43 1.05 157 1.34
 213  0.046  0.204  0.753-  92 1.02  84 1.02 161 1.31
 214  0.046  0.704  0.753-  93 1.02  85 1.02 162 1.31
 215  0.546  0.204  0.753-  94 1.02  86 1.02 159 1.31
 216  0.546  0.704  0.753-  95 1.02  87 1.02 160 1.31
 217  0.204  0.454  0.753-  96 1.02  88 1.02 164 1.31
 218  0.204  0.954  0.753-  97 1.02  89 1.02 163 1.31
 219  0.704  0.454  0.753-  98 1.02  90 1.02 166 1.31
 220  0.704  0.954  0.753-  99 1.02  91 1.02 165 1.31
 221  0.454  0.296  0.753-  76 1.02 100 1.02 159 1.31
 222  0.454  0.796  0.753-  77 1.02 101 1.02 160 1.31
 223  0.954  0.296  0.753-  78 1.02 102 1.02 161 1.31
 224  0.954  0.796  0.753-  79 1.02 103 1.02 162 1.31
 225  0.296  0.046  0.753-  80 1.02 104 1.02 163 1.31
 226  0.296  0.546  0.753-  81 1.02 105 1.02 164 1.31
 227  0.796  0.046  0.753-  82 1.02 106 1.02 165 1.31
 228  0.796  0.546  0.753-  83 1.02 107 1.02 166 1.31
 229  0.762  0.528  0.560- 173 1.47 176 1.52 175 1.52 174 1.53
 230  0.500  0.010  0.552- 304 3.12
 231  0.482  0.517  0.557- 305 3.05
 232  0.999  0.001  0.552- 302 3.21
 233  0.019  0.482  0.549- 303 3.39
 234  0.254  0.249  0.552- 306 3.16
 235  0.251  0.751  0.553- 307 3.09
 236  0.758  0.231  0.555- 308 3.12
 237  0.736  0.768  0.548- 309 3.52
 238  0.001  0.004  0.654- 310 3.16 302 3.19
 239  0.006  0.502  0.653- 303 3.14 311 3.22
 240  0.502  0.998  0.655- 312 3.10 304 3.31
 241  0.497  0.500  0.656- 313 3.05 305 3.18
 242  0.251  0.249  0.655- 314 3.11 306 3.29
 243  0.248  0.752  0.654- 315 3.18 307 3.25
 244  0.748  0.248  0.656- 316 3.07 308 3.17
 245  0.749  0.754  0.655- 309 3.13 317 3.15
 246  0.145  0.106  0.610- 306 3.23 302 3.29
 247  0.146  0.604  0.608- 307 3.20 303 3.21
 248  0.646  0.105  0.609- 308 3.17 304 3.32
 249  0.627  0.623  0.612- 305 3.28 309 3.32
 250  0.353  0.392  0.609- 306 3.20 305 3.25
 251  0.356  0.895  0.609- 304 3.20 307 3.33
 252  0.876  0.375  0.612- 303 3.29 308 3.30
 253  0.856  0.897  0.608- 309 3.17 302 3.20
 254  0.109  0.355  0.608- 306 3.20 303 3.33
 255  0.107  0.858  0.609- 302 3.23 307 3.26
 256  0.589  0.340  0.608- 305 3.33 308 3.36
 257  0.605  0.861  0.610- 309 3.20 304 3.24
 258  0.394  0.142  0.608- 304 3.16 306 3.27
 259  0.389  0.643  0.609- 307 3.20 305 3.26
 260  0.892  0.142  0.608- 308 3.21 302 3.24
 261  0.910  0.660  0.612- 303 3.32 309 3.45
 262  0.000  0.000  0.755- 310 3.13 318 3.27
 263  0.000  0.500  0.755- 311 3.13 319 3.27
 264  0.500  0.000  0.755- 312 3.13 320 3.27
 265  0.500  0.500  0.755- 313 3.13 321 3.27
 266  0.250  0.250  0.755- 314 3.13 322 3.27
 267  0.250  0.750  0.755- 315 3.13 323 3.27
 268  0.750  0.250  0.755- 316 3.13 324 3.27
 269  0.750  0.750  0.755- 317 3.13 325 3.27
 270  0.136  0.114  0.705- 310 3.20 314 3.20
 271  0.136  0.614  0.705- 311 3.20 315 3.20
 272  0.636  0.114  0.705- 312 3.20 316 3.20
 273  0.636  0.614  0.705- 313 3.20 317 3.20
 274  0.364  0.386  0.705- 313 3.20 314 3.20
 275  0.364  0.886  0.705- 312 3.20 315 3.20
 276  0.864  0.386  0.705- 311 3.20 316 3.20
 277  0.864  0.886  0.705- 310 3.20 317 3.20
 278  0.114  0.364  0.705- 314 3.21 311 3.21
 279  0.114  0.864  0.705- 315 3.21 310 3.21
 280  0.614  0.364  0.705- 316 3.21 313 3.21
 281  0.614  0.864  0.705- 317 3.21 312 3.21
 282  0.386  0.136  0.705- 314 3.21 312 3.21
 283  0.386  0.636  0.705- 315 3.21 313 3.21
 284  0.886  0.136  0.705- 316 3.21 310 3.21
 285  0.886  0.636  0.705- 317 3.21 311 3.21
 286  0.135  0.115  0.801- 318 3.22 322 3.22
 287  0.135  0.615  0.801- 319 3.22 323 3.22
 288  0.635  0.115  0.801- 320 3.22 324 3.22
 289  0.635  0.615  0.801- 321 3.22 325 3.22
 290  0.365  0.385  0.801- 321 3.22 322 3.22
 291  0.365  0.885  0.801- 320 3.22 323 3.22
 292  0.865  0.385  0.801- 319 3.22 324 3.22
 293  0.865  0.885  0.801- 318 3.22 325 3.22
 294  0.115  0.365  0.801- 319 3.23 322 3.23
 295  0.115  0.865  0.801- 318 3.23 323 3.23
 296  0.615  0.365  0.801- 321 3.23 324 3.23
 297  0.615  0.865  0.801- 320 3.23 325 3.23
 298  0.385  0.135  0.801- 320 3.23 322 3.23
 299  0.385  0.635  0.801- 321 3.23 323 3.23
 300  0.885  0.135  0.801- 318 3.23 324 3.23
 301  0.885  0.635  0.801- 319 3.23 325 3.23
 302  1.000  0.999  0.603- 238 3.19 253 3.20 232 3.21 255 3.23 260 3.24 246 3.29
 303  0.001  0.504  0.603- 239 3.14 247 3.21 252 3.29 261 3.32 254 3.33 233 3.39
 304  0.496  0.001  0.602- 230 3.12 258 3.16 251 3.20 257 3.24 240 3.31 248 3.32
 305  0.497  0.499  0.605- 231 3.05 241 3.18 250 3.25 259 3.26 249 3.28 256 3.33
 306  0.250  0.249  0.602- 234 3.16 250 3.20 254 3.20 246 3.23 258 3.27 242 3.29
 307  0.248  0.748  0.602- 235 3.09 259 3.20 247 3.20 243 3.25 255 3.26 251 3.33
 308  0.749  0.246  0.605- 236 3.12 248 3.17 244 3.17 260 3.21 252 3.30 256 3.36
 309  0.749  0.759  0.604- 245 3.13 253 3.17 257 3.20 249 3.32 261 3.45 237 3.52
 310  0.000  0.000  0.705- 262 3.13 238 3.16 270 3.20 277 3.20 279 3.21 284 3.21
 311  0.000  0.500  0.705- 263 3.13 271 3.20 276 3.20 278 3.21 285 3.21 239 3.22
 312  0.500  0.000  0.705- 240 3.10 264 3.13 272 3.20 275 3.20 281 3.21 282 3.21
 313  0.500  0.500  0.705- 241 3.05 265 3.13 273 3.20 274 3.20 280 3.21 283 3.21
 314  0.250  0.250  0.705- 242 3.11 266 3.13 270 3.20 274 3.20 282 3.21 278 3.21
 315  0.250  0.750  0.705- 267 3.13 243 3.18 271 3.20 275 3.20 283 3.21 279 3.21
 316  0.750  0.250  0.705- 244 3.07 268 3.13 272 3.20 276 3.20 284 3.21 280 3.21
 317  0.750  0.750  0.705- 269 3.13 245 3.15 273 3.20 277 3.20 285 3.21 281 3.21
 318  0.000  0.000  0.807- 286 3.22 293 3.22 300 3.23 295 3.23 262 3.27
 319  0.000  0.500  0.807- 287 3.22 292 3.22 301 3.23 294 3.23 263 3.27
 320  0.500  0.000  0.807- 288 3.22 291 3.22 298 3.23 297 3.23 264 3.27
 321  0.500  0.500  0.807- 289 3.22 290 3.22 299 3.23 296 3.23 265 3.27
 322  0.250  0.250  0.807- 290 3.22 286 3.22 294 3.23 298 3.23 266 3.27
 323  0.250  0.750  0.807- 291 3.22 287 3.22 299 3.23 295 3.23 267 3.27
 324  0.750  0.250  0.807- 292 3.22 288 3.22 296 3.23 300 3.23 268 3.27
 325  0.750  0.750  0.807- 293 3.22 289 3.22 297 3.23 301 3.23 269 3.27
 

IMPORTANT INFORMATION: All symmetrisations will be switched off!
NOSYMM: (Re-)initialisation of all symmetry stuff for point group C_1.


----------------------------------------------------------------------------------------

                                     Primitive cell                                     

  volume of cell :   20385.2105

  direct lattice vectors                    reciprocal lattice vectors
    18.060800552  0.000000000  0.000000000     0.055368531  0.000015077 -0.000000000
    -0.004918649 18.062799454  0.000000000     0.000000000  0.055362404  0.000000000
     0.000000000  0.000000000 62.487499237     0.000000000 -0.000000000  0.016003201

  length of vectors
    18.060800552 18.062800123 62.487499237     0.055368533  0.055362404  0.016003201

  position of ions in fractional coordinates (direct lattice)
     0.451843284  0.305420693  0.581345158
     0.445179046  0.810474621  0.580398252
     0.959234664  0.311599925  0.576817824
     0.968093651  0.814270353  0.581215493
     0.314558859  0.036460295  0.581459500
     0.301759464  0.552301563  0.580999508
     0.784065894  0.059051663  0.582642537
     0.075537581  0.147729305  0.561552503
     0.069365684  0.660346887  0.555583719
     0.588147206  0.184688014  0.556951973
     0.567254152  0.666849558  0.558619543
     0.336386963  0.069092499  0.556041391
     0.318113786  0.587133844  0.555484089
     0.823547386  0.083927631  0.558302524
     0.038602063  0.192449672  0.584642448
     0.052531533  0.700441991  0.580543667
     0.565328190  0.228445047  0.581046575
     0.526123709  0.699163600  0.582483997
     0.205523110  0.444003812  0.582306227
     0.198504391  0.949420675  0.582556032
     0.695769653  0.944463773  0.580835718
     0.401997558  0.312026187  0.557376924
     0.436457743  0.852433219  0.555081116
     0.950503418  0.329553018  0.549881101
     0.933240023  0.839427297  0.556996294
     0.168937599  0.419406049  0.557539554
     0.156052322  0.935367884  0.557888074
     0.687410569  0.905423409  0.555416388
     0.487214579  0.233857208  0.538815839
     0.513163981  0.763746911  0.538504985
     0.018786928  0.235215323  0.537355463
     0.994130992  0.746862945  0.537558324
     0.236735212  0.507473673  0.538136320
     0.237849022  0.008975682  0.538712546
     0.766978137  0.990214545  0.538698445
     0.453548185  0.305542761  0.675567983
     0.449722376  0.797509511  0.675302610
     0.942949555  0.302216902  0.673286399
     0.946795173  0.804445493  0.675726462
     0.295428349  0.050531239  0.675380568
     0.297618180  0.552081344  0.674873203
     0.804010288  0.050591224  0.674029773
     0.802860906  0.565729497  0.675409626
     0.079708380  0.172080174  0.650591491
     0.079851074  0.672847113  0.651290483
     0.572588380  0.165114348  0.649898237
     0.572005477  0.668435179  0.647446697
     0.173416377  0.419140741  0.647882758
     0.171060997  0.919056159  0.647369533
     0.680508644  0.419521386  0.653583361
     0.663584068  0.926909751  0.649460100
     0.046699906  0.202895117  0.675856981
     0.043918657  0.700101815  0.676730936
     0.552690407  0.202683214  0.675264578
     0.549383512  0.692567002  0.673391645
     0.199913376  0.447431070  0.673675454
     0.196773485  0.945567512  0.673533091
     0.701195040  0.459752417  0.677260766
     0.694657004  0.956781091  0.674858735
     0.417407963  0.328822588  0.650296510
     0.417596937  0.830765675  0.650584104
     0.918360570  0.326076764  0.647331073
     0.924672046  0.837849543  0.650147799
     0.326058179  0.083772597  0.650414393
     0.328575672  0.583249675  0.649580058
     0.835671489  0.073988760  0.648286037
     0.833392456  0.579343437  0.649266824
     0.003881448  0.244858639  0.630931736
     0.007995501  0.757021012  0.632567195
     0.488432044  0.239384969  0.633051117
     0.491852421  0.752321489  0.631005237
     0.249486424  0.003070529  0.631082157
     0.253613380  0.503461206  0.630894192
     0.748435916  0.997029440  0.631086552
     0.763177309  0.490925659  0.633619407
     0.448745018  0.301283966  0.768889017
     0.448745007  0.801283913  0.768889017
     0.948744965  0.301283966  0.768889017
     0.948745007  0.801283913  0.768889017
     0.301275995  0.051294496  0.768872961
     0.301276011  0.551294499  0.768872961
     0.801275943  0.051294496  0.768872961
     0.801275984  0.551294499  0.768872961
     0.078771004  0.171180501  0.743441971
     0.078771006  0.671180448  0.743441971
     0.578771004  0.171180501  0.743441971
     0.578770992  0.671180448  0.743441971
     0.171199499  0.421174482  0.743421032
     0.171199501  0.921174508  0.743421032
     0.671199512  0.421174482  0.743421032
     0.671199501  0.921174508  0.743421032
     0.051256000  0.198714991  0.768889017
     0.051256002  0.698714925  0.768889017
     0.551256027  0.198714991  0.768889017
     0.551256016  0.698714925  0.768889017
     0.198723491  0.448703970  0.768872046
     0.198723493  0.948703970  0.768872046
     0.698723518  0.448703970  0.768872046
     0.698723507  0.948703970  0.768872046
     0.421231519  0.328817467  0.743441971
     0.421231508  0.828817440  0.743441971
     0.921231466  0.328817467  0.743441971
     0.921231508  0.828817440  0.743441971
     0.328800503  0.078824997  0.743421032
     0.328800492  0.578824964  0.743421032
     0.828800477  0.078824997  0.743421032
     0.828800519  0.578824964  0.743421032
     0.000003500  0.250001478  0.725821992
     0.000003500  0.750001452  0.725821992
     0.500003506  0.250001478  0.725821992
     0.500003495  0.750001452  0.725821992
     0.250000502  0.000000000  0.725803983
     0.250000517  0.500000000  0.725803983
     0.750000502  0.000000000  0.725803983
     0.750000490  0.500000000  0.725803983
     0.786906419  0.567858247  0.529271754
     0.736139936  0.483156794  0.531193464
     0.875152389  0.505606588  0.550915915
     0.850075098  0.477920581  0.577658324
     0.741253956  0.640000289  0.569070669
     0.803693588  0.590437502  0.586857003
     0.650396655  0.537888212  0.573386962
     0.677820323  0.451174004  0.562130316
     0.625097586  0.549163637  0.542857357
     0.673931335  0.634182722  0.544592629
     0.629380038  0.660763725  0.512852943
     0.702890831  0.609067013  0.503580947
     0.824282132  0.395065965  0.536405566
     0.756188866  0.387972752  0.557527589
     0.847236159  0.365239223  0.562729801
     0.866390341  0.689659169  0.561924953
     0.850518881  0.625357374  0.541749409
     0.909771745  0.601889588  0.563520609
     0.769964967  0.500523120  0.599718340
     0.739845534  0.408134743  0.593860540
     0.678041036  0.471123880  0.607122103
     0.548770094  0.547736251  0.512174341
     0.582480307  0.566569350  0.485833623
     0.717226370  0.502465600  0.479397552
     0.556785988  0.424416498  0.525021759
     0.777779482  0.379388558  0.479753580
     0.617530380  0.302985663  0.525906640
     0.730913952  0.279703248  0.503312186
     0.012048106  0.239744838  0.554656592
     0.002451041  0.749599820  0.555245761
     0.496244948  0.247279070  0.556040231
     0.502484999  0.759117820  0.555590129
     0.242581818  0.502476371  0.555813562
     0.245102943  0.001830274  0.556311525
     0.756330408  0.995450456  0.556211591
     0.999819693  0.248299993  0.648894069
     0.002541218  0.755338244  0.650432035
     0.495337226  0.246204241  0.649869117
     0.495108182  0.749413074  0.648896755
     0.251469846  0.501133039  0.648664409
     0.248218885  0.001071180  0.648807504
     0.756634410  0.498832907  0.651220706
     0.749343446  0.000308940  0.648771120
     0.499988984  0.249994984  0.743277021
     0.499989025  0.749994958  0.743277021
     0.999988984  0.249994984  0.743277021
     0.999989025  0.749994958  0.743277021
     0.250000502  0.000001000  0.743255960
     0.250000517  0.500001003  0.743255960
     0.750000502  0.000001000  0.743255960
     0.750000491  0.500001003  0.743255960
     0.630942839  0.473372323  0.501222260
     0.692891127  0.458878404  0.488643847
     0.603975818  0.415062725  0.514056431
     0.728870515  0.388309654  0.489349005
     0.640056907  0.344889219  0.515069390
     0.702517337  0.332138970  0.502578580
     0.740435507  0.539587612  0.537455337
     0.831431576  0.480189246  0.560804978
     0.787792327  0.599931162  0.570054631
     0.696015653  0.496425596  0.572288720
     0.669310081  0.583018897  0.535419102
     0.651817725  0.606022381  0.512902452
     0.814249228  0.403913566  0.553530085
     0.857875360  0.630185196  0.559094064
     0.721369469  0.467665367  0.594485482
     0.598263619  0.550144354  0.502177834
     0.044774102  0.190673135  0.567900574
     0.043201993  0.700448010  0.564590769
     0.553719394  0.218404390  0.565412040
     0.534015931  0.704759840  0.566162128
     0.446303506  0.291268295  0.565768495
     0.456941085  0.811041298  0.564631671
     0.970958489  0.295938489  0.561370399
     0.966827123  0.803091601  0.565074753
     0.203890928  0.452638982  0.565798164
     0.197542354  0.959806841  0.566149370
     0.710196002  0.945813622  0.564755963
     0.301987193  0.037868515  0.565213086
     0.290251939  0.550091240  0.564705172
     0.790302011  0.048452013  0.566327078
     0.044362595  0.205582586  0.658996004
     0.044572420  0.707608856  0.660185146
     0.541914087  0.202633491  0.659042095
     0.541204291  0.701082004  0.657499855
     0.205841079  0.451513599  0.657743861
     0.204329253  0.954206305  0.657834639
     0.709471531  0.456301137  0.661299016
     0.701369817  0.960670872  0.658965663
     0.452223191  0.297418250  0.659601289
     0.451404494  0.795796648  0.659115474
     0.950618087  0.295038209  0.657372816
     0.955899723  0.802052067  0.659033670
     0.293372548  0.048784803  0.659294281
     0.293459188  0.546556222  0.658961817
     0.800166676  0.045008913  0.658033898
     0.800670877  0.551566249  0.659126462
     0.045862501  0.204119496  0.752725994
     0.045862500  0.704119456  0.752725994
     0.545862507  0.204119496  0.752725994
     0.545862496  0.704119456  0.752725994
     0.204119002  0.454101003  0.752704994
     0.204118991  0.954100951  0.752704994
     0.704118976  0.454101003  0.752704994
     0.704118964  0.954100951  0.752704994
     0.454140018  0.295888490  0.752726971
     0.454140007  0.795888516  0.752726971
     0.954140018  0.295888490  0.752726971
     0.954140060  0.795888516  0.752726971
     0.295882492  0.045900498  0.752704994
     0.295882481  0.545900528  0.752704994
     0.795882439  0.045900498  0.752704994
     0.795882481  0.545900528  0.752704994
     0.761562700  0.527831623  0.559975283
     0.499910446  0.009696875  0.552346438
     0.482058645  0.516604138  0.556712179
     0.999173444  0.001318700  0.551790296
     0.019288038  0.482038274  0.549435638
     0.253768178  0.249383217  0.551889071
     0.251051775  0.751445205  0.552552778
     0.757879391  0.230993249  0.555216641
     0.736051435  0.767777066  0.548324210
     0.001409226  0.004237126  0.654260438
     0.005510021  0.502347544  0.653259200
     0.502334059  0.997809177  0.655190800
     0.497260194  0.500082048  0.656083617
     0.250576897  0.249022794  0.655073589
     0.247513765  0.752461719  0.653884935
     0.748250063  0.247785004  0.655631562
     0.748566436  0.754131816  0.654501270
     0.145226233  0.106468079  0.609769972
     0.146267527  0.604404395  0.608370766
     0.646338939  0.104830769  0.608520515
     0.627492054  0.622979683  0.611977628
     0.352611834  0.392128618  0.609190998
     0.356458931  0.894941970  0.609163771
     0.875937897  0.375128391  0.612337990
     0.855868388  0.896728644  0.608162472
     0.108950608  0.355428116  0.607874146
     0.106959435  0.857686379  0.609108707
     0.589012728  0.339869847  0.607912178
     0.605011064  0.860740093  0.609550873
     0.393809463  0.141665027  0.607979086
     0.389137030  0.643430028  0.609322983
     0.892439069  0.141920938  0.608073221
     0.909837095  0.659982425  0.612442137
     0.000000000  0.000000000  0.754927972
     0.000000000  0.500000000  0.754927972
     0.500000000  0.000000000  0.754927972
     0.499999989  0.500000000  0.754927972
     0.250000496  0.250000000  0.754939022
     0.250000511  0.749999974  0.754939022
     0.750000470  0.250000000  0.754939022
     0.750000458  0.749999974  0.754939022
     0.135790500  0.114209997  0.704782994
     0.135790502  0.614209984  0.704782994
     0.635790447  0.114209997  0.704782994
     0.635790488  0.614209984  0.704782994
     0.364209516  0.385789989  0.704782994
     0.364209505  0.885789963  0.704782994
     0.864209542  0.385789989  0.704782994
     0.864209531  0.885789963  0.704782994
     0.114217990  0.364218986  0.704780979
     0.114217992  0.864218986  0.704780979
     0.614218004  0.364218986  0.704780979
     0.614217992  0.864218986  0.704780979
     0.385782012  0.135781489  0.704782017
     0.385782001  0.635781489  0.704782017
     0.885781985  0.135781489  0.704782017
     0.885782027  0.635781489  0.704782017
     0.134667000  0.115332001  0.801256025
     0.134666989  0.615331988  0.801256025
     0.634666987  0.115332001  0.801256025
     0.634666976  0.615331988  0.801256025
     0.365333002  0.384667985  0.801256025
     0.365332990  0.884667959  0.801256025
     0.865332949  0.384667985  0.801256025
     0.865332938  0.884667959  0.801256025
     0.115328503  0.365337004  0.801264999
     0.115328505  0.865336978  0.801264999
     0.615328503  0.365337004  0.801264999
     0.615328492  0.865336978  0.801264999
     0.384671513  0.134662996  0.801264999
     0.384671501  0.634662970  0.801264999
     0.884671486  0.134662996  0.801264999
     0.884671528  0.634662970  0.801264999
     0.999560648  0.999133362  0.603154330
     0.000989225  0.503989183  0.603075212
     0.496197458  0.001354558  0.602228180
     0.496595242  0.499318593  0.605131043
     0.249904504  0.249436305  0.602463823
     0.248212336  0.747736272  0.601937900
     0.749311099  0.246241860  0.604852423
     0.748566562  0.758666189  0.604495968
     0.000000500  0.000000500  0.704828963
     0.000000500  0.500000475  0.704828963
     0.500000475  0.000000500  0.704828963
     0.500000464  0.500000475  0.704828963
     0.249999994  0.249999472  0.704824995
     0.250000010  0.749999498  0.704824995
     0.749999994  0.249999472  0.704824995
     0.749999983  0.749999498  0.704824995
     0.000000000  0.000000000  0.807317968
     0.000000000  0.500000000  0.807317968
     0.500000000  0.000000000  0.807317968
     0.499999989  0.500000000  0.807317968
     0.249999994  0.250000000  0.807317968
     0.250000010  0.749999974  0.807317968
     0.749999994  0.250000000  0.807317968
     0.749999983  0.749999974  0.807317968

  ion indices of the primitive-cell ions
   primitive index   ion index
                 1           1
                 2           2
                 3           3
                 4           4
                 5           5
                 6           6
                 7           7
                 8           8
                 9           9
                10          10
                11          11
                12          12
                13          13
                14          14
                15          15
                16          16
                17          17
                18          18
                19          19
                20          20
                21          21
                22          22
                23          23
                24          24
                25          25
                26          26
                27          27
                28          28
                29          29
                30          30
                31          31
                32          32
                33          33
                34          34
                35          35
                36          36
                37          37
                38          38
                39          39
                40          40
                41          41
                42          42
                43          43
                44          44
                45          45
                46          46
                47          47
                48          48
                49          49
                50          50
                51          51
                52          52
                53          53
                54          54
                55          55
                56          56
                57          57
                58          58
                59          59
                60          60
                61          61
                62          62
                63          63
                64          64
                65          65
                66          66
                67          67
                68          68
                69          69
                70          70
                71          71
                72          72
                73          73
                74          74
                75          75
                76          76
                77          77
                78          78
                79          79
                80          80
                81          81
                82          82
                83          83
                84          84
                85          85
                86          86
                87          87
                88          88
                89          89
                90          90
                91          91
                92          92
                93          93
                94          94
                95          95
                96          96
                97          97
                98          98
                99          99
               100         100
               101         101
               102         102
               103         103
               104         104
               105         105
               106         106
               107         107
               108         108
               109         109
               110         110
               111         111
               112         112
               113         113
               114         114
               115         115
               116         116
               117         117
               118         118
               119         119
               120         120
               121         121
               122         122
               123         123
               124         124
               125         125
               126         126
               127         127
               128         128
               129         129
               130         130
               131         131
               132         132
               133         133
               134         134
               135         135
               136         136
               137         137
               138         138
               139         139
               140         140
               141         141
               142         142
               143         143
               144         144
               145         145
               146         146
               147         147
               148         148
               149         149
               150         150
               151         151
               152         152
               153         153
               154         154
               155         155
               156         156
               157         157
               158         158
               159         159
               160         160
               161         161
               162         162
               163         163
               164         164
               165         165
               166         166
               167         167
               168         168
               169         169
               170         170
               171         171
               172         172
               173         173
               174         174
               175         175
               176         176
               177         177
               178         178
               179         179
               180         180
               181         181
               182         182
               183         183
               184         184
               185         185
               186         186
               187         187
               188         188
               189         189
               190         190
               191         191
               192         192
               193         193
               194         194
               195         195
               196         196
               197         197
               198         198
               199         199
               200         200
               201         201
               202         202
               203         203
               204         204
               205         205
               206         206
               207         207
               208         208
               209         209
               210         210
               211         211
               212         212
               213         213
               214         214
               215         215
               216         216
               217         217
               218         218
               219         219
               220         220
               221         221
               222         222
               223         223
               224         224
               225         225
               226         226
               227         227
               228         228
               229         229
               230         230
               231         231
               232         232
               233         233
               234         234
               235         235
               236         236
               237         237
               238         238
               239         239
               240         240
               241         241
               242         242
               243         243
               244         244
               245         245
               246         246
               247         247
               248         248
               249         249
               250         250
               251         251
               252         252
               253         253
               254         254
               255         255
               256         256
               257         257
               258         258
               259         259
               260         260
               261         261
               262         262
               263         263
               264         264
               265         265
               266         266
               267         267
               268         268
               269         269
               270         270
               271         271
               272         272
               273         273
               274         274
               275         275
               276         276
               277         277
               278         278
               279         279
               280         280
               281         281
               282         282
               283         283
               284         284
               285         285
               286         286
               287         287
               288         288
               289         289
               290         290
               291         291
               292         292
               293         293
               294         294
               295         295
               296         296
               297         297
               298         298
               299         299
               300         300
               301         301
               302         302
               303         303
               304         304
               305         305
               306         306
               307         307
               308         308
               309         309
               310         310
               311         311
               312         312
               313         313
               314         314
               315         315
               316         316
               317         317
               318         318
               319         319
               320         320
               321         321
               322         322
               323         323
               324         324
               325         325

----------------------------------------------------------------------------------------

 
 
 KPOINTS: Automatic Mesh                          

Automatic generation of k-mesh.
 Grid dimensions read from file:
 generate k-points for:    3    3    1

 Generating k-lattice:

  Cartesian coordinates                     Fractional coordinates (reciprocal lattice)
     0.018456177  0.000005026 -0.000000000     0.333333333  0.000000000  0.000000000
     0.000000000  0.018454135  0.000000000     0.000000000  0.333333333  0.000000000
     0.000000000 -0.000000000  0.016003201     0.000000000  0.000000000  1.000000000

  Length of vectors
     0.018456178  0.018454135  0.016003201

  Shift w.r.t. Gamma in fractional coordinates (k-lattice)
     0.000000000  0.000000000  0.000000000

 
 Subroutine IBZKPT returns following result:
 ===========================================
 
 Found      5 irreducible k-points:
 
 Following reciprocal coordinates:
            Coordinates               Weight
  0.000000  0.000000  0.000000      1.000000
  0.333333  0.000000  0.000000      2.000000
  0.000000  0.333333  0.000000      2.000000
  0.333333  0.333333  0.000000      2.000000
 -0.333333  0.333333  0.000000      2.000000
 
 Following cartesian coordinates:
            Coordinates               Weight
  0.000000  0.000000  0.000000      1.000000
  0.018456  0.000005  0.000000      2.000000
  0.000000  0.018454  0.000000      2.000000
  0.018456  0.018459  0.000000      2.000000
 -0.018456  0.018449  0.000000      2.000000
 


--------------------------------------------------------------------------------------------------------




 Dimension of arrays:
   k-points           NKPTS =      5   k-points in BZ     NKDIM =      5   number of bands    NBANDS=    732
   number of dos      NEDOS =    301   number of ions     NIONS =    325
   non local maximal  LDIM  =      5   non local SUM 2l+1 LMDIM =     13
   total plane-waves  NPLWV = ******
   max r-space proj   IRMAX =   3336   max aug-charges    IRDMAX=  19845
   dimension x,y,z NGX =   100 NGY =  100 NGZ =  350
   dimension x,y,z NGXF=   200 NGYF=  200 NGZF=  700
   support grid    NGXF=   200 NGYF=  200 NGZF=  700
   ions per type =             143  39  47  72  24
   NGX,Y,Z   is equivalent  to a cutoff of   9.20,  9.20,  9.31 a.u.
   NGXF,Y,Z  is equivalent  to a cutoff of  18.41, 18.41, 18.62 a.u.

 SYSTEM =  PSC                                     
 POSCAR =   H  C  N  I Pb                          

 Startparameter for this run:
   NWRITE =      2    write-flag & timer
   PREC   = normal    normal or accurate (medium, high low for compatibility)
   ISTART =      0    job   : 0-new  1-cont  2-samecut
   ICHARG =      1    charge: 1-file 2-atom 10-const
   ISPIN  =      1    spin polarized calculation?
   LNONCOLLINEAR =      F non collinear calculations
   LSORBIT =      F    spin-orbit coupling
   INIWAV =      1    electr: 0-lowe 1-rand  2-diag
   LASPH  =      F    aspherical Exc in radial PAW
 Electronic Relaxation 1
   ENCUT  =  500.0 eV  36.75 Ry    6.06 a.u.  32.93 32.93113.93*2*pi/ulx,y,z
   ENINI  =  500.0     initial cutoff
   ENAUG  =  644.9 eV  augmentation charge cutoff
   NELM   =    600;   NELMIN=  2; NELMDL=  0     # of ELM steps 
   EDIFF  = 0.1E-03   stopping-criterion for ELM
   LREAL  =      T    real-space projection
   NLSPLINE    = F    spline interpolate recip. space projectors
   LCOMPAT=      F    compatible to vasp.4.4
   GGA_COMPAT  = F    GGA compatible to vasp.4.4-vasp.4.6
   LMAXPAW     = -100 max onsite density
   LMAXMIX     =    2 max onsite mixed and CHGCAR
   VOSKOWN=      0    Vosko Wilk Nusair interpolation
   ROPT   =   -0.00050  -0.00050  -0.00050  -0.00050
   ROPT   =   -0.00050
 Ionic relaxation
   EDIFFG = 0.1E-02   stopping-criterion for IOM
   NSW    =      0    number of steps for IOM
   NBLOCK =      1;   KBLOCK =      1    inner block; outer block 
   IBRION =     -1    ionic relax: 0-MD 1-quasi-New 2-CG
   NFREE  =      0    steps in history (QN), initial steepest desc. (CG)
   ISIF   =      2    stress and relaxation
   IWAVPR =     10    prediction:  0-non 1-charg 2-wave 3-comb
   ISYM   =      0    0-nonsym 1-usesym 2-fastsym
   LCORR  =      T    Harris-Foulkes like correction to forces

   POTIM  = 0.5000    time-step for ionic-motion
   TEIN   =    0.0    initial temperature
   TEBEG  =    0.0;   TEEND  =   0.0 temperature during run
   SMASS  =  -3.00    Nose mass-parameter (am)
   estimated Nose-frequenzy (Omega)   =  0.10E-29 period in steps = 0.13E+47 mass=  -0.745E-26a.u.
   SCALEE = 1.0000    scale energy and forces
   NPACO  =    256;   APACO  = 16.0  distance and # of slots for P.C.
   PSTRESS=    0.0 pullay stress

  Mass of Ions in am
   POMASS =   1.00 12.01 14.00126.90207.20
  Ionic Valenz
   ZVAL   =   1.00  4.00  5.00  7.00  4.00
  Atomic Wigner-Seitz radii
   RWIGS  =  -1.00 -1.00 -1.00 -1.00 -1.00
  virtual crystal weights 
   VCA    =   1.00  1.00  1.00  1.00  1.00
   NELECT =    1134.0000    total number of electrons
   NUPDOWN=      -1.0000    fix difference up-down

 DOS related values:
   EMIN   =  10.00;   EMAX   =-10.00  energy-range for DOS
   EFERMI =   0.00
   ISMEAR =     0;   SIGMA  =   0.05  broadening in eV -4-tet -1-fermi 0-gaus

 Electronic relaxation 2 (details)
   IALGO  =     38    algorithm
   LDIAG  =      T    sub-space diagonalisation (order eigenvalues)
   LSUBROT=      F    optimize rotation matrix (better conditioning)
   TURBO    =      0    0=normal 1=particle mesh
   IRESTART =      0    0=no restart 2=restart with 2 vectors
   NREBOOT  =      0    no. of reboots
   NMIN     =      0    reboot dimension
   EREF     =   0.00    reference energy to select bands
   IMIX   =      4    mixing-type and parameters
     AMIX     =   0.40;   BMIX     =  0.01
     AMIX_MAG =   1.60;   BMIX_MAG =  0.01
     AMIN     =   0.01
     WC   =   100.;   INIMIX=   1;  MIXPRE=   1;  MAXMIX= -45

 Intra band minimization:
   WEIMIN = 0.0000     energy-eigenvalue tresh-hold
   EBREAK =  0.34E-07  absolut break condition
   DEPER  =   0.30     relativ break condition  

   TIME   =   0.40     timestep for ELM

  volume/ion in A,a.u.               =      62.72       423.28
  Fermi-wavevector in a.u.,A,eV,Ry     =   0.624944  1.180972  5.313816  0.390554
  Thomas-Fermi vector in A             =   1.685677
 
 Write flags
   LWAVE        =      F    write WAVECAR
   LDOWNSAMPLE  =      F    k-point downsampling of WAVECAR
   LCHARG       =      T    write CHGCAR
   LVTOT        =      T    write LOCPOT, total local potential
   LVHAR        =      F    write LOCPOT, Hartree potential only
   LELF         =      F    write electronic localiz. function (ELF)
   LORBIT       =      0    0 simple, 1 ext, 2 COOP (PROOUT), +10 PAW based schemes


 Dipole corrections
   LMONO  =      F    monopole corrections only (constant potential shift)
   LDIPOL =      T    correct potential (dipole corrections)
   IDIPOL =      3    1-x, 2-y, 3-z, 4-all directions 
   EPSILON=  1.0000000 bulk dielectric constant

 Exchange correlation treatment:
   GGA     =    --    GGA type
   LEXCH   =     8    internal setting for exchange type
   VOSKOWN=      0    Vosko Wilk Nusair interpolation
   LHFCALC =     F    Hartree Fock is set to
   LHFONE  =     F    Hartree Fock one center treatment
   AEXX    =    0.0000 exact exchange contribution

 Linear response parameters
   LEPSILON=     F    determine dielectric tensor
   LRPA    =     F    only Hartree local field effects (RPA)
   LNABLA  =     F    use nabla operator in PAW spheres
   LVEL    =     F    velocity operator in full k-point grid
   LINTERFAST=   F  fast interpolation
   KINTER  =     0    interpolate to denser k-point grid
   CSHIFT  =0.1000    complex shift for real part using Kramers Kronig
   OMEGAMAX=  -1.0    maximum frequency
   DEG_THRESHOLD= 0.2000000E-02 threshold for treating states as degnerate
   RTIME   =   -0.100 relaxation time in fs
  (WPLASMAI=    0.000 imaginary part of plasma frequency in eV, 0.658/RTIME)
   DFIELD  = 0.0000000 0.0000000 0.0000000 field for delta impulse in time
 
 Orbital magnetization related:
   ORBITALMAG=     F  switch on orbital magnetization
   LCHIMAG   =     F  perturbation theory with respect to B field
   DQ        =  0.001000  dq finite difference perturbation B field
   LLRAUG    =     F  two centre corrections for induced B field



--------------------------------------------------------------------------------------------------------


 Static calculation
 charge density and potential will be updated during run
 non-spin polarized calculation
 Variant of blocked Davidson
 Davidson routine will perform the subspace rotation
 perform sub-space diagonalisation
    after iterative eigenvector-optimisation
 modified Broyden-mixing scheme, WC =      100.0
 initial mixing is a Kerker type mixing with AMIX =  0.4000 and BMIX =      0.0100
 Hartree-type preconditioning will be used
 using additional bands           165
 real space projection scheme for non local part
[...]
     13.54561      0.00000     45.35368        -0.001979      0.002867      0.009096
     13.54315      9.03140     45.35368         0.002174     -0.002990      0.015606
     14.20937     10.25711     33.07287        -0.330566     -0.278946      0.117314
     13.29290      8.72716     33.19295        -0.185429      0.081904     -0.402363
     15.80347      9.13267     34.42536        -0.453202      0.019146      0.256682
     15.35069      8.63258     36.09642        -0.105157      0.305108     -0.300689
     13.38449     11.56020     35.55980         0.469265     -0.340021      0.093261
     14.51245     10.66495     36.67123        -0.482802     -0.190382     -0.144500
     11.74404      9.71577     35.82952         0.782658     -0.270831     -0.037065
     12.23976      8.14947     35.12612        -0.498147     -0.262291     -0.021341
     11.28706      9.91943     33.92180        -0.078726      0.319831     -0.471795
     12.16862     11.45512     34.03023         0.170532      0.154114      0.338317
     11.36386     11.93524     32.04690        -0.529761      0.926526     -0.078750
     12.69178     11.00146     31.46751         0.253450      0.109735     -0.207469
     14.88525      7.13600     33.51864        -0.135694     -0.096626      0.018187
     13.65547      7.00787     34.83850         0.708645      0.020371     -0.382829
     15.29997      6.59724     35.16358         0.205026     -0.272053      0.055306
     15.64431     12.45718     35.11329        -0.365847     -0.237612      0.261124
     15.35798     11.29570     33.85257         0.287585      0.169131     -0.110831
     16.42825     10.87181     35.21299        -0.332209     -0.005491      0.071466
     13.90372      9.04085     37.47490        -0.407611     -0.219690      0.104925
     13.36020      7.37206     37.10886        -0.312056      1.025655     -0.145271
     12.24365      8.50982     37.93754         0.373516      0.109690     -0.714327
      9.90853      9.89365     32.00449        -0.378550      0.047593     -0.044734
     10.51727     10.23383     30.35853        -0.001910      0.239009      0.075168
     12.95121      9.07594     29.95635         0.255459      0.494603     -0.550282
     10.05391      7.66615     32.80730         0.259824      0.040608     -0.403894
     14.04545      6.85282     29.97860         0.303351     -0.046224     -0.244814
     11.15160      5.47277     32.86259         0.207607      0.022186     -0.100143
     13.19952      5.05222     31.45072         0.198714     -0.382468      0.046595
      0.21642      4.33046     34.65910         0.307528     -0.510057      2.106320
      0.04058     13.53987     34.69592        -1.021549      0.875767     -1.017718
      8.96136      4.46655     34.74556        -1.632990      0.913725     -0.198932
      9.07155     13.71179     34.71744        -1.254160      1.422856      1.152420
      4.37875      9.07613     34.73140         1.135847      1.340677     -0.478218
      4.42675      0.03306     34.76252         1.232352      1.047649     -0.501671
     13.65504     17.98062     34.75627        -0.806176     -1.245958     -0.466766
     18.05632      4.48499     40.54777        -1.554048      1.512347     -1.587482
      0.04218     13.64352     40.64387        -0.000628      0.443120     -1.854260
      8.94498      4.44714     40.60870        -1.863812      1.897121      0.818492
      8.93836     13.53650     40.54794         0.008700      0.038142     -0.716490
      4.53928      9.05187     40.53342        -1.463817     -1.595142     -0.394445
      4.48303      0.01935     40.54236         1.856896      1.938366      0.123967
     13.66297      9.01032     40.69315         1.122322      0.919760     -1.032451
     13.53374      0.00558     40.54008         1.774778      1.508011      0.046533
      9.02897      4.51561     46.44552         0.008394      0.004600      0.042985
      9.02651     13.54701     46.44552        -0.001591      0.017186      0.039527
     18.05937      4.51561     46.44552         0.021020     -0.006020      0.037943
     18.05691     13.54701     46.44552         0.016605      0.001779      0.055072
      4.51521      0.00002     46.44421         0.015157      0.015033      0.048600
      4.51275      9.03142     46.44421         0.003612      0.001301      0.047933
     13.54561      0.00002     46.44421         0.001350      0.003628      0.054499
     13.54315      9.03142     46.44421        -0.023687     -0.025192      0.059981
     11.39300      8.55043     31.32013        -0.165603     -0.517195      0.351122
     12.51191      8.28863     30.53413         0.711259     -1.629666      0.386915
     10.90625      7.49719     32.12210         0.188492     -0.696676      0.523748
     13.16208      7.01396     30.57820        -0.739005      1.237464      0.040018
     11.55824      6.22966     32.18540        -0.836466      1.192931     -0.101324
     12.68639      5.99936     31.40488        -0.115217      0.232972     -0.068986
     13.37020      9.74646     33.58424         0.066908     -0.098225     -0.586509
     15.01396      8.67356     35.04330        -0.560100     -0.298961      0.137919
     14.22521     10.83644     35.62129         0.459312      0.744318      0.006219
     12.56816      8.96684     35.76089         0.415035     -0.374356      0.966147
     12.08541     10.53095     33.45700        -0.065318     -0.402750      0.677630
     11.76937     10.94646     32.04999        -0.187035     -1.290130     -0.914803
     14.70401      7.29581     34.58871        -0.548629     -0.571423     -0.164743
     15.49082     11.38291     34.93639        -0.111210      0.032142     -0.354369
     13.02621      8.44735     37.14791         0.123424     -0.298715     -0.304789
     10.80241      9.93715     31.37984         0.209986     -0.056255     -0.063313
      0.80772      3.44409     35.48669        -0.529612      0.849350     -0.652749
      0.77682     12.65205     35.27987         0.898465     -1.103677     -0.544838
      9.99954      3.94499     35.33118         0.133637     -0.395050     -0.425762
      9.64129     12.72994     35.37806        -0.208455      0.345134      0.237355
      8.05917      5.26112     35.35346         0.981495     -0.854132     -1.426163
      8.24873     14.64968     35.28242         1.686916     -1.782149     -1.971268
     17.53483      5.34548     35.07863         0.278011     -0.532288     -0.489796
     17.45772     14.50608     35.31011        -0.559064      0.682769      0.181216
      3.68021      8.17593     35.35531         0.104665     -0.351820      1.082575
      3.56305     17.33680     35.37726         0.001275     -0.319593      1.162004
     12.82206     17.08404     35.29019         0.379725      1.085000      0.250306
      5.45394      0.68401     35.31875        -0.883176     -0.642520      0.204301
      5.23948      9.93619     35.28701        -0.686733     -0.776579      0.322687
     14.27325      0.87518     35.38836         0.026490      0.080219      1.141134
      0.80021      3.71340     41.17901         1.103865     -1.049412      2.202757
      0.80153     12.78140     41.25332         0.888835     -1.146290      0.700082
      9.78641      3.66013     41.18189         1.464236     -1.278827      0.664644
      9.77113     12.66350     41.08552        -0.299070      0.330959     -0.475299
      3.71543      8.15560     41.10077         0.680977      0.827231     -1.774541
      3.68566     17.23564     41.10644        -1.997906     -2.094847     -2.077780
     12.81138      8.24208     41.32292         1.315726      1.698756      0.942910
     12.66258     17.35241     41.17712        -2.108878     -1.964207     -1.824127
      8.16605      5.37221     41.21684         1.081880     -1.314636     -1.501601
      8.14881     14.37432     41.18648         0.196458     -0.228179     -0.390453
     17.16747      5.32922     41.07758         0.880003     -0.826502     -0.629889
     17.26037     14.48731     41.18137        -0.367791      0.094895      1.739183
      5.29830      0.88119     41.19765        -1.039068     -1.170898     -1.801353
      5.29742      9.87234     41.17688         2.098580      2.217014     -1.711391
     14.45143      0.81299     41.11889        -1.149800     -1.041959     -1.710001
     14.45804      9.96283     41.18716        -1.815857     -1.506636      1.642081
      0.82731      3.68697     47.03596         0.011464     -0.018232     -0.089654
      0.82485     12.71837     47.03596         0.011266     -0.022111     -0.096675
      9.85771      3.68697     47.03596         0.023153     -0.021093     -0.088637
      9.85525     12.71837     47.03596         0.033240     -0.028600     -0.088733
      3.68432      8.20234     47.03465        -0.017786     -0.007049     -0.069621
      3.68186     17.23373     47.03465        -0.021452     -0.020323     -0.067927
     12.71472      8.20234     47.03465         0.003994      0.004439     -0.090714
     12.71226     17.23373     47.03465        -0.006072     -0.016469     -0.074733
      8.20068      5.34457     47.03603        -0.015113      0.017039     -0.090246
      8.19822     14.37597     47.03603        -0.011728      0.006598     -0.093873
     17.23108      5.34457     47.03603        -0.022513      0.027800     -0.084794
     17.22862     14.37597     47.03603        -0.022993      0.014378     -0.098839
      5.34365      0.82909     47.03465        -0.000809     -0.000470     -0.071704
      5.34119      9.86049     47.03465         0.006248      0.011027     -0.073082
     14.37405      0.82909     47.03465         0.010020      0.004834     -0.073780
     14.37159      9.86049     47.03465         0.025213      0.025820     -0.078902
     13.75184      9.53412     34.99146         1.296097      1.261654      1.247930
      9.02874      0.17515     34.51475        -0.042939     -0.006399     -0.013419
      8.70382      9.33132     34.78755        -0.094503     -0.100509     -0.115252
     18.04587      0.02382     34.48000         0.032671     -0.071925      0.041121
      0.34599      8.70696     34.33286         0.256909      0.145734      0.076931
      4.58203      4.50456     34.48617        -0.035084      0.006791      0.052361
      4.53050     13.57320     34.52764        -0.022296      0.003236     -0.055867
     13.68677      4.17238     34.69410        -0.189093     -0.436598     -0.060907
     13.28990     13.86820     34.26341        -0.238121      0.667235      0.038388
      0.02543      0.07653     40.88310         0.012796     -0.032137     -0.035802
      0.09704      9.07380     40.82053        -0.002619     -0.006721      0.033548
      9.06765     18.02323     40.94123        -0.034695      0.027462     -0.189934
      8.97846      9.03288     40.99702         0.029603     -0.030745     -0.223708
      4.52439      4.49805     40.93391        -0.027412      0.002042     -0.160844
      4.46660     13.59157     40.85963        -0.001558     -0.016652      0.076637
     13.51278      4.47569     40.96878        -0.066589      0.042220     -0.117654
     13.51600     13.62173     40.89815         0.022992      0.032937     -0.167007
      2.62238      1.92311     38.10300        -0.141703     -0.060761     -0.080242
      2.63874     10.91724     38.01557        -0.083677      0.039413     -0.106874
     11.67288      1.89354     38.02493        -0.096071     -0.064650     -0.036272
     11.32994     11.25276     38.24095        -0.067593      0.250351      0.006774
      6.36652      7.08294     38.06682         0.104998      0.123844     -0.064967
      6.43353     16.16516     38.06512        -0.054732     -0.099187     -0.083052
     15.81829      6.77587     38.26347         0.346197     -0.029875     -0.152268
     15.45326     16.19743     38.00255         0.041631     -0.051708     -0.067805
      1.96599      6.42003     37.98454        -0.048956      0.125510     -0.029304
      1.92755     15.49222     38.06168         0.011804      0.022697     -0.089904
     10.63637      6.13900     37.98691        -0.148045     -0.047955      0.043574
     10.92275     15.54738     38.08931         0.197774     -0.050538     -0.044884
      7.11182      2.55887     37.99109        -0.091843     -0.003741     -0.027799
      7.02496     11.62215     38.07507        -0.020661     -0.081668     -0.006755
     16.11747      2.56349     37.99697         0.051917     -0.067073      0.019523
     16.42914     11.92113     38.26998        -0.158329     -0.194729     -0.045330
      0.00000      0.00000     47.17356        -0.002693     -0.004129      0.397258
     -0.00246      9.03140     47.17356        -0.003427      0.006618      0.295434
      9.03040      0.00000     47.17356         0.002837     -0.003988      0.509505
      9.02794      9.03140     47.17356         0.004631      0.004639      0.525323
      4.51398      4.51570     47.17425        -0.004287      0.001049      0.502762
      4.51152     13.54710     47.17425        -0.004820     -0.002017      0.419272
     13.54438      4.51570     47.17425         0.002066      0.002683      0.497865
     13.54192     13.54710     47.17425         0.004900     -0.003193      0.328310
      2.45192      2.06295     44.04013        -0.030830     -0.028705     -0.014908
      2.44946     11.09435     44.04013        -0.011248     -0.032244     -0.005254
     11.48232      2.06295     44.04013         0.018283      0.005552     -0.013500
     11.47986     11.09435     44.04013         0.050347      0.021662     -0.066025
      6.57602      6.96845     44.04013        -0.018110      0.048901      0.033497
      6.57356     15.99985     44.04013        -0.042987     -0.005445      0.001749
     15.60642      6.96845     44.04013         0.030469      0.038435     -0.038594
     15.60396     15.99985     44.04013        -0.022891     -0.009265     -0.004183
      2.06108      6.57881     44.04000        -0.053439      0.043856     -0.028382
      2.05862     15.61021     44.04000        -0.004568      0.013993     -0.041794
     11.09148      6.57881     44.04000        -0.026839     -0.018816     -0.008151
     11.08902     15.61021     44.04000         0.046278     -0.044706     -0.018251
      6.96686      2.45259     44.04007         0.020896      0.008481      0.014718
      6.96440     11.48399     44.04007        -0.012383      0.028302     -0.029711
     15.99726      2.45259     44.04007         0.025545     -0.003693     -0.012152
     15.99481     11.48399     44.04007         0.020911      0.045994      0.000530
      2.43163      2.08322     50.06849        -0.003341     -0.022485      0.024291
      2.42917     11.11462     50.06849        -0.003830     -0.020836      0.020703
     11.46203      2.08322     50.06849         0.015239     -0.007792      0.024712
     11.45957     11.11462     50.06849         0.031087      0.008644      0.021394
      6.59631      6.94818     50.06849        -0.010111      0.012423      0.025287
      6.59385     15.97958     50.06849        -0.019989     -0.001050      0.024398
     15.62671      6.94818     50.06849         0.007726      0.030268      0.021893
     15.62425     15.97958     50.06849        -0.016847      0.000503      0.020293
      2.08113      6.59901     50.06905        -0.032899      0.012464      0.023397
      2.07867     15.63041     50.06905        -0.014874     -0.009795      0.023078
     11.11153      6.59901     50.06905        -0.005152     -0.009657      0.023066
     11.10907     15.63041     50.06905         0.011579     -0.031304      0.022944
      6.94681      2.43239     50.06905         0.009144      0.009636      0.026408
      6.94435     11.46379     50.06905         0.000884      0.018985      0.023841
     15.97721      2.43239     50.06905         0.018863      0.000663      0.023401
     15.97475     11.46379     50.06905         0.012249      0.008914      0.019174
     18.04795     18.04715     37.68961         0.047922      0.183314      0.045822
      0.01539      9.10346     37.68466         0.089804     -0.077046      0.095814
      8.96172      0.02447     37.63173         0.156679      0.119187      0.122716
      8.96645      9.01909     37.81313        -0.061240     -0.130918      0.147337
      4.51225      4.50552     37.64646        -0.005427     -0.067582      0.022231
      4.47924     13.50621     37.61359         0.067912      0.083728      0.104794
     13.53195      4.44782     37.79572        -0.077315     -0.039542     -0.039872
     13.51598     13.70364     37.77344        -0.050827     -0.058979     -0.051160
      0.00001      0.00001     44.04300         0.030506      0.039944      0.059394
     -0.00245      9.03141     44.04300         0.056443     -0.084294      0.035287
      9.03041      0.00001     44.04300        -0.050088      0.036478      0.044847
      9.02795      9.03141     44.04300        -0.064856     -0.041648      0.246244
      4.51397      4.51569     44.04275         0.045026     -0.009374      0.016828
      4.51151     13.54709     44.04275         0.025718      0.027532     -0.049226
     13.54437      4.51569     44.04275        -0.001978     -0.029115      0.172739
     13.54191     13.54709     44.04275        -0.068999      0.079380      0.183407
      0.00000      0.00000     50.44728         0.010378      0.016248     -0.623346
     -0.00246      9.03140     50.44728         0.008233     -0.017565     -0.593639
      9.03040      0.00000     50.44728        -0.007832      0.016983     -0.656028
      9.02794      9.03140     50.44728        -0.010678     -0.015689     -0.656595
      4.51397      4.51570     50.44728         0.020630     -0.005534     -0.655411
      4.51151     13.54710     50.44728         0.019966      0.008339     -0.630495
     13.54437      4.51570     50.44728        -0.019416     -0.008700     -0.650691
     13.54191     13.54710     50.44728        -0.021148      0.005663     -0.600124
 -----------------------------------------------------------------------------------
    total drift:                               -0.006058      0.019896      0.733447


--------------------------------------------------------------------------------------------------------



  FREE ENERGIE OF THE ION-ELECTRON SYSTEM (eV)
  ---------------------------------------------------
  free  energy   TOTEN  =     -1570.79557089 eV

  energy  without entropy=    -1570.79557089  energy(sigma->0) =    -1570.79557089
 


--------------------------------------------------------------------------------------------------------


    POTLOK:  cpu time    0.5007: real time    0.5006


--------------------------------------------------------------------------------------------------------


     LOOP+:  cpu time  286.3521: real time  286.9127
 vacuum level on the upper side and lower side of the slab         2.425         1.469
    4ORBIT:  cpu time    0.0000: real time    0.0000

 total amount of memory used by VASP MPI-rank0  8653574. kBytes
=======================================================================

   base      :      30000. kBytes
   nonlr-proj:      53612. kBytes
   fftplans  :     249280. kBytes
   grid      :     701440. kBytes
   one-center:       2636. kBytes
   wavefun   :    7616606. kBytes
 
  
  
 General timing and accounting informations for this job:
 ========================================================
  
                  Total CPU time used (sec):      501.773
                            User time (sec):      407.342
                          System time (sec):       94.431
                         Elapsed time (sec):      503.574
  
                   Maximum memory used (kb):    10307040.
                   Average memory used (kb):          N/A
  
                          Minor page faults:      3614095
                          Major page faults:           14
                 Voluntary context switches:        10911
