<?xml version="1.0" encoding="ISO-8859-1"?>
<modeling>
 <generator>
  <i name="program" type="string">vasp </i>
  <i name="version" type="string">6.2.1  </i>
  <i name="subversion" type="string">16May21 (build Nov 15 2021 14:57:28) complex                          parallel </i>
  <i name="platform" type="string">LinuxPGI </i>
  <i name="date" type="string">2023 07 24 </i>
  <i name="time" type="string">21:22:12 </i>
 </generator>
 <incar>
  <i type="string" name="SYSTEM">PSC</i>
  <i type="int" name="ISTART">     1</i>
  <i type="string" name="PREC">Normal</i>
  <i name="BMIX">      0.01000000</i>
  <i name="AMIN">      0.01000000</i>
  <i type="int" name="ICHARG">     1</i>
  <i type="int" name="NELM">   600</i>
  <i type="int" name="ISYM">     0</i>
  <i name="ENCUT">    500.00000000</i>
  <i type="string" name="LREAL">Auto</i>
  <i type="int" name="ISMEAR">     0</i>
  <i name="SIGMA">      0.05000000</i>
  <i type="logical" name="LWAVE"> F  </i>
  <i type="logical" name="LVTOT"> T  </i>
  <i type="logical" name="GGA_COMPAT"> F  </i>
  <i type="logical" name="LDIPOL"> T  </i>
  <i type="int" name="IDIPOL">     3</i>
  <i type="int" name="IVDW">    12</i>
 </incar>
 <primitive_cell>
  <structure name="primitive_cell" >
   <crystal>
    <varray name="basis" >
     <v>      18.06080055       0.00000000       0.00000000 </v>
     <v>      -0.00491865      18.06279945       0.00000000 </v>
     <v>       0.00000000       0.00000000      62.48749924 </v>
    </varray>
    <i name="volume">  20385.21054034 </i>
    <varray name="rec_basis" >
     <v>       0.05536853       0.00001508      -0.00000000 </v>
     <v>       0.00000000       0.05536240       0.00000000 </v>
     <v>       0.00000000      -0.00000000       0.01600320 </v>
    </varray>
   </crystal>
   <varray name="positions" >
    <v>       0.45184328       0.30542069       0.58134516 </v>
    <v>       0.44517905       0.81047462       0.58039825 </v>
    <v>       0.95923466       0.31159992       0.57681782 </v>
    <v>       0.96809365       0.81427035       0.58121549 </v>
    <v>       0.31455886       0.03646030       0.58145950 </v>
    <v>       0.30175946       0.55230156       0.58099951 </v>
    <v>       0.78406589       0.05905166       0.58264254 </v>
    <v>       0.07553758       0.14772931       0.56155250 </v>
    <v>       0.06936568       0.66034689       0.55558372 </v>
    <v>       0.58814721       0.18468801       0.55695197 </v>
    <v>       0.56725415       0.66684956       0.55861954 </v>
    <v>       0.33638696       0.06909250       0.55604139 </v>
    <v>       0.31811379       0.58713384       0.55548409 </v>
    <v>       0.82354739       0.08392763       0.55830252 </v>
    <v>       0.03860206       0.19244967       0.58464245 </v>
    <v>       0.05253153       0.70044199       0.58054367 </v>
    <v>       0.56532819       0.22844505       0.58104658 </v>
    <v>       0.52612371       0.69916360       0.58248400 </v>
    <v>       0.20552311       0.44400381       0.58230623 </v>
    <v>       0.19850439       0.94942068       0.58255603 </v>
    <v>       0.69576965       0.94446377       0.58083572 </v>
    <v>       0.40199756       0.31202619       0.55737692 </v>
    <v>       0.43645774       0.85243322       0.55508112 </v>
    <v>       0.95050342       0.32955302       0.54988110 </v>
    <v>       0.93324002       0.83942730       0.55699629 </v>
    <v>       0.16893760       0.41940605       0.55753955 </v>
    <v>       0.15605232       0.93536788       0.55788807 </v>
    <v>       0.68741057       0.90542341       0.55541639 </v>
    <v>       0.48721458       0.23385721       0.53881584 </v>
    <v>       0.51316398       0.76374691       0.53850499 </v>
    <v>       0.01878693       0.23521532       0.53735546 </v>
    <v>       0.99413099       0.74686295       0.53755832 </v>
    <v>       0.23673521       0.50747367       0.53813632 </v>
    <v>       0.23784902       0.00897568       0.53871255 </v>
    <v>       0.76697814       0.99021454       0.53869844 </v>
    <v>       0.45354818       0.30554276       0.67556798 </v>
    <v>       0.44972238       0.79750951       0.67530261 </v>
    <v>       0.94294955       0.30221690       0.67328640 </v>
    <v>       0.94679517       0.80444549       0.67572646 </v>
    <v>       0.29542835       0.05053124       0.67538057 </v>
    <v>       0.29761818       0.55208134       0.67487320 </v>
    <v>       0.80401029       0.05059122       0.67402977 </v>
    <v>       0.80286091       0.56572950       0.67540963 </v>
    <v>       0.07970838       0.17208017       0.65059149 </v>
    <v>       0.07985107       0.67284711       0.65129048 </v>
    <v>       0.57258838       0.16511435       0.64989824 </v>
    <v>       0.57200548       0.66843518       0.64744670 </v>
    <v>       0.17341638       0.41914074       0.64788276 </v>
    <v>       0.17106100       0.91905616       0.64736953 </v>
    <v>       0.68050864       0.41952139       0.65358336 </v>
    <v>       0.66358407       0.92690975       0.64946010 </v>
    <v>       0.04669991       0.20289512       0.67585698 </v>
    <v>       0.04391866       0.70010182       0.67673094 </v>
    <v>       0.55269041       0.20268321       0.67526458 </v>
    <v>       0.54938351       0.69256700       0.67339164 </v>
    <v>       0.19991338       0.44743107       0.67367545 </v>
    <v>       0.19677348       0.94556751       0.67353309 </v>
    <v>       0.70119504       0.45975242       0.67726077 </v>
    <v>       0.69465700       0.95678109       0.67485873 </v>
    <v>       0.41740796       0.32882259       0.65029651 </v>
    <v>       0.41759694       0.83076568       0.65058410 </v>
    <v>       0.91836057       0.32607676       0.64733107 </v>
    <v>       0.92467205       0.83784954       0.65014780 </v>
    <v>       0.32605818       0.08377260       0.65041439 </v>
    <v>       0.32857567       0.58324968       0.64958006 </v>
    <v>       0.83567149       0.07398876       0.64828604 </v>
    <v>       0.83339246       0.57934344       0.64926682 </v>
    <v>       0.00388145       0.24485864       0.63093174 </v>
    <v>       0.00799550       0.75702101       0.63256719 </v>
    <v>       0.48843204       0.23938497       0.63305112 </v>
    <v>       0.49185242       0.75232149       0.63100524 </v>
    <v>       0.24948642       0.00307053       0.63108216 </v>
    <v>       0.25361338       0.50346121       0.63089419 </v>
    <v>       0.74843592       0.99702944       0.63108655 </v>
    <v>       0.76317731       0.49092566       0.63361941 </v>
    <v>       0.44874502       0.30128397       0.76888902 </v>
    <v>       0.44874501       0.80128391       0.76888902 </v>
    <v>       0.94874497       0.30128397       0.76888902 </v>
    <v>       0.94874501       0.80128391       0.76888902 </v>
    <v>       0.30127600       0.05129450       0.76887296 </v>
    <v>       0.30127601       0.55129450       0.76887296 </v>
    <v>       0.80127594       0.05129450       0.76887296 </v>
    <v>       0.80127598       0.55129450       0.76887296 </v>
    <v>       0.07877100       0.17118050       0.74344197 </v>
    <v>       0.07877101       0.67118045       0.74344197 </v>
    <v>       0.57877100       0.17118050       0.74344197 </v>
    <v>       0.57877099       0.67118045       0.74344197 </v>
    <v>       0.17119950       0.42117448       0.74342103 </v>
    <v>       0.17119950       0.92117451       0.74342103 </v>
    <v>       0.67119951       0.42117448       0.74342103 </v>
    <v>       0.67119950       0.92117451       0.74342103 </v>
    <v>       0.05125600       0.19871499       0.76888902 </v>
    <v>       0.05125600       0.69871493       0.76888902 </v>
    <v>       0.55125603       0.19871499       0.76888902 </v>
    <v>       0.55125602       0.69871493       0.76888902 </v>
    <v>       0.19872349       0.44870397       0.76887205 </v>
    <v>       0.19872349       0.94870397       0.76887205 </v>
    <v>       0.69872352       0.44870397       0.76887205 </v>
    <v>       0.69872351       0.94870397       0.76887205 </v>
    <v>       0.42123152       0.32881747       0.74344197 </v>
    <v>       0.42123151       0.82881744       0.74344197 </v>
    <v>       0.92123147       0.32881747       0.74344197 </v>
    <v>       0.92123151       0.82881744       0.74344197 </v>
    <v>       0.32880050       0.07882500       0.74342103 </v>
    <v>       0.32880049       0.57882496       0.74342103 </v>
    <v>       0.82880048       0.07882500       0.74342103 </v>
    <v>       0.82880052       0.57882496       0.74342103 </v>
    <v>       0.00000350       0.25000148       0.72582199 </v>
    <v>       0.00000350       0.75000145       0.72582199 </v>
    <v>       0.50000351       0.25000148       0.72582199 </v>
    <v>       0.50000350       0.75000145       0.72582199 </v>
    <v>       0.25000050       0.00000000       0.72580398 </v>
    <v>       0.25000052       0.50000000       0.72580398 </v>
    <v>       0.75000050       0.00000000       0.72580398 </v>
    <v>       0.75000049       0.50000000       0.72580398 </v>
    <v>       0.78690642       0.56785825       0.52927175 </v>
    <v>       0.73613994       0.48315679       0.53119346 </v>
    <v>       0.87515239       0.50560659       0.55091592 </v>
    <v>       0.85007510       0.47792058       0.57765832 </v>
    <v>       0.74125396       0.64000029       0.56907067 </v>
    <v>       0.80369359       0.59043750       0.58685700 </v>
    <v>       0.65039665       0.53788821       0.57338696 </v>
    <v>       0.67782032       0.45117400       0.56213032 </v>
    <v>       0.62509759       0.54916364       0.54285736 </v>
    <v>       0.67393134       0.63418272       0.54459263 </v>
    <v>       0.62938004       0.66076373       0.51285294 </v>
    <v>       0.70289083       0.60906701       0.50358095 </v>
    <v>       0.82428213       0.39506596       0.53640557 </v>
    <v>       0.75618887       0.38797275       0.55752759 </v>
    <v>       0.84723616       0.36523922       0.56272980 </v>
    <v>       0.86639034       0.68965917       0.56192495 </v>
    <v>       0.85051888       0.62535737       0.54174941 </v>
    <v>       0.90977174       0.60188959       0.56352061 </v>
    <v>       0.76996497       0.50052312       0.59971834 </v>
    <v>       0.73984553       0.40813474       0.59386054 </v>
    <v>       0.67804104       0.47112388       0.60712210 </v>
    <v>       0.54877009       0.54773625       0.51217434 </v>
    <v>       0.58248031       0.56656935       0.48583362 </v>
    <v>       0.71722637       0.50246560       0.47939755 </v>
    <v>       0.55678599       0.42441650       0.52502176 </v>
    <v>       0.77777948       0.37938856       0.47975358 </v>
    <v>       0.61753038       0.30298566       0.52590664 </v>
    <v>       0.73091395       0.27970325       0.50331219 </v>
    <v>       0.01204811       0.23974484       0.55465659 </v>
    <v>       0.00245104       0.74959982       0.55524576 </v>
    <v>       0.49624495       0.24727907       0.55604023 </v>
    <v>       0.50248500       0.75911782       0.55559013 </v>
    <v>       0.24258182       0.50247637       0.55581356 </v>
    <v>       0.24510294       0.00183027       0.55631153 </v>
    <v>       0.75633041       0.99545046       0.55621159 </v>
    <v>       0.99981969       0.24829999       0.64889407 </v>
    <v>       0.00254122       0.75533824       0.65043204 </v>
    <v>       0.49533723       0.24620424       0.64986912 </v>
    <v>       0.49510818       0.74941307       0.64889676 </v>
    <v>       0.25146985       0.50113304       0.64866441 </v>
    <v>       0.24821888       0.00107118       0.64880750 </v>
    <v>       0.75663441       0.49883291       0.65122071 </v>
    <v>       0.74934345       0.00030894       0.64877112 </v>
    <v>       0.49998898       0.24999498       0.74327702 </v>
    <v>       0.49998903       0.74999496       0.74327702 </v>
    <v>       0.99998898       0.24999498       0.74327702 </v>
    <v>       0.99998903       0.74999496       0.74327702 </v>
    <v>       0.25000050       0.00000100       0.74325596 </v>
    <v>       0.25000052       0.50000100       0.74325596 </v>
    <v>       0.75000050       0.00000100       0.74325596 </v>
    <v>       0.75000049       0.50000100       0.74325596 </v>
    <v>       0.63094284       0.47337232       0.50122226 </v>
    <v>       0.69289113       0.45887840       0.48864385 </v>
    <v>       0.60397582       0.41506273       0.51405643 </v>
    <v>       0.72887052       0.38830965       0.48934900 </v>
    <v>       0.64005691       0.34488922       0.51506939 </v>
    <v>       0.70251734       0.33213897       0.50257858 </v>
    <v>       0.74043551       0.53958761       0.53745534 </v>
    <v>       0.83143158       0.48018925       0.56080498 </v>
    <v>       0.78779233       0.59993116       0.57005463 </v>
    <v>       0.69601565       0.49642560       0.57228872 </v>
    <v>       0.66931008       0.58301890       0.53541910 </v>
    <v>       0.65181773       0.60602238       0.51290245 </v>
    <v>       0.81424923       0.40391357       0.55353009 </v>
    <v>       0.85787536       0.63018520       0.55909406 </v>
    <v>       0.72136947       0.46766537       0.59448548 </v>
    <v>       0.59826362       0.55014435       0.50217783 </v>
    <v>       0.04477410       0.19067314       0.56790057 </v>
    <v>       0.04320199       0.70044801       0.56459077 </v>
    <v>       0.55371939       0.21840439       0.56541204 </v>
    <v>       0.53401593       0.70475984       0.56616213 </v>
    <v>       0.44630351       0.29126829       0.56576850 </v>
    <v>       0.45694108       0.81104130       0.56463167 </v>
    <v>       0.97095849       0.29593849       0.56137040 </v>
    <v>       0.96682712       0.80309160       0.56507475 </v>
    <v>       0.20389093       0.45263898       0.56579816 </v>
    <v>       0.19754235       0.95980684       0.56614937 </v>
    <v>       0.71019600       0.94581362       0.56475596 </v>
    <v>       0.30198719       0.03786852       0.56521309 </v>
    <v>       0.29025194       0.55009124       0.56470517 </v>
    <v>       0.79030201       0.04845201       0.56632708 </v>
    <v>       0.04436260       0.20558259       0.65899600 </v>
    <v>       0.04457242       0.70760886       0.66018515 </v>
    <v>       0.54191409       0.20263349       0.65904209 </v>
    <v>       0.54120429       0.70108200       0.65749986 </v>
    <v>       0.20584108       0.45151360       0.65774386 </v>
    <v>       0.20432925       0.95420631       0.65783464 </v>
    <v>       0.70947153       0.45630114       0.66129902 </v>
    <v>       0.70136982       0.96067087       0.65896566 </v>
    <v>       0.45222319       0.29741825       0.65960129 </v>
    <v>       0.45140449       0.79579665       0.65911547 </v>
    <v>       0.95061809       0.29503821       0.65737282 </v>
    <v>       0.95589972       0.80205207       0.65903367 </v>
    <v>       0.29337255       0.04878480       0.65929428 </v>
    <v>       0.29345919       0.54655622       0.65896182 </v>
    <v>       0.80016668       0.04500891       0.65803390 </v>
    <v>       0.80067088       0.55156625       0.65912646 </v>
    <v>       0.04586250       0.20411950       0.75272599 </v>
    <v>       0.04586250       0.70411946       0.75272599 </v>
    <v>       0.54586251       0.20411950       0.75272599 </v>
    <v>       0.54586250       0.70411946       0.75272599 </v>
    <v>       0.20411900       0.45410100       0.75270499 </v>
    <v>       0.20411899       0.95410095       0.75270499 </v>
    <v>       0.70411898       0.45410100       0.75270499 </v>
    <v>       0.70411896       0.95410095       0.75270499 </v>
    <v>       0.45414002       0.29588849       0.75272697 </v>
    <v>       0.45414001       0.79588852       0.75272697 </v>
    <v>       0.95414002       0.29588849       0.75272697 </v>
    <v>       0.95414006       0.79588852       0.75272697 </v>
    <v>       0.29588249       0.04590050       0.75270499 </v>
    <v>       0.29588248       0.54590053       0.75270499 </v>
    <v>       0.79588244       0.04590050       0.75270499 </v>
    <v>       0.79588248       0.54590053       0.75270499 </v>
    <v>       0.76156270       0.52783162       0.55997528 </v>
    <v>       0.49991045       0.00969687       0.55234644 </v>
    <v>       0.48205864       0.51660414       0.55671218 </v>
    <v>       0.99917344       0.00131870       0.55179030 </v>
    <v>       0.01928804       0.48203827       0.54943564 </v>
    <v>       0.25376818       0.24938322       0.55188907 </v>
    <v>       0.25105177       0.75144521       0.55255278 </v>
    <v>       0.75787939       0.23099325       0.55521664 </v>
    <v>       0.73605143       0.76777707       0.54832421 </v>
    <v>       0.00140923       0.00423713       0.65426044 </v>
    <v>       0.00551002       0.50234754       0.65325920 </v>
    <v>       0.50233406       0.99780918       0.65519080 </v>
    <v>       0.49726019       0.50008205       0.65608362 </v>
    <v>       0.25057690       0.24902279       0.65507359 </v>
    <v>       0.24751377       0.75246172       0.65388494 </v>
    <v>       0.74825006       0.24778500       0.65563156 </v>
    <v>       0.74856644       0.75413182       0.65450127 </v>
    <v>       0.14522623       0.10646808       0.60976997 </v>
    <v>       0.14626753       0.60440439       0.60837077 </v>
    <v>       0.64633894       0.10483077       0.60852052 </v>
    <v>       0.62749205       0.62297968       0.61197763 </v>
    <v>       0.35261183       0.39212862       0.60919100 </v>
    <v>       0.35645893       0.89494197       0.60916377 </v>
    <v>       0.87593790       0.37512839       0.61233799 </v>
    <v>       0.85586839       0.89672864       0.60816247 </v>
    <v>       0.10895061       0.35542812       0.60787415 </v>
    <v>       0.10695944       0.85768638       0.60910871 </v>
    <v>       0.58901273       0.33986985       0.60791218 </v>
    <v>       0.60501106       0.86074009       0.60955087 </v>
    <v>       0.39380946       0.14166503       0.60797909 </v>
    <v>       0.38913703       0.64343003       0.60932298 </v>
    <v>       0.89243907       0.14192094       0.60807322 </v>
    <v>       0.90983710       0.65998242       0.61244214 </v>
    <v>       0.00000000       0.00000000       0.75492797 </v>
    <v>       0.00000000       0.50000000       0.75492797 </v>
    <v>       0.50000000       0.00000000       0.75492797 </v>
    <v>       0.49999999       0.50000000       0.75492797 </v>
    <v>       0.25000050       0.25000000       0.75493902 </v>
    <v>       0.25000051       0.74999997       0.75493902 </v>
    <v>       0.75000047       0.25000000       0.75493902 </v>
    <v>       0.75000046       0.74999997       0.75493902 </v>
    <v>       0.13579050       0.11421000       0.70478299 </v>
    <v>       0.13579050       0.61420998       0.70478299 </v>
    <v>       0.63579045       0.11421000       0.70478299 </v>
    <v>       0.63579049       0.61420998       0.70478299 </v>
    <v>       0.36420952       0.38578999       0.70478299 </v>
    <v>       0.36420950       0.88578996       0.70478299 </v>
    <v>       0.86420954       0.38578999       0.70478299 </v>
    <v>       0.86420953       0.88578996       0.70478299 </v>
    <v>       0.11421799       0.36421899       0.70478098 </v>
    <v>       0.11421799       0.86421899       0.70478098 </v>
    <v>       0.61421800       0.36421899       0.70478098 </v>
    <v>       0.61421799       0.86421899       0.70478098 </v>
    <v>       0.38578201       0.13578149       0.70478202 </v>
    <v>       0.38578200       0.63578149       0.70478202 </v>
    <v>       0.88578199       0.13578149       0.70478202 </v>
    <v>       0.88578203       0.63578149       0.70478202 </v>
    <v>       0.13466700       0.11533200       0.80125603 </v>
    <v>       0.13466699       0.61533199       0.80125603 </v>
    <v>       0.63466699       0.11533200       0.80125603 </v>
    <v>       0.63466698       0.61533199       0.80125603 </v>
    <v>       0.36533300       0.38466799       0.80125603 </v>
    <v>       0.36533299       0.88466796       0.80125603 </v>
    <v>       0.86533295       0.38466799       0.80125603 </v>
    <v>       0.86533294       0.88466796       0.80125603 </v>
    <v>       0.11532850       0.36533700       0.80126500 </v>
    <v>       0.11532850       0.86533698       0.80126500 </v>
    <v>       0.61532850       0.36533700       0.80126500 </v>
    <v>       0.61532849       0.86533698       0.80126500 </v>
    <v>       0.38467151       0.13466300       0.80126500 </v>
    <v>       0.38467150       0.63466297       0.80126500 </v>
    <v>       0.88467149       0.13466300       0.80126500 </v>
    <v>       0.88467153       0.63466297       0.80126500 </v>
    <v>       0.99956065       0.99913336       0.60315433 </v>
    <v>       0.00098922       0.50398918       0.60307521 </v>
    <v>       0.49619746       0.00135456       0.60222818 </v>
    <v>       0.49659524       0.49931859       0.60513104 </v>
    <v>       0.24990450       0.24943631       0.60246382 </v>
    <v>       0.24821234       0.74773627       0.60193790 </v>
    <v>       0.74931110       0.24624186       0.60485242 </v>
    <v>       0.74856656       0.75866619       0.60449597 </v>
    <v>       0.00000050       0.00000050       0.70482896 </v>
    <v>       0.00000050       0.50000048       0.70482896 </v>
    <v>       0.50000048       0.00000050       0.70482896 </v>
    <v>       0.50000046       0.50000048       0.70482896 </v>
    <v>       0.24999999       0.24999947       0.70482499 </v>
    <v>       0.25000001       0.74999950       0.70482499 </v>
    <v>       0.74999999       0.24999947       0.70482499 </v>
    <v>       0.74999998       0.74999950       0.70482499 </v>
    <v>       0.00000000       0.00000000       0.80731797 </v>
    <v>       0.00000000       0.50000000       0.80731797 </v>
    <v>       0.50000000       0.00000000       0.80731797 </v>
    <v>       0.49999999       0.50000000       0.80731797 </v>
    <v>       0.24999999       0.25000000       0.80731797 </v>
    <v>       0.25000001       0.74999997       0.80731797 </v>
    <v>       0.74999999       0.25000000       0.80731797 </v>
    <v>       0.74999998       0.74999997       0.80731797 </v>
   </varray>
  </structure>
  <varray name="primitive_index" >
   <v type="int" >        1 </v>
   <v type="int" >        2 </v>
   <v type="int" >        3 </v>
   <v type="int" >        4 </v>
   <v type="int" >        5 </v>
   <v type="int" >        6 </v>
   <v type="int" >        7 </v>
   <v type="int" >        8 </v>
   <v type="int" >        9 </v>
   <v type="int" >       10 </v>
   <v type="int" >       11 </v>
   <v type="int" >       12 </v>
   <v type="int" >       13 </v>
   <v type="int" >       14 </v>
   <v type="int" >       15 </v>
   <v type="int" >       16 </v>
   <v type="int" >       17 </v>
   <v type="int" >       18 </v>
   <v type="int" >       19 </v>
   <v type="int" >       20 </v>
   <v type="int" >       21 </v>
   <v type="int" >       22 </v>
   <v type="int" >       23 </v>
   <v type="int" >       24 </v>
   <v type="int" >       25 </v>
   <v type="int" >       26 </v>
   <v type="int" >       27 </v>
   <v type="int" >       28 </v>
   <v type="int" >       29 </v>
   <v type="int" >       30 </v>
   <v type="int" >       31 </v>
   <v type="int" >       32 </v>
   <v type="int" >       33 </v>
   <v type="int" >       34 </v>
   <v type="int" >       35 </v>
   <v type="int" >       36 </v>
   <v type="int" >       37 </v>
   <v type="int" >       38 </v>
   <v type="int" >       39 </v>
   <v type="int" >       40 </v>
   <v type="int" >       41 </v>
   <v type="int" >       42 </v>
   <v type="int" >       43 </v>
   <v type="int" >       44 </v>
   <v type="int" >       45 </v>
   <v type="int" >       46 </v>
   <v type="int" >       47 </v>
   <v type="int" >       48 </v>
   <v type="int" >       49 </v>
   <v type="int" >       50 </v>
   <v type="int" >       51 </v>
   <v type="int" >       52 </v>
   <v type="int" >       53 </v>
   <v type="int" >       54 </v>
   <v type="int" >       55 </v>
   <v type="int" >       56 </v>
   <v type="int" >       57 </v>
   <v type="int" >       58 </v>
   <v type="int" >       59 </v>
   <v type="int" >       60 </v>
   <v type="int" >       61 </v>
   <v type="int" >       62 </v>
   <v type="int" >       63 </v>
   <v type="int" >       64 </v>
   <v type="int" >       65 </v>
   <v type="int" >       66 </v>
   <v type="int" >       67 </v>
   <v type="int" >       68 </v>
   <v type="int" >       69 </v>
   <v type="int" >       70 </v>
   <v type="int" >       71 </v>
   <v type="int" >       72 </v>
   <v type="int" >       73 </v>
   <v type="int" >       74 </v>
   <v type="int" >       75 </v>
   <v type="int" >       76 </v>
   <v type="int" >       77 </v>
   <v type="int" >       78 </v>
   <v type="int" >       79 </v>
   <v type="int" >       80 </v>
   <v type="int" >       81 </v>
   <v type="int" >       82 </v>
   <v type="int" >       83 </v>
   <v type="int" >       84 </v>
   <v type="int" >       85 </v>
   <v type="int" >       86 </v>
   <v type="int" >       87 </v>
   <v type="int" >       88 </v>
   <v type="int" >       89 </v>
   <v type="int" >       90 </v>
   <v type="int" >       91 </v>
   <v type="int" >       92 </v>
   <v type="int" >       93 </v>
   <v type="int" >       94 </v>
   <v type="int" >       95 </v>
   <v type="int" >       96 </v>
   <v type="int" >       97 </v>
   <v type="int" >       98 </v>
   <v type="int" >       99 </v>
   <v type="int" >      100 </v>
   <v type="int" >      101 </v>
   <v type="int" >      102 </v>
   <v type="int" >      103 </v>
   <v type="int" >      104 </v>
   <v type="int" >      105 </v>
   <v type="int" >      106 </v>
   <v type="int" >      107 </v>
   <v type="int" >      108 </v>
   <v type="int" >      109 </v>
   <v type="int" >      110 </v>
   <v type="int" >      111 </v>
   <v type="int" >      112 </v>
   <v type="int" >      113 </v>
   <v type="int" >      114 </v>
   <v type="int" >      115 </v>
   <v type="int" >      116 </v>
   <v type="int" >      117 </v>
   <v type="int" >      118 </v>
   <v type="int" >      119 </v>
   <v type="int" >      120 </v>
   <v type="int" >      121 </v>
   <v type="int" >      122 </v>
   <v type="int" >      123 </v>
   <v type="int" >      124 </v>
   <v type="int" >      125 </v>
   <v type="int" >      126 </v>
   <v type="int" >      127 </v>
   <v type="int" >      128 </v>
   <v type="int" >      129 </v>
   <v type="int" >      130 </v>
   <v type="int" >      131 </v>
   <v type="int" >      132 </v>
   <v type="int" >      133 </v>
   <v type="int" >      134 </v>
   <v type="int" >      135 </v>
   <v type="int" >      136 </v>
   <v type="int" >      137 </v>
   <v type="int" >      138 </v>
   <v type="int" >      139 </v>
   <v type="int" >      140 </v>
   <v type="int" >      141 </v>
   <v type="int" >      142 </v>
   <v type="int" >      143 </v>
   <v type="int" >      144 </v>
   <v type="int" >      145 </v>
   <v type="int" >      146 </v>
   <v type="int" >      147 </v>
   <v type="int" >      148 </v>
   <v type="int" >      149 </v>
   <v type="int" >      150 </v>
   <v type="int" >      151 </v>
   <v type="int" >      152 </v>
   <v type="int" >      153 </v>
   <v type="int" >      154 </v>
   <v type="int" >      155 </v>
   <v type="int" >      156 </v>
   <v type="int" >      157 </v>
   <v type="int" >      158 </v>
   <v type="int" >      159 </v>
   <v type="int" >      160 </v>
   <v type="int" >      161 </v>
   <v type="int" >      162 </v>
   <v type="int" >      163 </v>
   <v type="int" >      164 </v>
   <v type="int" >      165 </v>
   <v type="int" >      166 </v>
   <v type="int" >      167 </v>
   <v type="int" >      168 </v>
   <v type="int" >      169 </v>
   <v type="int" >      170 </v>
   <v type="int" >      171 </v>
   <v type="int" >      172 </v>
   <v type="int" >      173 </v>
   <v type="int" >      174 </v>
   <v type="int" >      175 </v>
   <v type="int" >      176 </v>
   <v type="int" >      177 </v>
   <v type="int" >      178 </v>
   <v type="int" >      179 </v>
   <v type="int" >      180 </v>
   <v type="int" >      181 </v>
   <v type="int" >      182 </v>
   <v type="int" >      183 </v>
   <v type="int" >      184 </v>
   <v type="int" >      185 </v>
   <v type="int" >      186 </v>
   <v type="int" >      187 </v>
   <v type="int" >      188 </v>
   <v type="int" >      189 </v>
   <v type="int" >      190 </v>
   <v type="int" >      191 </v>
   <v type="int" >      192 </v>
   <v type="int" >      193 </v>
   <v type="int" >      194 </v>
   <v type="int" >      195 </v>
   <v type="int" >      196 </v>
   <v type="int" >      197 </v>
   <v type="int" >      198 </v>
   <v type="int" >      199 </v>
   <v type="int" >      200 </v>
   <v type="int" >      201 </v>
   <v type="int" >      202 </v>
   <v type="int" >      203 </v>
   <v type="int" >      204 </v>
   <v type="int" >      205 </v>
   <v type="int" >      206 </v>
   <v type="int" >      207 </v>
   <v type="int" >      208 </v>
   <v type="int" >      209 </v>
   <v type="int" >      210 </v>
   <v type="int" >      211 </v>
   <v type="int" >      212 </v>
   <v type="int" >      213 </v>
   <v type="int" >      214 </v>
   <v type="int" >      215 </v>
   <v type="int" >      216 </v>
   <v type="int" >      217 </v>
   <v type="int" >      218 </v>
   <v type="int" >      219 </v>
   <v type="int" >      220 </v>
   <v type="int" >      221 </v>
   <v type="int" >      222 </v>
   <v type="int" >      223 </v>
   <v type="int" >      224 </v>
   <v type="int" >      225 </v>
   <v type="int" >      226 </v>
   <v type="int" >      227 </v>
   <v type="int" >      228 </v>
   <v type="int" >      229 </v>
   <v type="int" >      230 </v>
   <v type="int" >      231 </v>
   <v type="int" >      232 </v>
   <v type="int" >      233 </v>
   <v type="int" >      234 </v>
   <v type="int" >      235 </v>
   <v type="int" >      236 </v>
   <v type="int" >      237 </v>
   <v type="int" >      238 </v>
   <v type="int" >      239 </v>
   <v type="int" >      240 </v>
   <v type="int" >      241 </v>
   <v type="int" >      242 </v>
   <v type="int" >      243 </v>
   <v type="int" >      244 </v>
   <v type="int" >      245 </v>
   <v type="int" >      246 </v>
   <v type="int" >      247 </v>
   <v type="int" >      248 </v>
   <v type="int" >      249 </v>
   <v type="int" >      250 </v>
   <v type="int" >      251 </v>
   <v type="int" >      252 </v>
   <v type="int" >      253 </v>
   <v type="int" >      254 </v>
   <v type="int" >      255 </v>
   <v type="int" >      256 </v>
   <v type="int" >      257 </v>
   <v type="int" >      258 </v>
   <v type="int" >      259 </v>
   <v type="int" >      260 </v>
   <v type="int" >      261 </v>
   <v type="int" >      262 </v>
   <v type="int" >      263 </v>
   <v type="int" >      264 </v>
   <v type="int" >      265 </v>
   <v type="int" >      266 </v>
   <v type="int" >      267 </v>
   <v type="int" >      268 </v>
   <v type="int" >      269 </v>
   <v type="int" >      270 </v>
   <v type="int" >      271 </v>
   <v type="int" >      272 </v>
   <v type="int" >      273 </v>
   <v type="int" >      274 </v>
   <v type="int" >      275 </v>
   <v type="int" >      276 </v>
   <v type="int" >      277 </v>
   <v type="int" >      278 </v>
   <v type="int" >      279 </v>
   <v type="int" >      280 </v>
   <v type="int" >      281 </v>
   <v type="int" >      282 </v>
   <v type="int" >      283 </v>
   <v type="int" >      284 </v>
   <v type="int" >      285 </v>
   <v type="int" >      286 </v>
   <v type="int" >      287 </v>
   <v type="int" >      288 </v>
   <v type="int" >      289 </v>
   <v type="int" >      290 </v>
   <v type="int" >      291 </v>
   <v type="int" >      292 </v>
   <v type="int" >      293 </v>
   <v type="int" >      294 </v>
   <v type="int" >      295 </v>
   <v type="int" >      296 </v>
   <v type="int" >      297 </v>
   <v type="int" >      298 </v>
   <v type="int" >      299 </v>
   <v type="int" >      300 </v>
   <v type="int" >      301 </v>
   <v type="int" >      302 </v>
   <v type="int" >      303 </v>
   <v type="int" >      304 </v>
   <v type="int" >      305 </v>
   <v type="int" >      306 </v>
   <v type="int" >      307 </v>
   <v type="int" >      308 </v>
   <v type="int" >      309 </v>
   <v type="int" >      310 </v>
   <v type="int" >      311 </v>
   <v type="int" >      312 </v>
   <v type="int" >      313 </v>
   <v type="int" >      314 </v>
   <v type="int" >      315 </v>
   <v type="int" >      316 </v>
   <v type="int" >      317 </v>
   <v type="int" >      318 </v>
   <v type="int" >      319 </v>
   <v type="int" >      320 </v>
   <v type="int" >      321 </v>
   <v type="int" >      322 </v>
   <v type="int" >      323 </v>
   <v type="int" >      324 </v>
   <v type="int" >      325 </v>
  </varray>
 </primitive_cell>
 <kpoints>
  <generation param="Gamma">
   <v type="int" name="divisions">       3        3        1 </v>
   <v name="usershift">      0.00000000       0.00000000       0.00000000 </v>
   <v name="genvec1">      0.33333333       0.00000000       0.00000000 </v>
   <v name="genvec2">      0.00000000       0.33333333       0.00000000 </v>
   <v name="genvec3">      0.00000000       0.00000000       1.00000000 </v>
   <v name="shift">      0.00000000       0.00000000       0.00000000 </v>
  </generation>
  <varray name="kpointlist" >
   <v>       0.00000000       0.00000000       0.00000000 </v>
   <v>       0.33333333       0.00000000       0.00000000 </v>
   <v>       0.00000000       0.33333333       0.00000000 </v>
   <v>       0.33333333       0.33333333       0.00000000 </v>
   <v>      -0.33333333       0.33333333       0.00000000 </v>
  </varray>
  <varray name="weights" >
   <v>       0.11111111 </v>
   <v>       0.22222222 </v>
   <v>       0.22222222 </v>
   <v>       0.22222222 </v>
   <v>       0.22222222 </v>
  </varray>
 </kpoints>
 <parameters>
  <separator name="general" >
   <i type="string" name="SYSTEM">PSC</i>
   <i type="logical" name="LCOMPAT"> F  </i>
  </separator>
  <separator name="electronic" >
   <i type="string" name="PREC">normal</i>
   <i name="ENMAX">    500.00000000</i>
   <i name="ENAUG">    644.87300000</i>
   <i name="EDIFF">      0.00010000</i>
   <i type="int" name="IALGO">    38</i>
   <i type="int" name="IWAVPR">    10</i>
   <i type="int" name="NBANDS">   732</i>
   <i type="int" name="NBANDSLOW">    -1</i>
   <i type="int" name="NBANDSHIGH">    -1</i>
   <i name="NELECT">   1134.00000000</i>
   <i type="int" name="TURBO">     0</i>
   <i type="int" name="IRESTART">     0</i>
   <i type="int" name="NREBOOT">     0</i>
   <i type="int" name="NMIN">     0</i>
   <i name="EREF">      0.00000000</i>
   <separator name="electronic smearing" >
    <i type="int" name="ISMEAR">     0</i>
    <i name="SIGMA">      0.05000000</i>
    <i name="KSPACING">      0.50000000</i>
    <i type="logical" name="KGAMMA"> T  </i>
    <i type="logical" name="KBLOWUP"> T  </i>
   </separator>
   <separator name="electronic projectors" >
    <i type="logical" name="LREAL"> T  </i>
    <v name="ROPT">     -0.00050000     -0.00050000     -0.00050000     -0.00050000     -0.00050000</v>
    <i type="int" name="LMAXPAW">  -100</i>
    <i type="int" name="LMAXMIX">     2</i>
    <i type="logical" name="NLSPLINE"> F  </i>
   </separator>
   <separator name="electronic startup" >
    <i type="int" name="ISTART">     0</i>
    <i type="int" name="ICHARG">     1</i>
    <i type="int" name="INIWAV">     1</i>
   </separator>
   <separator name="electronic spin" >
    <i type="int" name="ISPIN">     1</i>
    <i type="logical" name="LNONCOLLINEAR"> F  </i>
    <v name="MAGMOM">      1.00000000      1.00000000      1.00000000      1.00000000      1.00000000      1.00000000      1.00000000      1.00000000      1.00000000      1.00000000      1.00000000      1.00000000      1.00000000      1.00000000      1.00000000      1.00000000      1.00000000      1.00000000      1.00000000      1.00000000
      1.00000000      1.00000000      1.00000000      1.00000000      1.00000000      1.00000000      1.00000000      1.00000000      1.00000000      1.00000000      1.00000000      1.00000000      1.00000000      1.00000000      1.00000000      1.00000000      1.00000000      1.00000000      1.00000000      1.00000000
      1.00000000      1.00000000      1.00000000      1.00000000      1.00000000      1.00000000      1.00000000      1.00000000      1.00000000      1.00000000      1.00000000      1.00000000      1.00000000      1.00000000      1.00000000      1.00000000      1.00000000      1.00000000      1.00000000      1.00000000
      1.00000000      1.00000000      1.00000000      1.00000000      1.00000000      1.00000000      1.00000000      1.00000000      1.00000000      1.00000000      1.00000000      1.00000000      1.00000000      1.00000000      1.00000000      1.00000000      1.00000000      1.00000000      1.00000000      1.00000000
      1.00000000      1.00000000      1.00000000      1.00000000      1.00000000      1.00000000      1.00000000      1.00000000      1.00000000      1.00000000      1.00000000      1.00000000      1.00000000      1.00000000      1.00000000      1.00000000      1.00000000      1.00000000      1.00000000      1.00000000
      1.00000000      1.00000000      1.00000000      1.00000000      1.00000000      1.00000000      1.00000000      1.00000000      1.00000000      1.00000000      1.00000000      1.00000000      1.00000000      1.00000000      1.00000000      1.00000000      1.00000000      1.00000000      1.00000000      1.00000000
      1.00000000      1.00000000      1.00000000      1.00000000      1.00000000      1.00000000      1.00000000      1.00000000      1.00000000      1.00000000      1.00000000      1.00000000      1.00000000      1.00000000      1.00000000      1.00000000      1.00000000      1.00000000      1.00000000      1.00000000
      1.00000000      1.00000000      1.00000000      1.00000000      1.00000000      1.00000000      1.00000000      1.00000000      1.00000000      1.00000000      1.00000000      1.00000000      1.00000000      1.00000000      1.00000000      1.00000000      1.00000000      1.00000000      1.00000000      1.00000000
      1.00000000      1.00000000      1.00000000      1.00000000      1.00000000      1.00000000      1.00000000      1.00000000      1.00000000      1.00000000      1.00000000      1.00000000      1.00000000      1.00000000      1.00000000      1.00000000      1.00000000      1.00000000      1.00000000      1.00000000
      1.00000000      1.00000000      1.00000000      1.00000000      1.00000000      1.00000000      1.00000000      1.00000000      1.00000000      1.00000000      1.00000000      1.00000000      1.00000000      1.00000000      1.00000000      1.00000000      1.00000000      1.00000000      1.00000000      1.00000000
      1.00000000      1.00000000      1.00000000      1.00000000      1.00000000      1.00000000      1.00000000      1.00000000      1.00000000      1.00000000      1.00000000      1.00000000      1.00000000      1.00000000      1.00000000      1.00000000      1.00000000      1.00000000      1.00000000      1.00000000
      1.00000000      1.00000000      1.00000000      1.00000000      1.00000000      1.00000000      1.00000000      1.00000000      1.00000000      1.00000000      1.00000000      1.00000000      1.00000000      1.00000000      1.00000000      1.00000000      1.00000000      1.00000000      1.00000000      1.00000000
      1.00000000      1.00000000      1.00000000      1.00000000      1.00000000      1.00000000      1.00000000      1.00000000      1.00000000      1.00000000      1.00000000      1.00000000      1.00000000      1.00000000      1.00000000      1.00000000      1.00000000      1.00000000      1.00000000      1.00000000
      1.00000000      1.00000000      1.00000000      1.00000000      1.00000000      1.00000000      1.00000000      1.00000000      1.00000000      1.00000000      1.00000000      1.00000000      1.00000000      1.00000000      1.00000000      1.00000000      1.00000000      1.00000000      1.00000000      1.00000000
      1.00000000      1.00000000      1.00000000      1.00000000      1.00000000      1.00000000      1.00000000      1.00000000      1.00000000      1.00000000      1.00000000      1.00000000      1.00000000      1.00000000      1.00000000      1.00000000      1.00000000      1.00000000      1.00000000      1.00000000
      1.00000000      1.00000000      1.00000000      1.00000000      1.00000000      1.00000000      1.00000000      1.00000000      1.00000000      1.00000000      1.00000000      1.00000000      1.00000000      1.00000000      1.00000000      1.00000000      1.00000000      1.00000000      1.00000000      1.00000000
      1.00000000      1.00000000      1.00000000      1.00000000      1.00000000</v>
    <i name="NUPDOWN">     -1.00000000</i>
    <i type="logical" name="LSORBIT"> F  </i>
    <v name="SAXIS">      0.00000000      0.00000000      1.00000000</v>
    <i type="logical" name="LSPIRAL"> F  </i>
    <v name="QSPIRAL">      0.00000000      0.00000000      0.00000000</v>
    <i type="logical" name="LZEROZ"> F  </i>
   </separator>
   <separator name="electronic exchange-correlation" >
    <i type="logical" name="LASPH"> F  </i>
    <i type="logical" name="LMETAGGA"> F  </i>
   </separator>
   <separator name="electronic convergence" >
    <i type="int" name="NELM">   600</i>
    <i type="int" name="NELMDL">     0</i>
    <i type="int" name="NELMIN">     2</i>
    <i name="ENINI">    500.00000000</i>
    <separator name="electronic convergence detail" >
     <i type="logical" name="LDIAG"> T  </i>
     <i type="logical" name="LSUBROT"> F  </i>
     <i name="WEIMIN">      0.00000000</i>
     <i name="EBREAK">      0.00000003</i>
     <i name="DEPER">      0.30000000</i>
     <i type="int" name="NRMM">     4</i>
     <i name="TIME">      0.40000000</i>
    </separator>
   </separator>
   <separator name="electronic mixer" >
    <i name="AMIX">      0.40000000</i>
    <i name="BMIX">      0.01000000</i>
    <i name="AMIN">      0.01000000</i>
    <i name="AMIX_MAG">      1.60000000</i>
    <i name="BMIX_MAG">      0.01000000</i>
    <separator name="electronic mixer details" >
     <i type="int" name="IMIX">     4</i>
     <i type="logical" name="MIXFIRST"> F  </i>
     <i type="int" name="MAXMIX">   -45</i>
     <i name="WC">    100.00000000</i>
     <i type="int" name="INIMIX">     1</i>
     <i type="int" name="MIXPRE">     1</i>
     <i type="int" name="MREMOVE">     5</i>
    </separator>
   </separator>
   <separator name="electronic dipolcorrection" >
    <i type="logical" name="LDIPOL"> T  </i>
    <i type="logical" name="LMONO"> F  </i>
    <i type="int" name="IDIPOL">     3</i>
    <i name="EPSILON">      1.00000000</i>
    <v name="DIPOL">   -100.00000000   -100.00000000   -100.00000000</v>
    <i name="EFIELD">      0.00000000</i>
   </separator>
  </separator>
  <separator name="grids" >
   <i type="int" name="NGX">   100</i>
   <i type="int" name="NGY">   100</i>
   <i type="int" name="NGZ">   350</i>
   <i type="int" name="NGXF">   200</i>
   <i type="int" name="NGYF">   200</i>
   <i type="int" name="NGZF">   700</i>
   <i type="logical" name="ADDGRID"> F  </i>
  </separator>
  <separator name="ionic" >
   <i type="int" name="NSW">     0</i>
   <i type="int" name="IBRION">    -1</i>
   <i type="int" name="MDALGO">     0</i>
   <i type="int" name="ISIF">     2</i>
   <i name="PSTRESS">      0.00000000</i>
   <i name="EDIFFG">      0.00100000</i>
   <i type="int" name="NFREE">     0</i>
   <i name="POTIM">      0.50000000</i>
   <i name="SMASS">     -3.00000000</i>
   <i name="SCALEE">      1.00000000</i>
  </separator>
  <separator name="ionic md" >
   <i name="TEBEG">      0.00010000</i>
   <i name="TEEND">      0.00010000</i>
   <i type="int" name="NBLOCK">     1</i>
   <i type="int" name="KBLOCK">     1</i>
   <i type="int" name="NPACO">   256</i>
   <i name="APACO">     16.00000000</i>
  </separator>
  <separator name="symmetry" >
   <i type="int" name="ISYM">     0</i>
   <i name="SYMPREC">      0.00001000</i>
  </separator>
  <separator name="dos" >
   <i type="int" name="LORBIT">     0</i>
   <v name="RWIGS">     -1.00000000     -1.00000000     -1.00000000     -1.00000000     -1.00000000</v>
   <i type="int" name="NEDOS">   301</i>
   <i name="EMIN">     10.00000000</i>
   <i name="EMAX">    -10.00000000</i>
   <i name="EFERMI">      0.00000000</i>
  </separator>
  <separator name="writing" >
   <i type="int" name="NWRITE">     2</i>
   <i type="logical" name="LWAVE"> F  </i>
   <i type="logical" name="LDOWNSAMPLE"> F  </i>
   <i type="logical" name="LCHARG"> T  </i>
   <i type="logical" name="LPARD"> F  </i>
   <i type="logical" name="LVTOT"> T  </i>
   <i type="logical" name="LVHAR"> F  </i>
   <i type="logical" name="LELF"> F  </i>
   <i type="logical" name="LOPTICS"> F  </i>
   <v name="STM">      0.00000000      0.00000000      0.00000000      0.00000000      0.00000000      0.00000000      0.00000000</v>
  </separator>
  <separator name="performance" >
   <i type="int" name="NPAR">     4</i>
   <i type="int" name="NSIM">     4</i>
   <i type="int" name="NBLK">    -1</i>
   <i type="logical" name="LPLANE"> T  </i>
   <i type="logical" name="LSCALAPACK"> T  </i>
   <i type="logical" name="LSCAAWARE"> F  </i>
   <i type="logical" name="LSCALU"> F  </i>
   <i type="logical" name="LASYNC"> F  </i>
   <i type="logical" name="LORBITALREAL"> F  </i>
  </separator>
  <separator name="miscellaneous" >
   <i type="int" name="IDIOT">     3</i>
   <i type="int" name="PHON_NSTRUCT">    -1</i>
   <i type="logical" name="LMUSIC"> F  </i>
   <v name="POMASS">      1.00000000     12.01100000     14.00100000    126.90400000    207.20000000</v>
   <v name="DARWINR">      0.00000000      0.00000000      0.00000000      0.00000000      0.00000000</v>
   <v name="DARWINV">      1.00000000      1.00000000      1.00000000      1.00000000      1.00000000</v>
   <i type="logical" name="LCORR"> T  </i>
  </separator>
  <i type="logical" name="GGA_COMPAT"> F  </i>
  <i type="logical" name="LBERRY"> F  </i>
  <i type="int" name="ICORELEVEL">     0</i>
  <i type="logical" name="LDAU"> F  </i>
  <i type="int" name="I_CONSTRAINED_M">     0</i>
  <separator name="electronic exchange-correlation" >
   <i type="string" name="GGA">--</i>
   <i type="int" name="VOSKOWN">     0</i>
   <i type="logical" name="LHFCALC"> F  </i>
   <i type="string" name="PRECFOCK"></i>
   <i type="logical" name="LSYMGRAD"> F  </i>
   <i type="logical" name="LHFONE"> F  </i>
   <i type="logical" name="LRHFCALC"> F  </i>
   <i type="logical" name="LTHOMAS"> F  </i>
   <i type="logical" name="LMODELHF"> F  </i>
   <i type="logical" name="LFOCKACE"> F  </i>
   <i name="ENCUT4O">     -1.00000000</i>
   <i type="int" name="EXXOEP">     0</i>
   <i type="int" name="FOURORBIT">     0</i>
   <i name="AEXX">      0.00000000</i>
   <i name="HFALPHA">      0.00000000</i>
   <i name="MCALPHA">      0.00000000</i>
   <i name="ALDAX">      1.00000000</i>
   <i name="AGGAX">      1.00000000</i>
   <i name="ALDAC">      1.00000000</i>
   <i name="AGGAC">      1.00000000</i>
   <i type="int" name="NKREDX">     1</i>
   <i type="int" name="NKREDY">     1</i>
   <i type="int" name="NKREDZ">     1</i>
   <i type="logical" name="SHIFTRED"> F  </i>
   <i type="logical" name="ODDONLY"> F  </i>
   <i type="logical" name="EVENONLY"> F  </i>
   <i type="int" name="LMAXFOCK">     0</i>
   <i type="int" name="NMAXFOCKAE">     0</i>
   <i type="logical" name="LFOCKAEDFT"> F  </i>
   <i name="HFSCREEN">      0.00000000</i>
   <i name="HFSCREENC">      0.00000000</i>
   <i type="int" name="NBANDSGWLOW">     0</i>
  </separator>
  <separator name="vdW DFT" >
   <i type="logical" name="LUSE_VDW"> F  </i>
   <i name="Zab_VDW">     -0.84910000</i>
   <i name="PARAM1">      0.12340000</i>
   <i name="PARAM2">      1.00000000</i>
   <i name="PARAM3">      0.00000000</i>
  </separator>
  <separator name="model GW" >
   <i type="int" name="MODEL_GW">     0</i>
   <i name="MODEL_EPS0">     37.63423484</i>
   <i name="MODEL_ALPHA">      1.00000000</i>
  </separator>
  <separator name="linear response parameters" >
   <i type="logical" name="LEPSILON"> F  </i>
   <i type="logical" name="LRPA"> F  </i>
   <i type="logical" name="LNABLA"> F  </i>
   <i type="logical" name="LVEL"> F  </i>
   <i type="int" name="KINTER">     0</i>
   <i name="CSHIFT">      0.10000000</i>
   <i name="OMEGAMAX">     -1.00000000</i>
   <i name="DEG_THRESHOLD">      0.00200000</i>
   <i name="RTIME">     -0.10000000</i>
   <i name="WPLASMAI">      0.00000000</i>
   <v name="DFIELD">      0.00000000      0.00000000      0.00000000</v>
   <v name="WPLASMA">      0.00000000      0.00000000      0.00000000      0.00000000      0.00000000      0.00000000      0.00000000      0.00000000      0.00000000</v>
  </separator>
  <separator name="orbital magnetization" >
   <i type="logical" name="NUCIND"> F  </i>
   <v name="MAGPOS">      0.00000000      0.00000000      0.00000000</v>
   <i type="logical" name="LNICSALL"> T  </i>
   <i type="logical" name="ORBITALMAG"> F  </i>
   <i type="logical" name="LMAGBLOCH"> F  </i>
   <i type="logical" name="LCHIMAG"> F  </i>
   <i type="logical" name="LGAUGE"> T  </i>
   <i type="int" name="MAGATOM">     0</i>
   <v name="MAGDIPOL">      0.00000000      0.00000000      0.00000000</v>
   <v name="AVECCONST">      0.00000000      0.00000000      0.00000000</v>
  </separator>
  <separator name="response functions" >
   <i type="logical" name="LFINITE_TEMPERATURE"> F  </i>
   <i type="logical" name="LADDER"> F  </i>
   <i type="logical" name="LRPAFORCE"> F  </i>
   <i type="logical" name="LFXC"> F  </i>
   <i type="logical" name="LHARTREE"> T  </i>
   <i type="int" name="IBSE">     0</i>
   <v type="int" name="KPOINT">    -1     0     0     0</v>
   <i type="logical" name="LTCTC"> F  </i>
   <i type="logical" name="LTCTE"> F  </i>
   <i type="logical" name="LTETE"> F  </i>
   <i type="logical" name="LTRIPLET"> F  </i>
   <i type="logical" name="LFXCEPS"> F  </i>
   <i type="logical" name="LFXHEG"> F  </i>
   <i type="int" name="NATURALO">     2</i>
   <i type="logical" name="LHOLEGF"> F  </i>
   <i type="logical" name="L2ORDER"> F  </i>
   <i type="logical" name="LDMP1"> F  </i>
   <i type="logical" name="LMP2LT"> F  </i>
   <i type="logical" name="LSMP2LT"> F  </i>
   <i type="logical" name="LGWLF"> F  </i>
   <i name="ENCUTGW">     -2.00000000</i>
   <i name="ENCUTGWSOFT">     -2.00000000</i>
   <i name="ENCUTLF">     -1.00000000</i>
   <i type="logical" name="LESF_SPLINES"> F  </i>
   <i type="int" name="LMAXMP2">    -1</i>
   <i name="SCISSOR">      0.00000000</i>
   <i type="int" name="NOMEGA">     0</i>
   <i type="int" name="NOMEGAR">     0</i>
   <i type="int" name="NBANDSGW">    -1</i>
   <i type="int" name="NBANDSO">    -1</i>
   <i type="int" name="NBANDSV">    -1</i>
   <i type="int" name="NELM">   600</i>
   <i type="int" name="NELMHF">     1</i>
   <i type="int" name="DIM">     3</i>
   <i type="int" name="IESPILON">     4</i>
   <i type="int" name="ANTIRES">     0</i>
   <i name="OMEGAMAX">    -30.00000000</i>
   <i name="OMEGAMIN">    -30.00000000</i>
   <i name="OMEGATL">   -200.00000000</i>
   <i type="int" name="OMEGAGRID">     0</i>
   <i name="CSHIFT">     -0.10000000</i>
   <i type="logical" name="LSELFENERGY"> F  </i>
   <i type="logical" name="LSPECTRAL"> F  </i>
   <i type="logical" name="LSPECTRALGW"> F  </i>
   <i type="logical" name="LSINGLES"> F  </i>
   <i type="logical" name="LFERMIGW"> F  </i>
   <i type="logical" name="ODDONLYGW"> F  </i>
   <i type="logical" name="EVENONLYGW"> F  </i>
   <i type="int" name="NKREDLFX">     1</i>
   <i type="int" name="NKREDLFY">     1</i>
   <i type="int" name="NKREDLFZ">     1</i>
   <i type="int" name="MAXMEM">  2800</i>
   <i type="int" name="TELESCOPE">     0</i>
   <i type="int" name="NTAUPAR">    -1</i>
   <i type="int" name="NOMEGAPAR">    -1</i>
   <i name="DAMP_NEWTON">      0.80000001</i>
   <i name="LAMBDA">      1.00000000</i>
  </separator>
  <separator name="External order field" >
   <i name="OFIELD_KAPPA">      0.00000000</i>
   <v name="OFIELD_K">      0.00000000      0.00000000      0.00000000</v>
   <i name="OFIELD_Q6_NEAR">      0.00000000</i>
   <i name="OFIELD_Q6_FAR">      0.00000000</i>
   <i name="OFIELD_A">      0.00000000</i>
  </separator>
 </parameters>
 <atominfo>
  <atoms>     325 </atoms>
  <types>       5 </types>
  <array name="atoms" >
   <dimension dim="1">ion</dimension>
   <field type="string">element</field>
   <field type="int">atomtype</field>
   <set>
    <rc><c>H </c><c>   1</c></rc>
    <rc><c>H </c><c>   1</c></rc>
    <rc><c>H </c><c>   1</c></rc>
    <rc><c>H </c><c>   1</c></rc>
    <rc><c>H </c><c>   1</c></rc>
    <rc><c>H </c><c>   1</c></rc>
    <rc><c>H </c><c>   1</c></rc>
    <rc><c>H </c><c>   1</c></rc>
    <rc><c>H </c><c>   1</c></rc>
    <rc><c>H </c><c>   1</c></rc>
    <rc><c>H </c><c>   1</c></rc>
    <rc><c>H </c><c>   1</c></rc>
    <rc><c>H </c><c>   1</c></rc>
    <rc><c>H </c><c>   1</c></rc>
    <rc><c>H </c><c>   1</c></rc>
    <rc><c>H </c><c>   1</c></rc>
    <rc><c>H </c><c>   1</c></rc>
    <rc><c>H </c><c>   1</c></rc>
    <rc><c>H </c><c>   1</c></rc>
    <rc><c>H </c><c>   1</c></rc>
    <rc><c>H </c><c>   1</c></rc>
    <rc><c>H </c><c>   1</c></rc>
    <rc><c>H </c><c>   1</c></rc>
    <rc><c>H </c><c>   1</c></rc>
    <rc><c>H </c><c>   1</c></rc>
    <rc><c>H </c><c>   1</c></rc>
    <rc><c>H </c><c>   1</c></rc>
    <rc><c>H </c><c>   1</c></rc>
    <rc><c>H </c><c>   1</c></rc>
    <rc><c>H </c><c>   1</c></rc>
    <rc><c>H </c><c>   1</c></rc>
    <rc><c>H </c><c>   1</c></rc>
    <rc><c>H </c><c>   1</c></rc>
    <rc><c>H </c><c>   1</c></rc>
    <rc><c>H </c><c>   1</c></rc>
    <rc><c>H </c><c>   1</c></rc>
    <rc><c>H </c><c>   1</c></rc>
    <rc><c>H </c><c>   1</c></rc>
    <rc><c>H </c><c>   1</c></rc>
    <rc><c>H </c><c>   1</c></rc>
    <rc><c>H </c><c>   1</c></rc>
    <rc><c>H </c><c>   1</c></rc>
    <rc><c>H </c><c>   1</c></rc>
    <rc><c>H </c><c>   1</c></rc>
    <rc><c>H </c><c>   1</c></rc>
    <rc><c>H </c><c>   1</c></rc>
    <rc><c>H </c><c>   1</c></rc>
    <rc><c>H </c><c>   1</c></rc>
    <rc><c>H </c><c>   1</c></rc>
    <rc><c>H </c><c>   1</c></rc>
    <rc><c>H </c><c>   1</c></rc>
    <rc><c>H </c><c>   1</c></rc>
    <rc><c>H </c><c>   1</c></rc>
    <rc><c>H </c><c>   1</c></rc>
    <rc><c>H </c><c>   1</c></rc>
    <rc><c>H </c><c>   1</c></rc>
    <rc><c>H </c><c>   1</c></rc>
    <rc><c>H </c><c>   1</c></rc>
    <rc><c>H </c><c>   1</c></rc>
    <rc><c>H </c><c>   1</c></rc>
    <rc><c>H </c><c>   1</c></rc>
    <rc><c>H </c><c>   1</c></rc>
    <rc><c>H </c><c>   1</c></rc>
    <rc><c>H </c><c>   1</c></rc>
    <rc><c>H </c><c>   1</c></rc>
    <rc><c>H </c><c>   1</c></rc>
    <rc><c>H </c><c>   1</c></rc>
    <rc><c>H </c><c>   1</c></rc>
    <rc><c>H </c><c>   1</c></rc>
    <rc><c>H </c><c>   1</c></rc>
    <rc><c>H </c><c>   1</c></rc>
    <rc><c>H </c><c>   1</c></rc>
    <rc><c>H </c><c>   1</c></rc>
    <rc><c>H </c><c>   1</c></rc>
    <rc><c>H </c><c>   1</c></rc>
    <rc><c>H </c><c>   1</c></rc>
    <rc><c>H </c><c>   1</c></rc>
    <rc><c>H </c><c>   1</c></rc>
    <rc><c>H </c><c>   1</c></rc>
    <rc><c>H </c><c>   1</c></rc>
    <rc><c>H </c><c>   1</c></rc>
    <rc><c>H </c><c>   1</c></rc>
    <rc><c>H </c><c>   1</c></rc>
    <rc><c>H </c><c>   1</c></rc>
    <rc><c>H </c><c>   1</c></rc>
    <rc><c>H </c><c>   1</c></rc>
    <rc><c>H </c><c>   1</c></rc>
    <rc><c>H </c><c>   1</c></rc>
    <rc><c>H </c><c>   1</c></rc>
    <rc><c>H </c><c>   1</c></rc>
    <rc><c>H </c><c>   1</c></rc>
    <rc><c>H </c><c>   1</c></rc>
    <rc><c>H </c><c>   1</c></rc>
    <rc><c>H </c><c>   1</c></rc>
    <rc><c>H </c><c>   1</c></rc>
    <rc><c>H </c><c>   1</c></rc>
    <rc><c>H </c><c>   1</c></rc>
    <rc><c>H </c><c>   1</c></rc>
    <rc><c>H </c><c>   1</c></rc>
    <rc><c>H </c><c>   1</c></rc>
    <rc><c>H </c><c>   1</c></rc>
    <rc><c>H </c><c>   1</c></rc>
    <rc><c>H </c><c>   1</c></rc>
    <rc><c>H </c><c>   1</c></rc>
    <rc><c>H </c><c>   1</c></rc>
    <rc><c>H </c><c>   1</c></rc>
    <rc><c>H </c><c>   1</c></rc>
    <rc><c>H </c><c>   1</c></rc>
    <rc><c>H </c><c>   1</c></rc>
    <rc><c>H </c><c>   1</c></rc>
    <rc><c>H </c><c>   1</c></rc>
    <rc><c>H </c><c>   1</c></rc>
    <rc><c>H </c><c>   1</c></rc>
    <rc><c>H </c><c>   1</c></rc>
    <rc><c>H </c><c>   1</c></rc>
    <rc><c>H </c><c>   1</c></rc>
    <rc><c>H </c><c>   1</c></rc>
    <rc><c>H </c><c>   1</c></rc>
    <rc><c>H </c><c>   1</c></rc>
    <rc><c>H </c><c>   1</c></rc>
    <rc><c>H </c><c>   1</c></rc>
    <rc><c>H </c><c>   1</c></rc>
    <rc><c>H </c><c>   1</c></rc>
    <rc><c>H </c><c>   1</c></rc>
    <rc><c>H </c><c>   1</c></rc>
    <rc><c>H </c><c>   1</c></rc>
    <rc><c>H </c><c>   1</c></rc>
    <rc><c>H </c><c>   1</c></rc>
    <rc><c>H </c><c>   1</c></rc>
    <rc><c>H </c><c>   1</c></rc>
    <rc><c>H </c><c>   1</c></rc>
    <rc><c>H </c><c>   1</c></rc>
    <rc><c>H </c><c>   1</c></rc>
    <rc><c>H </c><c>   1</c></rc>
    <rc><c>H </c><c>   1</c></rc>
    <rc><c>H </c><c>   1</c></rc>
    <rc><c>H </c><c>   1</c></rc>
    <rc><c>H </c><c>   1</c></rc>
    <rc><c>H </c><c>   1</c></rc>
    <rc><c>H </c><c>   1</c></rc>
    <rc><c>H </c><c>   1</c></rc>
    <rc><c>H </c><c>   1</c></rc>
    <rc><c>H </c><c>   1</c></rc>
    <rc><c>C </c><c>   2</c></rc>
    <rc><c>C </c><c>   2</c></rc>
    <rc><c>C </c><c>   2</c></rc>
    <rc><c>C </c><c>   2</c></rc>
    <rc><c>C </c><c>   2</c></rc>
    <rc><c>C </c><c>   2</c></rc>
    <rc><c>C </c><c>   2</c></rc>
    <rc><c>C </c><c>   2</c></rc>
    <rc><c>C </c><c>   2</c></rc>
    <rc><c>C </c><c>   2</c></rc>
    <rc><c>C </c><c>   2</c></rc>
    <rc><c>C </c><c>   2</c></rc>
    <rc><c>C </c><c>   2</c></rc>
    <rc><c>C </c><c>   2</c></rc>
    <rc><c>C </c><c>   2</c></rc>
    <rc><c>C </c><c>   2</c></rc>
    <rc><c>C </c><c>   2</c></rc>
    <rc><c>C </c><c>   2</c></rc>
    <rc><c>C </c><c>   2</c></rc>
    <rc><c>C </c><c>   2</c></rc>
    <rc><c>C </c><c>   2</c></rc>
    <rc><c>C </c><c>   2</c></rc>
    <rc><c>C </c><c>   2</c></rc>
    <rc><c>C </c><c>   2</c></rc>
    <rc><c>C </c><c>   2</c></rc>
    <rc><c>C </c><c>   2</c></rc>
    <rc><c>C </c><c>   2</c></rc>
    <rc><c>C </c><c>   2</c></rc>
    <rc><c>C </c><c>   2</c></rc>
    <rc><c>C </c><c>   2</c></rc>
    <rc><c>C </c><c>   2</c></rc>
    <rc><c>C </c><c>   2</c></rc>
    <rc><c>C </c><c>   2</c></rc>
    <rc><c>C </c><c>   2</c></rc>
    <rc><c>C </c><c>   2</c></rc>
    <rc><c>C </c><c>   2</c></rc>
    <rc><c>C </c><c>   2</c></rc>
    <rc><c>C </c><c>   2</c></rc>
    <rc><c>C </c><c>   2</c></rc>
    <rc><c>N </c><c>   3</c></rc>
    <rc><c>N </c><c>   3</c></rc>
    <rc><c>N </c><c>   3</c></rc>
    <rc><c>N </c><c>   3</c></rc>
    <rc><c>N </c><c>   3</c></rc>
    <rc><c>N </c><c>   3</c></rc>
    <rc><c>N </c><c>   3</c></rc>
    <rc><c>N </c><c>   3</c></rc>
    <rc><c>N </c><c>   3</c></rc>
    <rc><c>N </c><c>   3</c></rc>
    <rc><c>N </c><c>   3</c></rc>
    <rc><c>N </c><c>   3</c></rc>
    <rc><c>N </c><c>   3</c></rc>
    <rc><c>N </c><c>   3</c></rc>
    <rc><c>N </c><c>   3</c></rc>
    <rc><c>N </c><c>   3</c></rc>
    <rc><c>N </c><c>   3</c></rc>
    <rc><c>N </c><c>   3</c></rc>
    <rc><c>N </c><c>   3</c></rc>
    <rc><c>N </c><c>   3</c></rc>
    <rc><c>N </c><c>   3</c></rc>
    <rc><c>N </c><c>   3</c></rc>
    <rc><c>N </c><c>   3</c></rc>
    <rc><c>N </c><c>   3</c></rc>
    <rc><c>N </c><c>   3</c></rc>
    <rc><c>N </c><c>   3</c></rc>
    <rc><c>N </c><c>   3</c></rc>
    <rc><c>N </c><c>   3</c></rc>
    <rc><c>N </c><c>   3</c></rc>
    <rc><c>N </c><c>   3</c></rc>
    <rc><c>N </c><c>   3</c></rc>
    <rc><c>N </c><c>   3</c></rc>
    <rc><c>N </c><c>   3</c></rc>
    <rc><c>N </c><c>   3</c></rc>
    <rc><c>N </c><c>   3</c></rc>
    <rc><c>N </c><c>   3</c></rc>
    <rc><c>N </c><c>   3</c></rc>
    <rc><c>N </c><c>   3</c></rc>
    <rc><c>N </c><c>   3</c></rc>
    <rc><c>N </c><c>   3</c></rc>
    <rc><c>N </c><c>   3</c></rc>
    <rc><c>N </c><c>   3</c></rc>
    <rc><c>N </c><c>   3</c></rc>
    <rc><c>N </c><c>   3</c></rc>
    <rc><c>N </c><c>   3</c></rc>
    <rc><c>N </c><c>   3</c></rc>
    <rc><c>N </c><c>   3</c></rc>
    <rc><c>I </c><c>   4</c></rc>
    <rc><c>I </c><c>   4</c></rc>
    <rc><c>I </c><c>   4</c></rc>
    <rc><c>I </c><c>   4</c></rc>
    <rc><c>I </c><c>   4</c></rc>
    <rc><c>I </c><c>   4</c></rc>
    <rc><c>I </c><c>   4</c></rc>
    <rc><c>I </c><c>   4</c></rc>
    <rc><c>I </c><c>   4</c></rc>
    <rc><c>I </c><c>   4</c></rc>
    <rc><c>I </c><c>   4</c></rc>
    <rc><c>I </c><c>   4</c></rc>
    <rc><c>I </c><c>   4</c></rc>
    <rc><c>I </c><c>   4</c></rc>
    <rc><c>I </c><c>   4</c></rc>
    <rc><c>I </c><c>   4</c></rc>
    <rc><c>I </c><c>   4</c></rc>
    <rc><c>I </c><c>   4</c></rc>
    <rc><c>I </c><c>   4</c></rc>
    <rc><c>I </c><c>   4</c></rc>
    <rc><c>I </c><c>   4</c></rc>
    <rc><c>I </c><c>   4</c></rc>
    <rc><c>I </c><c>   4</c></rc>
    <rc><c>I </c><c>   4</c></rc>
    <rc><c>I </c><c>   4</c></rc>
    <rc><c>I </c><c>   4</c></rc>
    <rc><c>I </c><c>   4</c></rc>
    <rc><c>I </c><c>   4</c></rc>
    <rc><c>I </c><c>   4</c></rc>
    <rc><c>I </c><c>   4</c></rc>
    <rc><c>I </c><c>   4</c></rc>
    <rc><c>I </c><c>   4</c></rc>
    <rc><c>I </c><c>   4</c></rc>
    <rc><c>I </c><c>   4</c></rc>
    <rc><c>I </c><c>   4</c></rc>
    <rc><c>I </c><c>   4</c></rc>
    <rc><c>I </c><c>   4</c></rc>
    <rc><c>I </c><c>   4</c></rc>
    <rc><c>I </c><c>   4</c></rc>
    <rc><c>I </c><c>   4</c></rc>
    <rc><c>I </c><c>   4</c></rc>
    <rc><c>I </c><c>   4</c></rc>
    <rc><c>I </c><c>   4</c></rc>
    <rc><c>I </c><c>   4</c></rc>
    <rc><c>I </c><c>   4</c></rc>
    <rc><c>I </c><c>   4</c></rc>
    <rc><c>I </c><c>   4</c></rc>
    <rc><c>I </c><c>   4</c></rc>
    <rc><c>I </c><c>   4</c></rc>
    <rc><c>I </c><c>   4</c></rc>
    <rc><c>I </c><c>   4</c></rc>
    <rc><c>I </c><c>   4</c></rc>
    <rc><c>I </c><c>   4</c></rc>
    <rc><c>I </c><c>   4</c></rc>
    <rc><c>I </c><c>   4</c></rc>
    <rc><c>I </c><c>   4</c></rc>
    <rc><c>I </c><c>   4</c></rc>
    <rc><c>I </c><c>   4</c></rc>
    <rc><c>I </c><c>   4</c></rc>
    <rc><c>I </c><c>   4</c></rc>
    <rc><c>I </c><c>   4</c></rc>
    <rc><c>I </c><c>   4</c></rc>
    <rc><c>I </c><c>   4</c></rc>
    <rc><c>I </c><c>   4</c></rc>
    <rc><c>I </c><c>   4</c></rc>
    <rc><c>I </c><c>   4</c></rc>
    <rc><c>I </c><c>   4</c></rc>
    <rc><c>I </c><c>   4</c></rc>
    <rc><c>I </c><c>   4</c></rc>
    <rc><c>I </c><c>   4</c></rc>
    <rc><c>I </c><c>   4</c></rc>
    <rc><c>I </c><c>   4</c></rc>
    <rc><c>Pb</c><c>   5</c></rc>
    <rc><c>Pb</c><c>   5</c></rc>
    <rc><c>Pb</c><c>   5</c></rc>
    <rc><c>Pb</c><c>   5</c></rc>
    <rc><c>Pb</c><c>   5</c></rc>
    <rc><c>Pb</c><c>   5</c></rc>
    <rc><c>Pb</c><c>   5</c></rc>
    <rc><c>Pb</c><c>   5</c></rc>
    <rc><c>Pb</c><c>   5</c></rc>
    <rc><c>Pb</c><c>   5</c></rc>
    <rc><c>Pb</c><c>   5</c></rc>
    <rc><c>Pb</c><c>   5</c></rc>
    <rc><c>Pb</c><c>   5</c></rc>
    <rc><c>Pb</c><c>   5</c></rc>
    <rc><c>Pb</c><c>   5</c></rc>
    <rc><c>Pb</c><c>   5</c></rc>
    <rc><c>Pb</c><c>   5</c></rc>
    <rc><c>Pb</c><c>   5</c></rc>
    <rc><c>Pb</c><c>   5</c></rc>
    <rc><c>Pb</c><c>   5</c></rc>
    <rc><c>Pb</c><c>   5</c></rc>
    <rc><c>Pb</c><c>   5</c></rc>
    <rc><c>Pb</c><c>   5</c></rc>
    <rc><c>Pb</c><c>   5</c></rc>
   </set>
  </array>
  <array name="atomtypes" >
   <dimension dim="1">type</dimension>
   <field type="int">atomspertype</field>
   <field type="string">element</field>
   <field>mass</field>
   <field>valence</field>
   <field type="string">pseudopotential</field>
   <set>
    <rc><c> 143</c><c>H </c><c>      1.00000000</c><c>      1.00000000</c><c>  PAW_PBE H 15Jun2001                   </c></rc>
    <rc><c>  39</c><c>C </c><c>     12.01100000</c><c>      4.00000000</c><c>  PAW_PBE C 08Apr2002                   </c></rc>
    <rc><c>  47</c><c>N </c><c>     14.00100000</c><c>      5.00000000</c><c>  PAW_PBE N 08Apr2002                   </c></rc>
    <rc><c>  72</c><c>I </c><c>    126.90400000</c><c>      7.00000000</c><c>  PAW_PBE I 08Apr2002                   </c></rc>
    <rc><c>  24</c><c>Pb</c><c>    207.20000000</c><c>      4.00000000</c><c>  PAW_PBE Pb 08Apr2002                  </c></rc>
   </set>
  </array>
 </atominfo>
 <structure name="initialpos" >
  <crystal>
   <varray name="basis" >
    <v>      18.06080055       0.00000000       0.00000000 </v>
    <v>      -0.00491865      18.06279945       0.00000000 </v>
    <v>       0.00000000       0.00000000      62.48749924 </v>
   </varray>
   <i name="volume">  20385.21054034 </i>
   <varray name="rec_basis" >
    <v>       0.05536853       0.00001508      -0.00000000 </v>
    <v>       0.00000000       0.05536240       0.00000000 </v>
    <v>       0.00000000      -0.00000000       0.01600320 </v>
   </varray>
  </crystal>
  <varray name="positions" >
   <v>       0.45184328       0.30542069       0.58134516 </v>
   <v>       0.44517905       0.81047462       0.58039825 </v>
   <v>       0.95923466       0.31159992       0.57681782 </v>
   <v>       0.96809365       0.81427035       0.58121549 </v>
   <v>       0.31455886       0.03646030       0.58145950 </v>
   <v>       0.30175946       0.55230156       0.58099951 </v>
   <v>       0.78406589       0.05905166       0.58264254 </v>
   <v>       0.07553758       0.14772931       0.56155250 </v>
   <v>       0.06936568       0.66034689       0.55558372 </v>
   <v>       0.58814721       0.18468801       0.55695197 </v>
   <v>       0.56725415       0.66684956       0.55861954 </v>
   <v>       0.33638696       0.06909250       0.55604139 </v>
   <v>       0.31811379       0.58713384       0.55548409 </v>
   <v>       0.82354739       0.08392763       0.55830252 </v>
   <v>       0.03860206       0.19244967       0.58464245 </v>
   <v>       0.05253153       0.70044199       0.58054367 </v>
   <v>       0.56532819       0.22844505       0.58104658 </v>
   <v>       0.52612371       0.69916360       0.58248400 </v>
   <v>       0.20552311       0.44400381       0.58230623 </v>
   <v>       0.19850439       0.94942068       0.58255603 </v>
   <v>       0.69576965       0.94446377       0.58083572 </v>
   <v>       0.40199756       0.31202619       0.55737692 </v>
   <v>       0.43645774       0.85243322       0.55508112 </v>
   <v>       0.95050342       0.32955302       0.54988110 </v>
   <v>       0.93324002       0.83942730       0.55699629 </v>
   <v>       0.16893760       0.41940605       0.55753955 </v>
   <v>       0.15605232       0.93536788       0.55788807 </v>
   <v>       0.68741057       0.90542341       0.55541639 </v>
   <v>       0.48721458       0.23385721       0.53881584 </v>
   <v>       0.51316398       0.76374691       0.53850499 </v>
   <v>       0.01878693       0.23521532       0.53735546 </v>
   <v>       0.99413099       0.74686295       0.53755832 </v>
   <v>       0.23673521       0.50747367       0.53813632 </v>
   <v>       0.23784902       0.00897568       0.53871255 </v>
   <v>       0.76697814       0.99021454       0.53869844 </v>
   <v>       0.45354818       0.30554276       0.67556798 </v>
   <v>       0.44972238       0.79750951       0.67530261 </v>
   <v>       0.94294955       0.30221690       0.67328640 </v>
   <v>       0.94679517       0.80444549       0.67572646 </v>
   <v>       0.29542835       0.05053124       0.67538057 </v>
   <v>       0.29761818       0.55208134       0.67487320 </v>
   <v>       0.80401029       0.05059122       0.67402977 </v>
   <v>       0.80286091       0.56572950       0.67540963 </v>
   <v>       0.07970838       0.17208017       0.65059149 </v>
   <v>       0.07985107       0.67284711       0.65129048 </v>
   <v>       0.57258838       0.16511435       0.64989824 </v>
   <v>       0.57200548       0.66843518       0.64744670 </v>
   <v>       0.17341638       0.41914074       0.64788276 </v>
   <v>       0.17106100       0.91905616       0.64736953 </v>
   <v>       0.68050864       0.41952139       0.65358336 </v>
   <v>       0.66358407       0.92690975       0.64946010 </v>
   <v>       0.04669991       0.20289512       0.67585698 </v>
   <v>       0.04391866       0.70010182       0.67673094 </v>
   <v>       0.55269041       0.20268321       0.67526458 </v>
   <v>       0.54938351       0.69256700       0.67339164 </v>
   <v>       0.19991338       0.44743107       0.67367545 </v>
   <v>       0.19677348       0.94556751       0.67353309 </v>
   <v>       0.70119504       0.45975242       0.67726077 </v>
   <v>       0.69465700       0.95678109       0.67485873 </v>
   <v>       0.41740796       0.32882259       0.65029651 </v>
   <v>       0.41759694       0.83076568       0.65058410 </v>
   <v>       0.91836057       0.32607676       0.64733107 </v>
   <v>       0.92467205       0.83784954       0.65014780 </v>
   <v>       0.32605818       0.08377260       0.65041439 </v>
   <v>       0.32857567       0.58324968       0.64958006 </v>
   <v>       0.83567149       0.07398876       0.64828604 </v>
   <v>       0.83339246       0.57934344       0.64926682 </v>
   <v>       0.00388145       0.24485864       0.63093174 </v>
   <v>       0.00799550       0.75702101       0.63256719 </v>
   <v>       0.48843204       0.23938497       0.63305112 </v>
   <v>       0.49185242       0.75232149       0.63100524 </v>
   <v>       0.24948642       0.00307053       0.63108216 </v>
   <v>       0.25361338       0.50346121       0.63089419 </v>
   <v>       0.74843592       0.99702944       0.63108655 </v>
   <v>       0.76317731       0.49092566       0.63361941 </v>
   <v>       0.44874502       0.30128397       0.76888902 </v>
   <v>       0.44874501       0.80128391       0.76888902 </v>
   <v>       0.94874497       0.30128397       0.76888902 </v>
   <v>       0.94874501       0.80128391       0.76888902 </v>
   <v>       0.30127600       0.05129450       0.76887296 </v>
   <v>       0.30127601       0.55129450       0.76887296 </v>
   <v>       0.80127594       0.05129450       0.76887296 </v>
   <v>       0.80127598       0.55129450       0.76887296 </v>
   <v>       0.07877100       0.17118050       0.74344197 </v>
   <v>       0.07877101       0.67118045       0.74344197 </v>
   <v>       0.57877100       0.17118050       0.74344197 </v>
   <v>       0.57877099       0.67118045       0.74344197 </v>
   <v>       0.17119950       0.42117448       0.74342103 </v>
   <v>       0.17119950       0.92117451       0.74342103 </v>
   <v>       0.67119951       0.42117448       0.74342103 </v>
   <v>       0.67119950       0.92117451       0.74342103 </v>
   <v>       0.05125600       0.19871499       0.76888902 </v>
   <v>       0.05125600       0.69871493       0.76888902 </v>
   <v>       0.55125603       0.19871499       0.76888902 </v>
   <v>       0.55125602       0.69871493       0.76888902 </v>
   <v>       0.19872349       0.44870397       0.76887205 </v>
   <v>       0.19872349       0.94870397       0.76887205 </v>
   <v>       0.69872352       0.44870397       0.76887205 </v>
   <v>       0.69872351       0.94870397       0.76887205 </v>
   <v>       0.42123152       0.32881747       0.74344197 </v>
   <v>       0.42123151       0.82881744       0.74344197 </v>
   <v>       0.92123147       0.32881747       0.74344197 </v>
   <v>       0.92123151       0.82881744       0.74344197 </v>
   <v>       0.32880050       0.07882500       0.74342103 </v>
   <v>       0.32880049       0.57882496       0.74342103 </v>
   <v>       0.82880048       0.07882500       0.74342103 </v>
   <v>       0.82880052       0.57882496       0.74342103 </v>
   <v>       0.00000350       0.25000148       0.72582199 </v>
   <v>       0.00000350       0.75000145       0.72582199 </v>
   <v>       0.50000351       0.25000148       0.72582199 </v>
   <v>       0.50000350       0.75000145       0.72582199 </v>
   <v>       0.25000050       0.00000000       0.72580398 </v>
   <v>       0.25000052       0.50000000       0.72580398 </v>
   <v>       0.75000050       0.00000000       0.72580398 </v>
   <v>       0.75000049       0.50000000       0.72580398 </v>
   <v>       0.78690642       0.56785825       0.52927175 </v>
   <v>       0.73613994       0.48315679       0.53119346 </v>
   <v>       0.87515239       0.50560659       0.55091592 </v>
   <v>       0.85007510       0.47792058       0.57765832 </v>
   <v>       0.74125396       0.64000029       0.56907067 </v>
   <v>       0.80369359       0.59043750       0.58685700 </v>
   <v>       0.65039665       0.53788821       0.57338696 </v>
   <v>       0.67782032       0.45117400       0.56213032 </v>
   <v>       0.62509759       0.54916364       0.54285736 </v>
   <v>       0.67393134       0.63418272       0.54459263 </v>
   <v>       0.62938004       0.66076373       0.51285294 </v>
   <v>       0.70289083       0.60906701       0.50358095 </v>
   <v>       0.82428213       0.39506596       0.53640557 </v>
   <v>       0.75618887       0.38797275       0.55752759 </v>
   <v>       0.84723616       0.36523922       0.56272980 </v>
   <v>       0.86639034       0.68965917       0.56192495 </v>
   <v>       0.85051888       0.62535737       0.54174941 </v>
   <v>       0.90977174       0.60188959       0.56352061 </v>
   <v>       0.76996497       0.50052312       0.59971834 </v>
   <v>       0.73984553       0.40813474       0.59386054 </v>
   <v>       0.67804104       0.47112388       0.60712210 </v>
   <v>       0.54877009       0.54773625       0.51217434 </v>
   <v>       0.58248031       0.56656935       0.48583362 </v>
   <v>       0.71722637       0.50246560       0.47939755 </v>
   <v>       0.55678599       0.42441650       0.52502176 </v>
   <v>       0.77777948       0.37938856       0.47975358 </v>
   <v>       0.61753038       0.30298566       0.52590664 </v>
   <v>       0.73091395       0.27970325       0.50331219 </v>
   <v>       0.01204811       0.23974484       0.55465659 </v>
   <v>       0.00245104       0.74959982       0.55524576 </v>
   <v>       0.49624495       0.24727907       0.55604023 </v>
   <v>       0.50248500       0.75911782       0.55559013 </v>
   <v>       0.24258182       0.50247637       0.55581356 </v>
   <v>       0.24510294       0.00183027       0.55631153 </v>
   <v>       0.75633041       0.99545046       0.55621159 </v>
   <v>       0.99981969       0.24829999       0.64889407 </v>
   <v>       0.00254122       0.75533824       0.65043204 </v>
   <v>       0.49533723       0.24620424       0.64986912 </v>
   <v>       0.49510818       0.74941307       0.64889676 </v>
   <v>       0.25146985       0.50113304       0.64866441 </v>
   <v>       0.24821888       0.00107118       0.64880750 </v>
   <v>       0.75663441       0.49883291       0.65122071 </v>
   <v>       0.74934345       0.00030894       0.64877112 </v>
   <v>       0.49998898       0.24999498       0.74327702 </v>
   <v>       0.49998903       0.74999496       0.74327702 </v>
   <v>       0.99998898       0.24999498       0.74327702 </v>
   <v>       0.99998903       0.74999496       0.74327702 </v>
   <v>       0.25000050       0.00000100       0.74325596 </v>
   <v>       0.25000052       0.50000100       0.74325596 </v>
   <v>       0.75000050       0.00000100       0.74325596 </v>
   <v>       0.75000049       0.50000100       0.74325596 </v>
   <v>       0.63094284       0.47337232       0.50122226 </v>
   <v>       0.69289113       0.45887840       0.48864385 </v>
   <v>       0.60397582       0.41506273       0.51405643 </v>
   <v>       0.72887052       0.38830965       0.48934900 </v>
   <v>       0.64005691       0.34488922       0.51506939 </v>
   <v>       0.70251734       0.33213897       0.50257858 </v>
   <v>       0.74043551       0.53958761       0.53745534 </v>
   <v>       0.83143158       0.48018925       0.56080498 </v>
   <v>       0.78779233       0.59993116       0.57005463 </v>
   <v>       0.69601565       0.49642560       0.57228872 </v>
   <v>       0.66931008       0.58301890       0.53541910 </v>
   <v>       0.65181773       0.60602238       0.51290245 </v>
   <v>       0.81424923       0.40391357       0.55353009 </v>
   <v>       0.85787536       0.63018520       0.55909406 </v>
   <v>       0.72136947       0.46766537       0.59448548 </v>
   <v>       0.59826362       0.55014435       0.50217783 </v>
   <v>       0.04477410       0.19067314       0.56790057 </v>
   <v>       0.04320199       0.70044801       0.56459077 </v>
   <v>       0.55371939       0.21840439       0.56541204 </v>
   <v>       0.53401593       0.70475984       0.56616213 </v>
   <v>       0.44630351       0.29126829       0.56576850 </v>
   <v>       0.45694108       0.81104130       0.56463167 </v>
   <v>       0.97095849       0.29593849       0.56137040 </v>
   <v>       0.96682712       0.80309160       0.56507475 </v>
   <v>       0.20389093       0.45263898       0.56579816 </v>
   <v>       0.19754235       0.95980684       0.56614937 </v>
   <v>       0.71019600       0.94581362       0.56475596 </v>
   <v>       0.30198719       0.03786852       0.56521309 </v>
   <v>       0.29025194       0.55009124       0.56470517 </v>
   <v>       0.79030201       0.04845201       0.56632708 </v>
   <v>       0.04436260       0.20558259       0.65899600 </v>
   <v>       0.04457242       0.70760886       0.66018515 </v>
   <v>       0.54191409       0.20263349       0.65904209 </v>
   <v>       0.54120429       0.70108200       0.65749986 </v>
   <v>       0.20584108       0.45151360       0.65774386 </v>
   <v>       0.20432925       0.95420631       0.65783464 </v>
   <v>       0.70947153       0.45630114       0.66129902 </v>
   <v>       0.70136982       0.96067087       0.65896566 </v>
   <v>       0.45222319       0.29741825       0.65960129 </v>
   <v>       0.45140449       0.79579665       0.65911547 </v>
   <v>       0.95061809       0.29503821       0.65737282 </v>
   <v>       0.95589972       0.80205207       0.65903367 </v>
   <v>       0.29337255       0.04878480       0.65929428 </v>
   <v>       0.29345919       0.54655622       0.65896182 </v>
   <v>       0.80016668       0.04500891       0.65803390 </v>
   <v>       0.80067088       0.55156625       0.65912646 </v>
   <v>       0.04586250       0.20411950       0.75272599 </v>
   <v>       0.04586250       0.70411946       0.75272599 </v>
   <v>       0.54586251       0.20411950       0.75272599 </v>
   <v>       0.54586250       0.70411946       0.75272599 </v>
   <v>       0.20411900       0.45410100       0.75270499 </v>
   <v>       0.20411899       0.95410095       0.75270499 </v>
   <v>       0.70411898       0.45410100       0.75270499 </v>
   <v>       0.70411896       0.95410095       0.75270499 </v>
   <v>       0.45414002       0.29588849       0.75272697 </v>
   <v>       0.45414001       0.79588852       0.75272697 </v>
   <v>       0.95414002       0.29588849       0.75272697 </v>
[...]
   <v>       0.58814721       0.18468801       0.55695197 </v>
   <v>       0.56725415       0.66684956       0.55861954 </v>
   <v>       0.33638696       0.06909250       0.55604139 </v>
   <v>       0.31811379       0.58713384       0.55548409 </v>
   <v>       0.82354739       0.08392763       0.55830252 </v>
   <v>       0.03860206       0.19244967       0.58464245 </v>
   <v>       0.05253153       0.70044199       0.58054367 </v>
   <v>       0.56532819       0.22844505       0.58104658 </v>
   <v>       0.52612371       0.69916360       0.58248400 </v>
   <v>       0.20552311       0.44400381       0.58230623 </v>
   <v>       0.19850439       0.94942068       0.58255603 </v>
   <v>       0.69576965       0.94446377       0.58083572 </v>
   <v>       0.40199756       0.31202619       0.55737692 </v>
   <v>       0.43645774       0.85243322       0.55508112 </v>
   <v>       0.95050342       0.32955302       0.54988110 </v>
   <v>       0.93324002       0.83942730       0.55699629 </v>
   <v>       0.16893760       0.41940605       0.55753955 </v>
   <v>       0.15605232       0.93536788       0.55788807 </v>
   <v>       0.68741057       0.90542341       0.55541639 </v>
   <v>       0.48721458       0.23385721       0.53881584 </v>
   <v>       0.51316398       0.76374691       0.53850499 </v>
   <v>       0.01878693       0.23521532       0.53735546 </v>
   <v>       0.99413099       0.74686295       0.53755832 </v>
   <v>       0.23673521       0.50747367       0.53813632 </v>
   <v>       0.23784902       0.00897568       0.53871255 </v>
   <v>       0.76697814       0.99021454       0.53869844 </v>
   <v>       0.45354818       0.30554276       0.67556798 </v>
   <v>       0.44972238       0.79750951       0.67530261 </v>
   <v>       0.94294955       0.30221690       0.67328640 </v>
   <v>       0.94679517       0.80444549       0.67572646 </v>
   <v>       0.29542835       0.05053124       0.67538057 </v>
   <v>       0.29761818       0.55208134       0.67487320 </v>
   <v>       0.80401029       0.05059122       0.67402977 </v>
   <v>       0.80286091       0.56572950       0.67540963 </v>
   <v>       0.07970838       0.17208017       0.65059149 </v>
   <v>       0.07985107       0.67284711       0.65129048 </v>
   <v>       0.57258838       0.16511435       0.64989824 </v>
   <v>       0.57200548       0.66843518       0.64744670 </v>
   <v>       0.17341638       0.41914074       0.64788276 </v>
   <v>       0.17106100       0.91905616       0.64736953 </v>
   <v>       0.68050864       0.41952139       0.65358336 </v>
   <v>       0.66358407       0.92690975       0.64946010 </v>
   <v>       0.04669991       0.20289512       0.67585698 </v>
   <v>       0.04391866       0.70010182       0.67673094 </v>
   <v>       0.55269041       0.20268321       0.67526458 </v>
   <v>       0.54938351       0.69256700       0.67339164 </v>
   <v>       0.19991338       0.44743107       0.67367545 </v>
   <v>       0.19677348       0.94556751       0.67353309 </v>
   <v>       0.70119504       0.45975242       0.67726077 </v>
   <v>       0.69465700       0.95678109       0.67485873 </v>
   <v>       0.41740796       0.32882259       0.65029651 </v>
   <v>       0.41759694       0.83076568       0.65058410 </v>
   <v>       0.91836057       0.32607676       0.64733107 </v>
   <v>       0.92467205       0.83784954       0.65014780 </v>
   <v>       0.32605818       0.08377260       0.65041439 </v>
   <v>       0.32857567       0.58324968       0.64958006 </v>
   <v>       0.83567149       0.07398876       0.64828604 </v>
   <v>       0.83339246       0.57934344       0.64926682 </v>
   <v>       0.00388145       0.24485864       0.63093174 </v>
   <v>       0.00799550       0.75702101       0.63256719 </v>
   <v>       0.48843204       0.23938497       0.63305112 </v>
   <v>       0.49185242       0.75232149       0.63100524 </v>
   <v>       0.24948642       0.00307053       0.63108216 </v>
   <v>       0.25361338       0.50346121       0.63089419 </v>
   <v>       0.74843592       0.99702944       0.63108655 </v>
   <v>       0.76317731       0.49092566       0.63361941 </v>
   <v>       0.44874502       0.30128397       0.76888902 </v>
   <v>       0.44874501       0.80128391       0.76888902 </v>
   <v>       0.94874497       0.30128397       0.76888902 </v>
   <v>       0.94874501       0.80128391       0.76888902 </v>
   <v>       0.30127600       0.05129450       0.76887296 </v>
   <v>       0.30127601       0.55129450       0.76887296 </v>
   <v>       0.80127594       0.05129450       0.76887296 </v>
   <v>       0.80127598       0.55129450       0.76887296 </v>
   <v>       0.07877100       0.17118050       0.74344197 </v>
   <v>       0.07877101       0.67118045       0.74344197 </v>
   <v>       0.57877100       0.17118050       0.74344197 </v>
   <v>       0.57877099       0.67118045       0.74344197 </v>
   <v>       0.17119950       0.42117448       0.74342103 </v>
   <v>       0.17119950       0.92117451       0.74342103 </v>
   <v>       0.67119951       0.42117448       0.74342103 </v>
   <v>       0.67119950       0.92117451       0.74342103 </v>
   <v>       0.05125600       0.19871499       0.76888902 </v>
   <v>       0.05125600       0.69871493       0.76888902 </v>
   <v>       0.55125603       0.19871499       0.76888902 </v>
   <v>       0.55125602       0.69871493       0.76888902 </v>
   <v>       0.19872349       0.44870397       0.76887205 </v>
   <v>       0.19872349       0.94870397       0.76887205 </v>
   <v>       0.69872352       0.44870397       0.76887205 </v>
   <v>       0.69872351       0.94870397       0.76887205 </v>
   <v>       0.42123152       0.32881747       0.74344197 </v>
   <v>       0.42123151       0.82881744       0.74344197 </v>
   <v>       0.92123147       0.32881747       0.74344197 </v>
   <v>       0.92123151       0.82881744       0.74344197 </v>
   <v>       0.32880050       0.07882500       0.74342103 </v>
   <v>       0.32880049       0.57882496       0.74342103 </v>
   <v>       0.82880048       0.07882500       0.74342103 </v>
   <v>       0.82880052       0.57882496       0.74342103 </v>
   <v>       0.00000350       0.25000148       0.72582199 </v>
   <v>       0.00000350       0.75000145       0.72582199 </v>
   <v>       0.50000351       0.25000148       0.72582199 </v>
   <v>       0.50000350       0.75000145       0.72582199 </v>
   <v>       0.25000050       0.00000000       0.72580398 </v>
   <v>       0.25000052       0.50000000       0.72580398 </v>
   <v>       0.75000050       0.00000000       0.72580398 </v>
   <v>       0.75000049       0.50000000       0.72580398 </v>
   <v>       0.78690642       0.56785825       0.52927175 </v>
   <v>       0.73613994       0.48315679       0.53119346 </v>
   <v>       0.87515239       0.50560659       0.55091592 </v>
   <v>       0.85007510       0.47792058       0.57765832 </v>
   <v>       0.74125396       0.64000029       0.56907067 </v>
   <v>       0.80369359       0.59043750       0.58685700 </v>
   <v>       0.65039665       0.53788821       0.57338696 </v>
   <v>       0.67782032       0.45117400       0.56213032 </v>
   <v>       0.62509759       0.54916364       0.54285736 </v>
   <v>       0.67393134       0.63418272       0.54459263 </v>
   <v>       0.62938004       0.66076373       0.51285294 </v>
   <v>       0.70289083       0.60906701       0.50358095 </v>
   <v>       0.82428213       0.39506596       0.53640557 </v>
   <v>       0.75618887       0.38797275       0.55752759 </v>
   <v>       0.84723616       0.36523922       0.56272980 </v>
   <v>       0.86639034       0.68965917       0.56192495 </v>
   <v>       0.85051888       0.62535737       0.54174941 </v>
   <v>       0.90977174       0.60188959       0.56352061 </v>
   <v>       0.76996497       0.50052312       0.59971834 </v>
   <v>       0.73984553       0.40813474       0.59386054 </v>
   <v>       0.67804104       0.47112388       0.60712210 </v>
   <v>       0.54877009       0.54773625       0.51217434 </v>
   <v>       0.58248031       0.56656935       0.48583362 </v>
   <v>       0.71722637       0.50246560       0.47939755 </v>
   <v>       0.55678599       0.42441650       0.52502176 </v>
   <v>       0.77777948       0.37938856       0.47975358 </v>
   <v>       0.61753038       0.30298566       0.52590664 </v>
   <v>       0.73091395       0.27970325       0.50331219 </v>
   <v>       0.01204811       0.23974484       0.55465659 </v>
   <v>       0.00245104       0.74959982       0.55524576 </v>
   <v>       0.49624495       0.24727907       0.55604023 </v>
   <v>       0.50248500       0.75911782       0.55559013 </v>
   <v>       0.24258182       0.50247637       0.55581356 </v>
   <v>       0.24510294       0.00183027       0.55631153 </v>
   <v>       0.75633041       0.99545046       0.55621159 </v>
   <v>       0.99981969       0.24829999       0.64889407 </v>
   <v>       0.00254122       0.75533824       0.65043204 </v>
   <v>       0.49533723       0.24620424       0.64986912 </v>
   <v>       0.49510818       0.74941307       0.64889676 </v>
   <v>       0.25146985       0.50113304       0.64866441 </v>
   <v>       0.24821888       0.00107118       0.64880750 </v>
   <v>       0.75663441       0.49883291       0.65122071 </v>
   <v>       0.74934345       0.00030894       0.64877112 </v>
   <v>       0.49998898       0.24999498       0.74327702 </v>
   <v>       0.49998903       0.74999496       0.74327702 </v>
   <v>       0.99998898       0.24999498       0.74327702 </v>
   <v>       0.99998903       0.74999496       0.74327702 </v>
   <v>       0.25000050       0.00000100       0.74325596 </v>
   <v>       0.25000052       0.50000100       0.74325596 </v>
   <v>       0.75000050       0.00000100       0.74325596 </v>
   <v>       0.75000049       0.50000100       0.74325596 </v>
   <v>       0.63094284       0.47337232       0.50122226 </v>
   <v>       0.69289113       0.45887840       0.48864385 </v>
   <v>       0.60397582       0.41506273       0.51405643 </v>
   <v>       0.72887052       0.38830965       0.48934900 </v>
   <v>       0.64005691       0.34488922       0.51506939 </v>
   <v>       0.70251734       0.33213897       0.50257858 </v>
   <v>       0.74043551       0.53958761       0.53745534 </v>
   <v>       0.83143158       0.48018925       0.56080498 </v>
   <v>       0.78779233       0.59993116       0.57005463 </v>
   <v>       0.69601565       0.49642560       0.57228872 </v>
   <v>       0.66931008       0.58301890       0.53541910 </v>
   <v>       0.65181773       0.60602238       0.51290245 </v>
   <v>       0.81424923       0.40391357       0.55353009 </v>
   <v>       0.85787536       0.63018520       0.55909406 </v>
   <v>       0.72136947       0.46766537       0.59448548 </v>
   <v>       0.59826362       0.55014435       0.50217783 </v>
   <v>       0.04477410       0.19067314       0.56790057 </v>
   <v>       0.04320199       0.70044801       0.56459077 </v>
   <v>       0.55371939       0.21840439       0.56541204 </v>
   <v>       0.53401593       0.70475984       0.56616213 </v>
   <v>       0.44630351       0.29126829       0.56576850 </v>
   <v>       0.45694108       0.81104130       0.56463167 </v>
   <v>       0.97095849       0.29593849       0.56137040 </v>
   <v>       0.96682712       0.80309160       0.56507475 </v>
   <v>       0.20389093       0.45263898       0.56579816 </v>
   <v>       0.19754235       0.95980684       0.56614937 </v>
   <v>       0.71019600       0.94581362       0.56475596 </v>
   <v>       0.30198719       0.03786852       0.56521309 </v>
   <v>       0.29025194       0.55009124       0.56470517 </v>
   <v>       0.79030201       0.04845201       0.56632708 </v>
   <v>       0.04436260       0.20558259       0.65899600 </v>
   <v>       0.04457242       0.70760886       0.66018515 </v>
   <v>       0.54191409       0.20263349       0.65904209 </v>
   <v>       0.54120429       0.70108200       0.65749986 </v>
   <v>       0.20584108       0.45151360       0.65774386 </v>
   <v>       0.20432925       0.95420631       0.65783464 </v>
   <v>       0.70947153       0.45630114       0.66129902 </v>
   <v>       0.70136982       0.96067087       0.65896566 </v>
   <v>       0.45222319       0.29741825       0.65960129 </v>
   <v>       0.45140449       0.79579665       0.65911547 </v>
   <v>       0.95061809       0.29503821       0.65737282 </v>
   <v>       0.95589972       0.80205207       0.65903367 </v>
   <v>       0.29337255       0.04878480       0.65929428 </v>
   <v>       0.29345919       0.54655622       0.65896182 </v>
   <v>       0.80016668       0.04500891       0.65803390 </v>
   <v>       0.80067088       0.55156625       0.65912646 </v>
   <v>       0.04586250       0.20411950       0.75272599 </v>
   <v>       0.04586250       0.70411946       0.75272599 </v>
   <v>       0.54586251       0.20411950       0.75272599 </v>
   <v>       0.54586250       0.70411946       0.75272599 </v>
   <v>       0.20411900       0.45410100       0.75270499 </v>
   <v>       0.20411899       0.95410095       0.75270499 </v>
   <v>       0.70411898       0.45410100       0.75270499 </v>
   <v>       0.70411896       0.95410095       0.75270499 </v>
   <v>       0.45414002       0.29588849       0.75272697 </v>
   <v>       0.45414001       0.79588852       0.75272697 </v>
   <v>       0.95414002       0.29588849       0.75272697 </v>
   <v>       0.95414006       0.79588852       0.75272697 </v>
   <v>       0.29588249       0.04590050       0.75270499 </v>
   <v>       0.29588248       0.54590053       0.75270499 </v>
   <v>       0.79588244       0.04590050       0.75270499 </v>
   <v>       0.79588248       0.54590053       0.75270499 </v>
   <v>       0.76156270       0.52783162       0.55997528 </v>
   <v>       0.49991045       0.00969687       0.55234644 </v>
   <v>       0.48205864       0.51660414       0.55671218 </v>
   <v>       0.99917344       0.00131870       0.55179030 </v>
   <v>       0.01928804       0.48203827       0.54943564 </v>
   <v>       0.25376818       0.24938322       0.55188907 </v>
   <v>       0.25105177       0.75144521       0.55255278 </v>
   <v>       0.75787939       0.23099325       0.55521664 </v>
   <v>       0.73605143       0.76777707       0.54832421 </v>
   <v>       0.00140923       0.00423713       0.65426044 </v>
   <v>       0.00551002       0.50234754       0.65325920 </v>
   <v>       0.50233406       0.99780918       0.65519080 </v>
   <v>       0.49726019       0.50008205       0.65608362 </v>
   <v>       0.25057690       0.24902279       0.65507359 </v>
   <v>       0.24751377       0.75246172       0.65388494 </v>
   <v>       0.74825006       0.24778500       0.65563156 </v>
   <v>       0.74856644       0.75413182       0.65450127 </v>
   <v>       0.14522623       0.10646808       0.60976997 </v>
   <v>       0.14626753       0.60440439       0.60837077 </v>
   <v>       0.64633894       0.10483077       0.60852052 </v>
   <v>       0.62749205       0.62297968       0.61197763 </v>
   <v>       0.35261183       0.39212862       0.60919100 </v>
   <v>       0.35645893       0.89494197       0.60916377 </v>
   <v>       0.87593790       0.37512839       0.61233799 </v>
   <v>       0.85586839       0.89672864       0.60816247 </v>
   <v>       0.10895061       0.35542812       0.60787415 </v>
   <v>       0.10695944       0.85768638       0.60910871 </v>
   <v>       0.58901273       0.33986985       0.60791218 </v>
   <v>       0.60501106       0.86074009       0.60955087 </v>
   <v>       0.39380946       0.14166503       0.60797909 </v>
   <v>       0.38913703       0.64343003       0.60932298 </v>
   <v>       0.89243907       0.14192094       0.60807322 </v>
   <v>       0.90983710       0.65998242       0.61244214 </v>
   <v>       0.00000000       0.00000000       0.75492797 </v>
   <v>       0.00000000       0.50000000       0.75492797 </v>
   <v>       0.50000000       0.00000000       0.75492797 </v>
   <v>       0.49999999       0.50000000       0.75492797 </v>
   <v>       0.25000050       0.25000000       0.75493902 </v>
   <v>       0.25000051       0.74999997       0.75493902 </v>
   <v>       0.75000047       0.25000000       0.75493902 </v>
   <v>       0.75000046       0.74999997       0.75493902 </v>
   <v>       0.13579050       0.11421000       0.70478299 </v>
   <v>       0.13579050       0.61420998       0.70478299 </v>
   <v>       0.63579045       0.11421000       0.70478299 </v>
   <v>       0.63579049       0.61420998       0.70478299 </v>
   <v>       0.36420952       0.38578999       0.70478299 </v>
   <v>       0.36420950       0.88578996       0.70478299 </v>
   <v>       0.86420954       0.38578999       0.70478299 </v>
   <v>       0.86420953       0.88578996       0.70478299 </v>
   <v>       0.11421799       0.36421899       0.70478098 </v>
   <v>       0.11421799       0.86421899       0.70478098 </v>
   <v>       0.61421800       0.36421899       0.70478098 </v>
   <v>       0.61421799       0.86421899       0.70478098 </v>
   <v>       0.38578201       0.13578149       0.70478202 </v>
   <v>       0.38578200       0.63578149       0.70478202 </v>
   <v>       0.88578199       0.13578149       0.70478202 </v>
   <v>       0.88578203       0.63578149       0.70478202 </v>
   <v>       0.13466700       0.11533200       0.80125603 </v>
   <v>       0.13466699       0.61533199       0.80125603 </v>
   <v>       0.63466699       0.11533200       0.80125603 </v>
   <v>       0.63466698       0.61533199       0.80125603 </v>
   <v>       0.36533300       0.38466799       0.80125603 </v>
   <v>       0.36533299       0.88466796       0.80125603 </v>
   <v>       0.86533295       0.38466799       0.80125603 </v>
   <v>       0.86533294       0.88466796       0.80125603 </v>
   <v>       0.11532850       0.36533700       0.80126500 </v>
   <v>       0.11532850       0.86533698       0.80126500 </v>
   <v>       0.61532850       0.36533700       0.80126500 </v>
   <v>       0.61532849       0.86533698       0.80126500 </v>
   <v>       0.38467151       0.13466300       0.80126500 </v>
   <v>       0.38467150       0.63466297       0.80126500 </v>
   <v>       0.88467149       0.13466300       0.80126500 </v>
   <v>       0.88467153       0.63466297       0.80126500 </v>
   <v>       0.99956065       0.99913336       0.60315433 </v>
   <v>       0.00098922       0.50398918       0.60307521 </v>
   <v>       0.49619746       0.00135456       0.60222818 </v>
   <v>       0.49659524       0.49931859       0.60513104 </v>
   <v>       0.24990450       0.24943631       0.60246382 </v>
   <v>       0.24821234       0.74773627       0.60193790 </v>
   <v>       0.74931110       0.24624186       0.60485242 </v>
   <v>       0.74856656       0.75866619       0.60449597 </v>
   <v>       0.00000050       0.00000050       0.70482896 </v>
   <v>       0.00000050       0.50000048       0.70482896 </v>
   <v>       0.50000048       0.00000050       0.70482896 </v>
   <v>       0.50000046       0.50000048       0.70482896 </v>
   <v>       0.24999999       0.24999947       0.70482499 </v>
   <v>       0.25000001       0.74999950       0.70482499 </v>
   <v>       0.74999999       0.24999947       0.70482499 </v>
   <v>       0.74999998       0.74999950       0.70482499 </v>
   <v>       0.00000000       0.00000000       0.80731797 </v>
   <v>       0.00000000       0.50000000       0.80731797 </v>
   <v>       0.50000000       0.00000000       0.80731797 </v>
   <v>       0.49999999       0.50000000       0.80731797 </v>
   <v>       0.24999999       0.25000000       0.80731797 </v>
   <v>       0.25000001       0.74999997       0.80731797 </v>
   <v>       0.74999999       0.25000000       0.80731797 </v>
   <v>       0.74999998       0.74999997       0.80731797 </v>
  </varray>
 </structure>
</modeling>
