LAMMPS data file Created by LigParGen - (Written by Leela S. Dodda)

      10 atoms
       9 bonds
      13 angles
      11 dihedrals
       4 impropers
 
      10 atom types
       9 bond types
      13 angle types
      11 dihedral types
       4 improper types
 
   -0.266390    49.733610 xlo xhi
   -0.453290    49.546710 ylo yhi
   -4.110460    45.889540 zlo zhi

Masses

       1     12.011  
       2     15.999  
       3     15.999  
       4     12.011  
       5     12.011  
       6      1.008  
       7      1.008  
       8     15.999  
       9      1.008  
      10      1.008  

Pair Coeffs 

       1      0.070  3.5500000 
       2      0.210  2.9600000 
       3      0.140  2.9000000 
       4      0.066  3.5000000 
       5      0.076  3.5500000 
       6      0.030  2.5000000 
       7      0.030  2.5000000 
       8      0.210  2.9600000 
       9      0.030  2.5000000 
      10      0.030  2.5000000 

Bond Coeffs 

       1   656.0000     1.2500 
       2   214.0000     1.3270 
       3   320.0000     1.4100 
       4   317.0000     1.5100 
       5   372.0660     1.0830 
       6   372.0660     1.0830 
       7   656.0000     1.2500 
       8   340.0000     1.0900 
       9   340.0000     1.0900 

Angle Coeffs 

       1     83.000    123.400
       2     83.000    116.900
       3     50.000    109.500
       4     38.501    121.004
       5     38.501    121.004
       6     80.000    126.000
       7     35.000    109.500
       8     35.000    109.500
       9     35.000    109.500
      10     26.267    119.523
      11     33.000    107.800
      12     83.000    123.400
      13     35.000    109.500

Dihedral Coeffs  

       1      4.669      5.124      0.000      0.000 
       2     -1.220     -0.126      0.422      0.000 
       3      0.000      0.000      0.000      0.000 
       4      0.000      0.000      0.000      0.000 
       5      0.000      0.000      0.000      0.000 
       6      0.000      0.000      0.198      0.000 
       7      0.000      0.000      0.198      0.000 
       8      4.669      5.124      0.000      0.000 
       9      0.000      0.000      0.000      0.000 
      10      0.000      0.000      0.000      0.000 
      11      0.000      0.000      0.000      0.000 

Improper Coeffs 

       1     10.500      -1       2 
       2     10.500      -1       2 
       3      0.000      -1       2 
       4      0.000      -1       2 

Atoms 

     1      1      1 0.50320000    1.000  1.00000  0.00000
     2      1      2 -0.68290000   -0.266  1.00000  0.00000
     3      1      3 -0.37510000    1.648  1.00000 -1.18280
     4      1      4 0.19210000    0.944  0.40274 -2.25071
     5      1      5 -0.95140000    0.860  1.38859 -3.36347
     6      1      6 0.02990000    1.602  2.17268 -3.43992
     7      1      7 0.02990000    0.087  1.28939 -4.11046
     8      1      8 -0.68290000    1.754  1.00128  1.01549
     9      1      9 -0.03150000   -0.052  0.02017 -2.00721
    10      1     10 -0.03150000    1.536 -0.45329 -2.59359

Bonds 

     1      1      2      1
     2      2      3      1
     3      3      4      3
     4      4      5      4
     5      5      6      5
     6      6      7      5
     7      7      8      1
     8      8      9      4
     9      9     10      4

Angles 

     1      1      2      1      3
     2      2      1      3      4
     3      3      3      4      5
     4      4      4      5      6
     5      5      4      5      7
     6      6      2      1      8
     7      7      3      4      9
     8      8      3      4     10
     9      9      5      4      9
    10     10      6      5      7
    11     11      9      4     10
    12     12      3      1      8
    13     13      5      4     10

Dihedrals

     1      1      4      3      1      2 
     2      2      5      4      3      1 
     3      3      6      5      4      3 
     4      4     10      4      5      6 
     5      5      9      4      5      7 
     6      6      9      4      3      1 
     7      7     10      4      3      1 
     8      8      8      1      3      4 
     9      9      7      5      4      3 
    10     10     10      4      5      7 
    11     11      9      4      5      6 

Impropers

     1      1      5      4      6      7 
     2      2      1      2      3      8 
     3      3      4      9      3      5 
     4      4      4     10      3      5 

