 vasp.6.2.1 16May21 (build Nov 15 2021 14:57:28) complex                         
 executed on             LinuxPGI date 2023.07.24  22:32:36
 running on    4 total cores
 distrk:  each k-point on    4 cores,    1 groups
 distr:  one band on NCORE=   1 cores,    4 groups


--------------------------------------------------------------------------------------------------------


 INCAR:
   SYSTEM = PSC
   ISTART = 1
   ICHARG = 1
   PREC = Normal
   ENCUT = 500
   GGA_COMPAT = F
   NELM = 600
   ISYM = 0
   LREAL = Auto
   ISMEAR = 0
   SIGMA = 0.05
   AMIN = 0.01
   BMIX = 0.01
   LVTOT = T
   LWAVE = F
   LDIPOL = T
   IDIPOL = 3
   LVDW = T
   IVDW = 12

 POTCAR:    PAW_PBE H 15Jun2001                   
 POTCAR:    PAW_PBE C 08Apr2002                   
 POTCAR:    PAW_PBE N 08Apr2002                   
 POTCAR:    PAW_PBE I 08Apr2002                   
 POTCAR:    PAW_PBE Pb 08Apr2002                  
 WARNING: For LVTOT=.TRUE., VASP.5.x writes the TOTAL local potential to the
     file LOCPOT. If you want only the Hartree contributions, use LVHAR=.TRUE.
     instead. 

 POTCAR:    PAW_PBE H 15Jun2001                   
   SHA256 =  030f79b5d3ab3cf0e668861823c8fb652ff669f3e15e46930bd03bfd63a607b6 H/POTCAR              
   COPYR  = (c) Copyright 15Jun2001 Georg Kresse                                                    
   COPYR  = This file is part of the software VASP. Any use, copying, and all other rights are regul
   COPYR  = If you do not have a valid VASP license, you may not use, copy or distribute this file. 
   VRHFIN =H: ultrasoft test                                                                        
   LEXCH  = PE                                                                                      
   EATOM  =    12.4884 eV,    0.9179 Ry                                                             
                                                                                                    
   TITEL  = PAW_PBE H 15Jun2001                                                                     
   LULTRA =        F    use ultrasoft PP ?                                                          
   IUNSCR =        0    unscreen: 0-lin 1-nonlin 2-no                                               
   RPACOR =    0.000    partial core radius                                                         
   POMASS =    1.000; ZVAL   =    1.000    mass and valenz                                          
   RCORE  =    1.100    outmost cutoff radius                                                       
   RWIGS  =    0.700; RWIGS  =    0.370    wigner-seitz radius (au A)                               
   ENMAX  =  250.000; ENMIN  =  200.000 eV                                                          
   RCLOC  =    0.701    cutoff for local pot                                                        
   LCOR   =        T    correct aug charges                                                         
   LPAW   =        T    paw PP                                                                      
   EAUG   =  400.000                                                                                
   RMAX   =    1.123    core radius for proj-oper                                                   
   RAUG   =    1.200    factor for augmentation sphere                                              
   RDEP   =    1.112    radius for radial grids                                                     
   RDEPT  =    0.926    core radius for aug-charge                                                  
                                                                                                    
   Atomic configuration                                                                             
    2 entries                                                                                       
     n  l   j            E        occ.                                                              
     1  0  0.50        -6.4927   1.0000                                                             
     2  1  0.50        -3.4015   0.0000                                                             
   Description                                                                                      
     l       E           TYP  RCUT    TYP  RCUT                                                     
     0     -6.4927494     23  1.100                                                                 
     0      6.8029130     23  1.100                                                                 
     1     -4.0817478     23  1.100                                                                 
  local pseudopotential read in
  atomic valenz-charges read in
  non local Contribution for L=            0  read in
    real space projection operators read in
  non local Contribution for L=            0  read in
    real space projection operators read in
  non local Contribution for L=            1  read in
    real space projection operators read in
    PAW grid and wavefunctions read in
 
   number of l-projection  operators is LMAX  =            3
   number of lm-projection operators is LMMAX =            5
 
 POTCAR:    PAW_PBE C 08Apr2002                   
   SHA256 =  253f7b50bb8d59471dbedb8285d89021f4a42ed1a2c5d38a03a736e69125dd95 C/POTCAR              
   COPYR  = (c) Copyright 08Apr2002 Georg Kresse                                                    
   COPYR  = This file is part of the software VASP. Any use, copying, and all other rights are regul
   COPYR  = If you do not have a valid VASP license, you may not use, copy or distribute this file. 
   VRHFIN =C: s2p2                                                                                  
   LEXCH  = PE                                                                                      
   EATOM  =   147.1560 eV,   10.8157 Ry                                                             
                                                                                                    
   TITEL  = PAW_PBE C 08Apr2002                                                                     
   LULTRA =        F    use ultrasoft PP ?                                                          
   IUNSCR =        1    unscreen: 0-lin 1-nonlin 2-no                                               
   RPACOR =    1.200    partial core radius                                                         
   POMASS =   12.011; ZVAL   =    4.000    mass and valenz                                          
   RCORE  =    1.500    outmost cutoff radius                                                       
   RWIGS  =    1.630; RWIGS  =    0.863    wigner-seitz radius (au A)                               
   ENMAX  =  400.000; ENMIN  =  300.000 eV                                                          
   ICORE  =        2    local potential                                                             
   LCOR   =        T    correct aug charges                                                         
   LPAW   =        T    paw PP                                                                      
   EAUG   =  644.873                                                                                
   DEXC   =    0.000                                                                                
   RMAX   =    1.529    core radius for proj-oper                                                   
   RAUG   =    1.300    factor for augmentation sphere                                              
   RDEP   =    1.501    radius for radial grids                                                     
   RDEPT  =    1.300    core radius for aug-charge                                                  
                                                                                                    
   Atomic configuration                                                                             
    4 entries                                                                                       
     n  l   j            E        occ.                                                              
     1  0  0.50      -273.3789   2.0000                                                             
     2  0  0.50       -13.7508   2.0000                                                             
     2  1  0.50        -5.2854   2.0000                                                             
     3  2  1.50        -5.4423   0.0000                                                             
   Description                                                                                      
     l       E           TYP  RCUT    TYP  RCUT                                                     
     0    -13.7508458     23  1.200                                                                 
     0     -8.2022199     23  1.200                                                                 
     1     -5.2854383     23  1.500                                                                 
     1     34.0145650     23  1.500                                                                 
     2     -5.4423304      7  1.500                                                                 
  local pseudopotential read in
  partial core-charges read in
  partial kinetic energy density read in
  atomic valenz-charges read in
  non local Contribution for L=            0  read in
    real space projection operators read in
  non local Contribution for L=            0  read in
    real space projection operators read in
  non local Contribution for L=            1  read in
    real space projection operators read in
  non local Contribution for L=            1  read in
    real space projection operators read in
    PAW grid and wavefunctions read in
 
   number of l-projection  operators is LMAX  =            4
   number of lm-projection operators is LMMAX =            8
 
 POTCAR:    PAW_PBE N 08Apr2002                   
   SHA256 =  e053789ff3a61a86a1b75d8a110fcc91f86041011e7b0817c7c99e4e8a6349d7 N/POTCAR              
   COPYR  = (c) Copyright 08Apr2002 Georg Kresse                                                    
   COPYR  = This file is part of the software VASP. Any use, copying, and all other rights are regul
   COPYR  = If you do not have a valid VASP license, you may not use, copy or distribute this file. 
   VRHFIN =N: s2p3                                                                                  
   LEXCH  = PE                                                                                      
   EATOM  =   264.5486 eV,   19.4438 Ry                                                             
                                                                                                    
   TITEL  = PAW_PBE N 08Apr2002                                                                     
   LULTRA =        F    use ultrasoft PP ?                                                          
   IUNSCR =        1    unscreen: 0-lin 1-nonlin 2-no                                               
   RPACOR =    1.200    partial core radius                                                         
   POMASS =   14.001; ZVAL   =    5.000    mass and valenz                                          
   RCORE  =    1.500    outmost cutoff radius                                                       
   RWIGS  =    1.400; RWIGS  =    0.741    wigner-seitz radius (au A)                               
   ENMAX  =  400.000; ENMIN  =  300.000 eV                                                          
   ICORE  =        2    local potential                                                             
   LCOR   =        T    correct aug charges                                                         
   LPAW   =        T    paw PP                                                                      
   EAUG   =  627.112                                                                                
   DEXC   =    0.000                                                                                
   RMAX   =    1.529    core radius for proj-oper                                                   
   RAUG   =    1.300    factor for augmentation sphere                                              
   RDEP   =    1.514    radius for radial grids                                                     
   RDEPT  =    1.338    core radius for aug-charge                                                  
                                                                                                    
   Atomic configuration                                                                             
    4 entries                                                                                       
     n  l   j            E        occ.                                                              
     1  0  0.50      -384.7179   2.0000                                                             
     2  0  0.50       -18.5828   2.0000                                                             
     2  1  0.50        -7.0898   3.0000                                                             
     3  2  1.50        -6.8029   0.0000                                                             
   Description                                                                                      
     l       E           TYP  RCUT    TYP  RCUT                                                     
     0    -18.5828119     23  1.200                                                                 
     0    -13.5018863     23  1.200                                                                 
     1     -7.0897853     23  1.500                                                                 
     1      9.5240782     23  1.500                                                                 
     2     -6.8029130      7  1.500                                                                 
  local pseudopotential read in
  partial core-charges read in
  partial kinetic energy density read in
  atomic valenz-charges read in
  non local Contribution for L=            0  read in
    real space projection operators read in
  non local Contribution for L=            0  read in
    real space projection operators read in
  non local Contribution for L=            1  read in
    real space projection operators read in
  non local Contribution for L=            1  read in
    real space projection operators read in
    PAW grid and wavefunctions read in
 
   number of l-projection  operators is LMAX  =            4
   number of lm-projection operators is LMMAX =            8
 
 POTCAR:    PAW_PBE I 08Apr2002                   
   SHA256 =  e40f3f59b681c1fc3e3091736183c4589116986673d2b852a5012aec72758799 I/POTCAR              
   COPYR  = (c) Copyright 08Apr2002 Georg Kresse                                                    
   COPYR  = This file is part of the software VASP. Any use, copying, and all other rights are regul
   COPYR  = If you do not have a valid VASP license, you may not use, copy or distribute this file. 
   VRHFIN =I : s2p5                                                                                 
   LEXCH  = PE                                                                                      
   EATOM  =   315.8678 eV,   23.2156 Ry                                                             
                                                                                                    
   TITEL  = PAW_PBE I 08Apr2002                                                                     
   LULTRA =        F    use ultrasoft PP ?                                                          
   IUNSCR =        1    unscreen: 0-lin 1-nonlin 2-no                                               
   RPACOR =    2.200    partial core radius                                                         
   POMASS =  126.904; ZVAL   =    7.000    mass and valenz                                          
   RCORE  =    2.300    outmost cutoff radius                                                       
   RWIGS  =    2.810; RWIGS  =    1.487    wigner-seitz radius (au A)                               
   ENMAX  =  175.647; ENMIN  =  131.735 eV                                                          
   ICORE  =        3    local potential                                                             
   LCOR   =        T    correct aug charges                                                         
   LPAW   =        T    paw PP                                                                      
   EAUG   =  370.139                                                                                
   DEXC   =    0.000                                                                                
   RMAX   =    2.359    core radius for proj-oper                                                   
   RAUG   =    1.300    factor for augmentation sphere                                              
   RDEP   =    2.392    radius for radial grids                                                     
   RDEPT  =    2.170    core radius for aug-charge                                                  
                                                                                                    
   Atomic configuration                                                                             
   13 entries                                                                                       
     n  l   j            E        occ.                                                              
     1  0  0.50    -32976.3739   2.0000                                                             
     2  0  0.50     -5094.5933   2.0000                                                             
     2  1  1.50     -4572.0131   6.0000                                                             
     3  0  0.50     -1028.2813   2.0000                                                             
     3  1  1.50      -859.0250   6.0000                                                             
     3  2  2.50      -605.7620  10.0000                                                             
     4  0  0.50      -180.5540   2.0000                                                             
     4  1  1.50      -127.5306   6.0000                                                             
     4  2  2.50       -50.2720  10.0000                                                             
     5  0  0.50       -17.4058   2.0000                                                             
     5  1  0.50        -7.0851   5.0000                                                             
     5  2  1.50        -7.0750   0.0000                                                             
     4  3  2.50        -7.0750   0.0000                                                             
   Description                                                                                      
     l       E           TYP  RCUT    TYP  RCUT                                                     
     0    -17.4058016     23  2.300                                                                 
     0    -18.7663842     23  2.300                                                                 
     1     -7.0850686     23  2.300                                                                 
     1     -4.2150896     23  2.300                                                                 
     2     -7.0750295     23  2.300                                                                 
     3     -1.3605826     23  2.300                                                                 
  local pseudopotential read in
  partial core-charges read in
  partial kinetic energy density read in
  atomic valenz-charges read in
  non local Contribution for L=            0  read in
    real space projection operators read in
  non local Contribution for L=            0  read in
    real space projection operators read in
  non local Contribution for L=            1  read in
    real space projection operators read in
  non local Contribution for L=            1  read in
    real space projection operators read in
  non local Contribution for L=            2  read in
    real space projection operators read in
    PAW grid and wavefunctions read in
 
   number of l-projection  operators is LMAX  =            5
   number of lm-projection operators is LMMAX =           13
 
 POTCAR:    PAW_PBE Pb 08Apr2002                  
   SHA256 =  797118a27cf1bcd06b9881c67a26cdde129e3cd1a551dd4a281f9681ce847303 Pb/POTCAR             
   COPYR  = (c) Copyright 08Apr2002 Georg Kresse                                                    
   COPYR  = This file is part of the software VASP. Any use, copying, and all other rights are regul
   COPYR  = If you do not have a valid VASP license, you may not use, copy or distribute this file. 
   VRHFIN =Pb:                                                                                      
   LEXCH  = PE                                                                                      
   EATOM  =    96.9868 eV,    7.1283 Ry                                                             
                                                                                                    
   TITEL  = PAW_PBE Pb 08Apr2002                                                                    
   LULTRA =        F    use ultrasoft PP ?                                                          
   IUNSCR =        1    unscreen: 0-lin 1-nonlin 2-no                                               
   RPACOR =    2.200    partial core radius                                                         
   POMASS =  207.200; ZVAL   =    4.000    mass and valenz                                          
   RCORE  =    3.100    outmost cutoff radius                                                       
   RWIGS  =    3.260; RWIGS  =    1.725    wigner-seitz radius (au A)                               
   ENMAX  =   97.973; ENMIN  =   73.480 eV                                                          
   ICORE  =        3    local potential                                                             
   LCOR   =        T    correct aug charges                                                         
   LPAW   =        T    paw PP                                                                      
   EAUG   =  234.873                                                                                
   DEXC   =    0.000                                                                                
   RMAX   =    3.158    core radius for proj-oper                                                   
   RAUG   =    1.300    factor for augmentation sphere                                              
   RDEP   =    3.202    radius for radial grids                                                     
   RDEPT  =    2.659    core radius for aug-charge                                                  
                                                                                                    
   Atomic configuration                                                                             
   17 entries                                                                                       
     n  l   j            E        occ.                                                              
     1  0  0.50    -88091.8466   2.0000                                                             
     2  0  0.50    -15753.4197   2.0000                                                             
     2  1  1.50    -13508.1797   6.0000                                                             
     3  0  0.50     -3781.7194   2.0000                                                             
     3  1  1.50     -3138.2529   6.0000                                                             
     3  2  2.50     -2483.2977  10.0000                                                             
     4  0  0.50      -856.2895   2.0000                                                             
     4  1  1.50      -645.4943   6.0000                                                             
     4  2  2.50      -401.8768  10.0000                                                             
     4  3  3.50      -132.9059  14.0000                                                             
     5  0  0.50      -144.0950   2.0000                                                             
     5  1  1.50       -85.7879   6.0000                                                             
     5  2  2.50       -21.1769  10.0000                                                             
     6  0  0.50       -12.0372   2.0000                                                             
     6  1  1.50        -3.4971   2.0000                                                             
     6  2  2.50        -1.3606   0.0000                                                             
     5  3  2.50        -2.7212   0.0000                                                             
   Description                                                                                      
     l       E           TYP  RCUT    TYP  RCUT                                                     
     0    -12.0371566     23  3.100                                                                 
     0    -13.3977392     23  3.100                                                                 
     1     -3.4971341     23  3.100                                                                 
     1     -5.4423304     23  3.100                                                                 
     2     -1.3605826     23  3.100                                                                 
     3     -1.3605826     23  3.100                                                                 
  local pseudopotential read in
  partial core-charges read in
  partial kinetic energy density read in
  atomic valenz-charges read in
  non local Contribution for L=            0  read in
    real space projection operators read in
  non local Contribution for L=            0  read in
    real space projection operators read in
  non local Contribution for L=            1  read in
    real space projection operators read in
  non local Contribution for L=            1  read in
    real space projection operators read in
  non local Contribution for L=            2  read in
    real space projection operators read in
    PAW grid and wavefunctions read in
 
   number of l-projection  operators is LMAX  =            5
   number of lm-projection operators is LMMAX =           13
 
 Optimization of the real space projectors (new method)

 maximal supplied QI-value         = 34.20
 optimisation between [QCUT,QGAM] = [ 11.29, 22.57] = [ 35.68,142.71] Ry 
 Optimized for a Real-space Cutoff    1.16 Angstroem

   l    n(q)    QCUT    max X(q) W(low)/X(q) W(high)/X(q)  e(spline) 
   0      8    11.287    19.460    0.40E-03    0.73E-03    0.16E-06
   0      8    11.287    12.209    0.38E-03    0.70E-03    0.15E-06
   1      7    11.287     4.655    0.22E-03    0.25E-04    0.22E-06
 Optimization of the real space projectors (new method)

 maximal supplied QI-value         = 25.13
 optimisation between [QCUT,QGAM] = [ 11.31, 22.87] = [ 35.82,146.48] Ry 
 Optimized for a Real-space Cutoff    1.00 Angstroem

   l    n(q)    QCUT    max X(q) W(low)/X(q) W(high)/X(q)  e(spline) 
   0      7    11.310   115.676    0.43E-03    0.13E-02    0.19E-06
   0      7    11.310    87.132    0.43E-03    0.13E-02    0.18E-06
   1      6    11.310     4.429    0.42E-03    0.74E-03    0.11E-06
   1      6    11.310     2.733    0.34E-03    0.55E-03    0.92E-07
 Optimization of the real space projectors (new method)

 maximal supplied QI-value         = 25.13
 optimisation between [QCUT,QGAM] = [ 11.31, 22.87] = [ 35.82,146.48] Ry 
 Optimized for a Real-space Cutoff    1.27 Angstroem

   l    n(q)    QCUT    max X(q) W(low)/X(q) W(high)/X(q)  e(spline) 
   0      9    11.310    79.467    0.75E-04    0.16E-03    0.36E-06
   0      9    11.310    66.151    0.74E-04    0.16E-03    0.36E-06
   1      8    11.310    17.416    0.35E-03    0.12E-03    0.95E-06
   1      8    11.310    12.382    0.37E-03    0.13E-03    0.98E-06
 Optimization of the real space projectors (new method)

 maximal supplied QI-value         = 16.25
 optimisation between [QCUT,QGAM] = [ 11.38, 22.75] = [ 36.24,144.96] Ry 
 Optimized for a Real-space Cutoff    1.31 Angstroem

   l    n(q)    QCUT    max X(q) W(low)/X(q) W(high)/X(q)  e(spline) 
   0      9    11.376   194.483    0.24E-03    0.23E-03    0.67E-07
   0      9    11.376   190.334    0.23E-03    0.22E-03    0.65E-07
   1      8    11.376   116.687    0.25E-03    0.63E-04    0.16E-06
   1      8    11.376    88.696    0.25E-03    0.61E-04    0.16E-06
   2      8    11.376     4.877    0.17E-03    0.14E-03    0.29E-07
 Optimization of the real space projectors (new method)

 maximal supplied QI-value         = 12.09
 optimisation between [QCUT,QGAM] = [ 11.37, 22.86] = [ 36.19,146.31] Ry 
 Optimized for a Real-space Cutoff    1.66 Angstroem

   l    n(q)    QCUT    max X(q) W(low)/X(q) W(high)/X(q)  e(spline) 
   0     11    11.369   135.111    0.12E-03    0.69E-04    0.19E-05
   0     11    11.369   146.850    0.11E-03    0.65E-04    0.18E-05
   1     11    11.369   148.016    0.17E-03    0.32E-03    0.89E-06
   1     11    11.369   122.989    0.17E-03    0.32E-03    0.91E-06
   2     10    11.369     8.916    0.12E-03    0.45E-04    0.33E-06
  PAW_PBE H 15Jun2001                   :
 energy of atom  1       EATOM=  -12.4884
 kinetic energy error for atom=    0.0020 (will be added to EATOM!!)
  PAW_PBE C 08Apr2002                   :
 energy of atom  2       EATOM= -147.1560
 kinetic energy error for atom=    0.0076 (will be added to EATOM!!)
  PAW_PBE N 08Apr2002                   :
 energy of atom  3       EATOM= -264.5486
 kinetic energy error for atom=    0.0138 (will be added to EATOM!!)
  PAW_PBE I 08Apr2002                   :
 energy of atom  4       EATOM= -315.8678
 kinetic energy error for atom=    0.0009 (will be added to EATOM!!)
  PAW_PBE Pb 08Apr2002                  :
 energy of atom  5       EATOM=  -96.9868
 kinetic energy error for atom=    0.0000 (will be added to EATOM!!)
 
 
 POSCAR:  H  C  N  I Pb
  positions in cartesian coordinates
  No initial velocities read in
 exchange correlation table for  LEXCH =        8
   RHO(1)=    0.500       N(1)  =     2000
   RHO(2)=  100.500       N(2)  =     4000
 


--------------------------------------------------------------------------------------------------------


 ion  position               nearest neighbor table
   1  0.439  0.300  0.576- 187 1.00
   2  0.440  0.828  0.579- 188 1.01
   3  0.982  0.306  0.581- 189 1.00
   4  0.970  0.798  0.583- 190 1.01
   5  0.317  0.001  0.580- 194 1.04
   6  0.312  0.555  0.581- 195 1.04
   7  0.780  0.066  0.583- 196 1.04
   8  0.058  0.137  0.561- 183 1.00
   9  0.057  0.644  0.557- 184 1.03
  10  0.592  0.196  0.555- 185 1.02
  11  0.550  0.671  0.562- 186 1.01
  12  0.342  0.051  0.558- 194 0.98
  13  0.297  0.607  0.558- 195 0.98
  14  0.843  0.066  0.563- 196 0.99
  15  0.032  0.179  0.584- 183 0.98
  16  0.029  0.675  0.582- 184 1.01
  17  0.566  0.258  0.575- 185 1.01
  18  0.495  0.699  0.583- 186 1.02
  19  0.240  0.435  0.582- 191 1.04
  20  0.188  0.948  0.580- 192 1.04
  21  0.683  0.967  0.582- 193 1.04
  22  0.377  0.267  0.557- 187 1.04
  23  0.467  0.877  0.556- 188 1.03
  24  0.985  0.348  0.556- 189 1.03
  25  0.961  0.847  0.559- 190 1.02
  26  0.183  0.416  0.561- 191 0.99
  27  0.134  0.971  0.559- 192 1.01
  28  0.688  0.907  0.560- 193 1.00
  29  0.468  0.198  0.540- 146 1.10
  30  0.540  0.780  0.543- 147 1.09
  31  0.031  0.236  0.540- 144 1.09
  32  0.015  0.751  0.539- 145 1.12
  33  0.215  0.524  0.543- 148 1.08
  34  0.227  0.038  0.542- 149 1.08
  35  0.790  0.965  0.545- 150 1.08
  36  0.457  0.310  0.675- 205 1.00
  37  0.434  0.814  0.673- 206 1.00
  38  0.966  0.283  0.681- 207 0.99
  39  0.933  0.795  0.675- 208 1.04
  40  0.298  0.052  0.675- 209 1.00
  41  0.301  0.549  0.676- 210 1.01
  42  0.798  0.055  0.675- 211 1.00
  43  0.804  0.580  0.671- 212 1.04
  44  0.082  0.166  0.646- 197 1.05
  45  0.096  0.691  0.656- 198 1.03
  46  0.572  0.163  0.652- 199 1.03
  47  0.574  0.679  0.656- 200 0.99
  48  0.180  0.414  0.649- 201 1.04
  49  0.176  0.915  0.651- 202 1.02
  50  0.690  0.418  0.659- 203 1.02
  51  0.669  0.924  0.650- 204 1.03
  52  0.065  0.181  0.673- 197 1.04
  53  0.043  0.698  0.679- 198 1.04
  54  0.567  0.214  0.675- 199 1.04
  55  0.535  0.716  0.679- 200 1.00
  56  0.210  0.439  0.675- 201 1.00
  57  0.200  0.948  0.676- 202 1.02
  58  0.708  0.479  0.680- 203 1.02
  59  0.692  0.959  0.675- 204 1.01
  60  0.402  0.309  0.652- 205 1.03
  61  0.416  0.832  0.646- 206 1.03
  62  0.930  0.324  0.658- 207 1.00
  63  0.929  0.838  0.651- 208 1.02
  64  0.329  0.078  0.650- 209 1.03
  65  0.323  0.587  0.651- 210 1.03
  66  0.836  0.074  0.650- 211 1.03
  67  0.835  0.579  0.645- 212 1.00
  68  0.996  0.258  0.635- 151 1.11
  69  0.030  0.782  0.637- 152 1.11
  70  0.471  0.216  0.636- 153 1.10
  71  0.505  0.747  0.634- 154 1.11
  72  0.255  0.993  0.632- 156 1.10
  73  0.247  0.505  0.632- 155 1.11
  74  0.761  0.993  0.632- 158 1.10
  75  0.767  0.476  0.636- 157 1.09
  76  0.449  0.301  0.769- 221 1.02
  77  0.449  0.801  0.769- 222 1.02
  78  0.949  0.301  0.769- 223 1.02
  79  0.949  0.801  0.769- 224 1.02
  80  0.301  0.051  0.769- 225 1.02
  81  0.301  0.551  0.769- 226 1.02
  82  0.801  0.051  0.769- 227 1.02
  83  0.801  0.551  0.769- 228 1.02
  84  0.079  0.171  0.743- 213 1.02
  85  0.079  0.671  0.743- 214 1.02
  86  0.579  0.171  0.743- 215 1.02
  87  0.579  0.671  0.743- 216 1.02
  88  0.171  0.421  0.743- 217 1.02
  89  0.171  0.921  0.743- 218 1.02
  90  0.671  0.421  0.743- 219 1.02
  91  0.671  0.921  0.743- 220 1.02
  92  0.051  0.199  0.769- 213 1.02
  93  0.051  0.699  0.769- 214 1.02
  94  0.551  0.199  0.769- 215 1.02
  95  0.551  0.699  0.769- 216 1.02
  96  0.199  0.449  0.769- 217 1.02
  97  0.199  0.949  0.769- 218 1.02
  98  0.699  0.449  0.769- 219 1.02
  99  0.699  0.949  0.769- 220 1.02
 100  0.421  0.329  0.743- 221 1.02
 101  0.421  0.829  0.743- 222 1.02
 102  0.921  0.329  0.743- 223 1.02
 103  0.921  0.829  0.743- 224 1.02
 104  0.329  0.079  0.743- 225 1.02
 105  0.329  0.579  0.743- 226 1.02
 106  0.829  0.079  0.743- 227 1.02
 107  0.829  0.579  0.743- 228 1.02
 108  0.000  0.250  0.726- 161 1.09
 109  0.000  0.750  0.726- 162 1.09
 110  0.500  0.250  0.726- 159 1.09
 111  0.500  0.750  0.726- 160 1.09
 112  0.250  0.000  0.726- 163 1.09
 113  0.250  0.500  0.726- 164 1.09
 114  0.750  0.000  0.726- 165 1.09
 115  0.750  0.500  0.726- 166 1.09
 116  0.777  0.558  0.524- 173 1.09
 117  0.726  0.478  0.528- 173 1.08
 118  0.868  0.506  0.546- 174 1.10
 119  0.851  0.483  0.573- 174 1.10
 120  0.739  0.640  0.564- 175 1.12
 121  0.798  0.591  0.582- 175 1.10
 122  0.657  0.538  0.571- 176 1.07
 123  0.673  0.451  0.561- 176 1.09
 124  0.614  0.547  0.539- 177 1.11
 125  0.669  0.628  0.541- 177 1.07
 126  0.614  0.652  0.509- 178 1.11
 127  0.694  0.606  0.499- 178 1.09
 128  0.831  0.389  0.533- 179 1.10
 129  0.757  0.377  0.551- 179 1.11
 130  0.848  0.359  0.560- 179 1.11
 131  0.857  0.691  0.559- 180 1.10
 132  0.850  0.633  0.536- 180 1.11
 133  0.905  0.604  0.559- 180 1.11
 134  0.758  0.510  0.600- 181 1.07
 135  0.751  0.418  0.592- 181 1.09
 136  0.674  0.465  0.601- 181 1.08
 137  0.541  0.536  0.507- 182 1.08
 138  0.578  0.557  0.482- 182 1.09
 139  0.710  0.494  0.475- 168 1.07
 140  0.549  0.416  0.521- 169 1.10
 141  0.776  0.375  0.477- 170 1.06
 142  0.618  0.295  0.523- 171 1.09
 143  0.732  0.275  0.502- 172 1.08
 144  0.020  0.241  0.557-  31 1.09 189 1.30 183 1.32
 145  0.008  0.745  0.557-  32 1.12 184 1.30 190 1.31
 146  0.485  0.231  0.554-  29 1.10 185 1.30 187 1.34
 147  0.510  0.773  0.558-  30 1.09 186 1.31 188 1.32
 148  0.240  0.511  0.558-  33 1.08 191 1.30 195 1.32
 149  0.237  0.012  0.557-  34 1.08 192 1.29 194 1.32
 150  0.767  0.986  0.560-  35 1.08 196 1.30 193 1.32
 151  0.005  0.246  0.652-  68 1.11 197 1.29 207 1.33
 152  0.013  0.765  0.653-  69 1.11 198 1.28 208 1.31
 153  0.487  0.235  0.652-  70 1.10 199 1.30 205 1.34
 154  0.495  0.755  0.651-  71 1.11 206 1.31 200 1.32
 155  0.252  0.501  0.650-  73 1.11 210 1.30 201 1.33
 156  0.252  0.996  0.650-  72 1.10 202 1.30 209 1.33
 157  0.762  0.498  0.652-  75 1.09 203 1.31 212 1.31
 158  0.752  0.998  0.649-  74 1.10 204 1.30 211 1.34
 159  0.500  0.250  0.743- 110 1.09 221 1.31 215 1.31
 160  0.500  0.750  0.743- 111 1.09 222 1.31 216 1.31
 161  1.000  0.250  0.743- 108 1.09 223 1.31 213 1.31
 162  1.000  0.750  0.743- 109 1.09 224 1.31 214 1.31
 163  0.250  0.000  0.743- 112 1.09 225 1.31 218 1.31
 164  0.250  0.500  0.743- 113 1.09 226 1.31 217 1.31
 165  0.750  0.000  0.743- 114 1.09 227 1.31 220 1.31
 166  0.750  0.500  0.743- 115 1.09 228 1.31 219 1.31
 167  0.626  0.463  0.498- 168 1.39 169 1.40 182 1.51
 168  0.689  0.451  0.485- 139 1.07 167 1.39 170 1.42
 169  0.599  0.407  0.511- 140 1.10 167 1.40 171 1.42
 170  0.727  0.383  0.486- 141 1.06 172 1.42 168 1.42
 171  0.637  0.339  0.512- 142 1.09 172 1.40 169 1.42
 172  0.702  0.327  0.500- 143 1.08 171 1.40 170 1.42
 173  0.734  0.534  0.534- 117 1.08 116 1.09 229 1.49 177 1.55
 174  0.828  0.478  0.557- 118 1.10 119 1.10 229 1.49 179 1.55
 175  0.787  0.601  0.565- 121 1.10 120 1.12 180 1.52 229 1.53
 176  0.699  0.496  0.570- 122 1.07 123 1.09 181 1.50 229 1.51
 177  0.661  0.579  0.532- 125 1.07 124 1.11 178 1.53 173 1.55
 178  0.644  0.598  0.509- 127 1.09 126 1.11 177 1.53 182 1.54
 179  0.815  0.397  0.550- 128 1.10 130 1.11 129 1.11 174 1.55
 180  0.855  0.633  0.554- 131 1.10 133 1.11 132 1.11 175 1.52
 181  0.723  0.471  0.592- 134 1.07 136 1.08 135 1.09 176 1.50
 182  0.592  0.539  0.498- 137 1.08 138 1.09 167 1.51 178 1.54
 183  0.038  0.182  0.569-  15 0.98   8 1.00 144 1.32
 184  0.033  0.685  0.566-  16 1.01   9 1.03 145 1.30
 185  0.551  0.227  0.562-  17 1.01  10 1.02 146 1.30
 186  0.520  0.712  0.569-  11 1.01  18 1.02 147 1.31
 187  0.430  0.271  0.563-   1 1.00  22 1.04 146 1.34
 188  0.468  0.828  0.565-   2 1.01  23 1.03 147 1.32
 189  0.989  0.301  0.565-   3 1.00  24 1.03 144 1.30
 190  0.976  0.800  0.567-   4 1.01  25 1.02 145 1.31
 191  0.221  0.450  0.567-  26 0.99  19 1.04 148 1.30
 192  0.184  0.974  0.566-  27 1.01  20 1.04 149 1.29
 193  0.707  0.952  0.567-  28 1.00  21 1.04 150 1.32
 194  0.304  0.024  0.566-  12 0.98   5 1.04 149 1.32
 195  0.285  0.562  0.566-  13 0.98   6 1.04 148 1.32
 196  0.802  0.040  0.569-  14 0.99   7 1.04 150 1.30
 197  0.052  0.196  0.657-  52 1.04  44 1.05 151 1.29
 198  0.051  0.716  0.663-  45 1.03  53 1.04 152 1.28
 199  0.545  0.204  0.660-  46 1.03  54 1.04 153 1.30
 200  0.538  0.713  0.663-  47 0.99  55 1.00 154 1.32
 201  0.211  0.448  0.659-  56 1.00  48 1.04 155 1.33
 202  0.207  0.951  0.660-  57 1.02  49 1.02 156 1.30
 203  0.717  0.464  0.665-  50 1.02  58 1.02 157 1.31
 204  0.702  0.958  0.659-  59 1.01  51 1.03 158 1.30
 205  0.447  0.289  0.661-  36 1.00  60 1.03 153 1.34
 206  0.445  0.803  0.657-  37 1.00  61 1.03 154 1.31
 207  0.964  0.287  0.665-  38 0.99  62 1.00 151 1.33
 208  0.955  0.800  0.660-  63 1.02  39 1.04 152 1.31
 209  0.296  0.045  0.659-  40 1.00  64 1.03 156 1.33
 210  0.294  0.548  0.660-  41 1.01  65 1.03 155 1.30
 211  0.798  0.045  0.659-  42 1.00  66 1.03 158 1.34
 212  0.803  0.557  0.656-  67 1.00  43 1.04 157 1.31
 213  0.046  0.204  0.753-  92 1.02  84 1.02 161 1.31
 214  0.046  0.704  0.753-  93 1.02  85 1.02 162 1.31
 215  0.546  0.204  0.753-  94 1.02  86 1.02 159 1.31
 216  0.546  0.704  0.753-  95 1.02  87 1.02 160 1.31
 217  0.204  0.454  0.753-  96 1.02  88 1.02 164 1.31
 218  0.204  0.954  0.753-  97 1.02  89 1.02 163 1.31
 219  0.704  0.454  0.753-  98 1.02  90 1.02 166 1.31
 220  0.704  0.954  0.753-  99 1.02  91 1.02 165 1.31
 221  0.454  0.296  0.753-  76 1.02 100 1.02 159 1.31
 222  0.454  0.796  0.753-  77 1.02 101 1.02 160 1.31
 223  0.954  0.296  0.753-  78 1.02 102 1.02 161 1.31
 224  0.954  0.796  0.753-  79 1.02 103 1.02 162 1.31
 225  0.296  0.046  0.753-  80 1.02 104 1.02 163 1.31
 226  0.296  0.546  0.753-  81 1.02 105 1.02 164 1.31
 227  0.796  0.046  0.753-  82 1.02 106 1.02 165 1.31
 228  0.796  0.546  0.753-  83 1.02 107 1.02 166 1.31
 229  0.762  0.526  0.556- 174 1.49 173 1.49 176 1.51 175 1.53
 230  0.492  0.017  0.552- 304 3.20
 231  0.471  0.515  0.558- 305 3.03
 232  0.998  0.994  0.551- 302 3.34
 233  0.034  0.490  0.552- 303 3.36
 234  0.237  0.242  0.552- 306 3.17
 235  0.255  0.751  0.553- 307 3.07
 236  0.750  0.214  0.556- 308 3.08
 237  0.722  0.783  0.547- 309 3.59
 238  0.001  0.997  0.654- 302 3.11 310 3.16
 239  0.012  0.502  0.655- 303 3.11 311 3.14
 240  0.495  0.999  0.653- 304 3.18 312 3.21
 241  0.508  0.487  0.656- 313 3.03 305 3.18
 242  0.253  0.246  0.654- 314 3.19 306 3.19
 243  0.250  0.752  0.655- 315 3.12 307 3.31
 244  0.741  0.255  0.655- 316 3.10 308 3.21
 245  0.754  0.758  0.654- 309 3.14 317 3.20
 246  0.144  0.106  0.610- 306 3.17 302 3.28
 247  0.146  0.608  0.607- 307 3.14 303 3.18
 248  0.649  0.103  0.608- 308 3.19 304 3.23
 249  0.618  0.634  0.614- 309 3.27 305 3.37
 250  0.351  0.392  0.607- 305 3.23 306 3.24
 251  0.358  0.892  0.607- 307 3.28 304 3.31
 252  0.890  0.364  0.614- 303 3.30 308 3.37
 253  0.862  0.893  0.607- 302 3.13 309 3.23
 254  0.113  0.357  0.610- 306 3.12 303 3.25
 255  0.109  0.860  0.606- 307 3.24 302 3.26
 256  0.578  0.329  0.609- 305 3.37 308 3.39
 257  0.611  0.863  0.610- 309 3.14 304 3.28
 258  0.383  0.133  0.609- 304 3.15 306 3.28
 259  0.385  0.637  0.612- 307 3.25 305 3.25
 260  0.890  0.141  0.612- 302 3.22 308 3.28
 261  0.915  0.654  0.615- 303 3.29 309 3.63
 262  0.000  0.000  0.755- 310 3.13 318 3.27
 263  0.000  0.500  0.755- 311 3.13 319 3.27
 264  0.500  0.000  0.755- 312 3.13 320 3.27
 265  0.500  0.500  0.755- 313 3.13 321 3.27
 266  0.250  0.250  0.755- 314 3.13 322 3.27
 267  0.250  0.750  0.755- 315 3.13 323 3.27
 268  0.750  0.250  0.755- 316 3.13 324 3.27
 269  0.750  0.750  0.755- 317 3.13 325 3.27
 270  0.136  0.114  0.705- 310 3.20 314 3.20
 271  0.136  0.614  0.705- 311 3.20 315 3.20
 272  0.636  0.114  0.705- 312 3.20 316 3.20
 273  0.636  0.614  0.705- 313 3.20 317 3.20
 274  0.364  0.386  0.705- 313 3.20 314 3.20
 275  0.364  0.886  0.705- 312 3.20 315 3.20
 276  0.864  0.386  0.705- 311 3.20 316 3.20
 277  0.864  0.886  0.705- 310 3.20 317 3.20
 278  0.114  0.364  0.705- 314 3.21 311 3.21
 279  0.114  0.864  0.705- 315 3.21 310 3.21
 280  0.614  0.364  0.705- 316 3.21 313 3.21
 281  0.614  0.864  0.705- 317 3.21 312 3.21
 282  0.386  0.136  0.705- 314 3.21 312 3.21
 283  0.386  0.636  0.705- 315 3.21 313 3.21
 284  0.886  0.136  0.705- 316 3.21 310 3.21
 285  0.886  0.636  0.705- 317 3.21 311 3.21
 286  0.135  0.115  0.801- 318 3.22 322 3.22
 287  0.135  0.615  0.801- 319 3.22 323 3.22
 288  0.635  0.115  0.801- 320 3.22 324 3.22
 289  0.635  0.615  0.801- 321 3.22 325 3.22
 290  0.365  0.385  0.801- 321 3.22 322 3.22
 291  0.365  0.885  0.801- 320 3.22 323 3.22
 292  0.865  0.385  0.801- 319 3.22 324 3.22
 293  0.865  0.885  0.801- 318 3.22 325 3.22
 294  0.115  0.365  0.801- 319 3.23 322 3.23
 295  0.115  0.865  0.801- 318 3.23 323 3.23
 296  0.615  0.365  0.801- 321 3.23 324 3.23
 297  0.615  0.865  0.801- 320 3.23 325 3.23
 298  0.385  0.135  0.801- 320 3.23 322 3.23
 299  0.385  0.635  0.801- 321 3.23 323 3.23
 300  0.885  0.135  0.801- 318 3.23 324 3.23
 301  0.885  0.635  0.801- 319 3.23 325 3.23
 302  0.997  0.001  0.605- 238 3.11 253 3.13 260 3.22 255 3.26 246 3.28 232 3.34
 303  0.007  0.501  0.605- 239 3.11 247 3.18 254 3.25 261 3.29 252 3.30 233 3.36
 304  0.501  0.005  0.603- 258 3.15 240 3.18 230 3.20 248 3.23 257 3.28 251 3.31
 305  0.496  0.496  0.606- 231 3.03 241 3.18 250 3.23 259 3.25 256 3.37 249 3.37
 306  0.244  0.248  0.603- 254 3.12 234 3.17 246 3.17 242 3.19 250 3.24 258 3.28
 307  0.248  0.748  0.602- 235 3.07 247 3.14 255 3.24 259 3.25 251 3.28 243 3.31
 308  0.747  0.250  0.604- 236 3.08 248 3.19 244 3.21 260 3.28 252 3.37 256 3.39
 309  0.747  0.756  0.603- 257 3.14 245 3.14 253 3.23 249 3.27 237 3.59 261 3.63
 310  0.000  0.000  0.705- 262 3.13 238 3.16 270 3.20 277 3.20 279 3.21 284 3.21
 311  0.000  0.500  0.705- 263 3.13 239 3.14 271 3.20 276 3.20 278 3.21 285 3.21
 312  0.500  0.000  0.705- 264 3.13 272 3.20 275 3.20 281 3.21 282 3.21 240 3.21
 313  0.500  0.500  0.705- 241 3.03 265 3.13 273 3.20 274 3.20 280 3.21 283 3.21
 314  0.250  0.250  0.705- 266 3.13 242 3.19 270 3.20 274 3.20 282 3.21 278 3.21
 315  0.250  0.750  0.705- 243 3.12 267 3.13 271 3.20 275 3.20 283 3.21 279 3.21
 316  0.750  0.250  0.705- 244 3.10 268 3.13 272 3.20 276 3.20 284 3.21 280 3.21
 317  0.750  0.750  0.705- 269 3.13 245 3.20 273 3.20 277 3.20 285 3.21 281 3.21
 318  0.000  0.000  0.807- 286 3.22 293 3.22 300 3.23 295 3.23 262 3.27
 319  0.000  0.500  0.807- 287 3.22 292 3.22 301 3.23 294 3.23 263 3.27
 320  0.500  0.000  0.807- 288 3.22 291 3.22 298 3.23 297 3.23 264 3.27
 321  0.500  0.500  0.807- 289 3.22 290 3.22 299 3.23 296 3.23 265 3.27
 322  0.250  0.250  0.807- 290 3.22 286 3.22 294 3.23 298 3.23 266 3.27
 323  0.250  0.750  0.807- 291 3.22 287 3.22 299 3.23 295 3.23 267 3.27
 324  0.750  0.250  0.807- 292 3.22 288 3.22 296 3.23 300 3.23 268 3.27
 325  0.750  0.750  0.807- 293 3.22 289 3.22 297 3.23 301 3.23 269 3.27
 

IMPORTANT INFORMATION: All symmetrisations will be switched off!
NOSYMM: (Re-)initialisation of all symmetry stuff for point group C_1.


----------------------------------------------------------------------------------------

                                     Primitive cell                                     

  volume of cell :   20385.2105

  direct lattice vectors                    reciprocal lattice vectors
    18.060800552  0.000000000  0.000000000     0.055368531  0.000015077 -0.000000000
    -0.004918649 18.062799454  0.000000000     0.000000000  0.055362404  0.000000000
     0.000000000  0.000000000 62.487499237     0.000000000 -0.000000000  0.016003201

  length of vectors
    18.060800552 18.062800123 62.487499237     0.055368533  0.055362404  0.016003201

  position of ions in fractional coordinates (direct lattice)
     0.439213183  0.300012967  0.576434386
     0.439907375  0.827722733  0.578529959
     0.982020737  0.306058489  0.580905434
     0.969572242  0.797933318  0.583061932
     0.316792388  0.001239156  0.580482986
     0.311840118  0.555144877  0.580526024
     0.780087430  0.065519626  0.583101979
     0.057706140  0.137258135  0.561173155
     0.057230823  0.643773002  0.557085911
     0.591701288  0.196445125  0.554691634
     0.550041395  0.671061072  0.561870010
     0.342491988  0.051101243  0.558010901
     0.297223479  0.607264658  0.557859320
     0.843316734  0.066152195  0.562527979
     0.032378609  0.179163487  0.584421884
     0.028675328  0.674901419  0.582113256
     0.566312566  0.257769842  0.574973217
     0.494722686  0.698503417  0.582697540
     0.240457002  0.434707510  0.582466903
     0.187827027  0.947583431  0.580495195
     0.683408751  0.967485848  0.581700576
     0.376512649  0.266595849  0.557102577
     0.467244737  0.877317832  0.556257865
     0.984557445  0.348034616  0.556025885
     0.961378846  0.847271399  0.558894928
     0.183447674  0.416365561  0.560866392
     0.134059042  0.970913670  0.558564479
     0.687901274  0.906786712  0.559775963
     0.468250264  0.198081353  0.540380544
     0.539889725  0.779722493  0.542854366
     0.030853114  0.235775692  0.540405512
     0.014803113  0.750965432  0.539485528
     0.215455435  0.523659073  0.542848872
     0.226552626  0.037665548  0.541963013
     0.790202728  0.964841274  0.545437463
     0.457230441  0.309809581  0.674964042
     0.433929725  0.813574585  0.672735935
     0.966322604  0.283283117  0.680628260
     0.932894552  0.795206000  0.675401324
     0.298137608  0.052331087  0.675201394
     0.301017589  0.548577741  0.676264778
     0.797771055  0.054593947  0.674627732
     0.803546274  0.579802883  0.671219823
     0.082270645  0.166166303  0.646090957
     0.095704865  0.691127367  0.655612759
     0.571904422  0.162617149  0.651692053
     0.573600321  0.678972966  0.656448497
     0.179628237  0.414092567  0.648992966
     0.175606928  0.914818714  0.650576534
     0.689517949  0.418225915  0.659146058
     0.669499784  0.923720156  0.649671141
     0.065483962  0.180608600  0.673019866
     0.042893076  0.698437368  0.678569072
     0.567483026  0.214398417  0.674998655
     0.534534380  0.715896776  0.679270506
     0.209579978  0.438761555  0.674547393
     0.199958181  0.948218597  0.675711811
     0.707875153  0.479489148  0.680157463
     0.692295771  0.958657188  0.674737861
     0.402410141  0.309320833  0.652229697
     0.415654886  0.831579446  0.645944504
     0.929886430  0.323754906  0.657847398
     0.928617289  0.838017757  0.650752229
     0.329270647  0.078171421  0.650034251
     0.322769667  0.587066421  0.651491573
     0.836295508  0.073746828  0.649683595
     0.835283320  0.578842440  0.644788939
     0.995675264  0.258140719  0.634684440
     0.029764321  0.782095908  0.636704680
     0.470623846  0.216149109  0.635571702
     0.504507563  0.746626887  0.633723982
     0.254517391  0.993290375  0.632428495
     0.247216744  0.504957493  0.632436554
     0.760611964  0.993439328  0.631979675
     0.766551157  0.476061574  0.635638915
     0.448745018  0.301283966  0.768889017
     0.448745007  0.801283913  0.768889017
     0.948744965  0.301283966  0.768889017
     0.948745007  0.801283913  0.768889017
     0.301275995  0.051294496  0.768872961
     0.301276011  0.551294499  0.768872961
     0.801275943  0.051294496  0.768872961
     0.801275984  0.551294499  0.768872961
     0.078771004  0.171180501  0.743441971
     0.078771006  0.671180448  0.743441971
     0.578771004  0.171180501  0.743441971
     0.578770992  0.671180448  0.743441971
     0.171199499  0.421174482  0.743421032
     0.171199501  0.921174508  0.743421032
     0.671199512  0.421174482  0.743421032
     0.671199501  0.921174508  0.743421032
     0.051256000  0.198714991  0.768889017
     0.051256002  0.698714925  0.768889017
     0.551256027  0.198714991  0.768889017
     0.551256016  0.698714925  0.768889017
     0.198723491  0.448703970  0.768872046
     0.198723493  0.948703970  0.768872046
     0.698723518  0.448703970  0.768872046
     0.698723507  0.948703970  0.768872046
     0.421231519  0.328817467  0.743441971
     0.421231508  0.828817440  0.743441971
     0.921231466  0.328817467  0.743441971
     0.921231508  0.828817440  0.743441971
     0.328800503  0.078824997  0.743421032
     0.328800492  0.578824964  0.743421032
     0.828800477  0.078824997  0.743421032
     0.828800519  0.578824964  0.743421032
     0.000003500  0.250001478  0.725821992
     0.000003500  0.750001452  0.725821992
     0.500003506  0.250001478  0.725821992
     0.500003495  0.750001452  0.725821992
     0.250000502  0.000000000  0.725803983
     0.250000517  0.500000000  0.725803983
     0.750000502  0.000000000  0.725803983
     0.750000490  0.500000000  0.725803983
     0.777320511  0.558143206  0.524344438
     0.725943305  0.478302362  0.528112282
     0.868143009  0.505706165  0.546301406
     0.850772544  0.482829553  0.572990765
     0.738546420  0.640263380  0.564124184
     0.797784195  0.591249161  0.582079253
     0.657377174  0.537872901  0.571243406
     0.673180335  0.450855318  0.561462763
     0.613813902  0.547071370  0.538757416
     0.669474340  0.627762151  0.541401011
     0.614075043  0.651678613  0.508911511
     0.693661385  0.606084629  0.499221371
     0.830520825  0.388886786  0.532744006
     0.756904821  0.376502821  0.551155831
     0.847889097  0.358531644  0.559790065
     0.856679715  0.691403024  0.559216342
     0.849587960  0.632746941  0.536352150
     0.905442422  0.603586928  0.559006828
     0.758233493  0.510007013  0.599661749
     0.751428607  0.417567712  0.591776993
     0.673576749  0.465265711  0.601485356
     0.541236980  0.535513900  0.507240401
     0.578332448  0.556938363  0.482125758
     0.709601460  0.493838930  0.474722453
     0.548562205  0.416465956  0.520587156
     0.776052427  0.375279709  0.477205890
     0.618372673  0.295121788  0.523215611
     0.731880365  0.275253352  0.501702611
     0.019654969  0.240848653  0.557492243
     0.008153559  0.744748714  0.557173331
     0.484568524  0.230695286  0.554473939
     0.509595676  0.773051715  0.557906388
     0.239524199  0.511385772  0.558329873
     0.237460925  0.012016397  0.557335229
     0.766849608  0.986124132  0.560159707
     0.004964548  0.245969687  0.651869151
     0.012754457  0.764752813  0.652945905
     0.487226374  0.235091724  0.651580580
     0.495372173  0.754937615  0.651111370
     0.252353087  0.501212235  0.650033884
     0.251990996  0.995873233  0.649965939
     0.762085485  0.498274835  0.651860605
     0.752115893  0.997970228  0.649380800
     0.499988984  0.249994984  0.743277021
     0.499989025  0.749994958  0.743277021
     0.999988984  0.249994984  0.743277021
     0.999989025  0.749994958  0.743277021
     0.250000502  0.000001000  0.743255960
     0.250000517  0.500001003  0.743255960
     0.750000502  0.000001000  0.743255960
     0.750000491  0.500001003  0.743255960
     0.625859903  0.462851167  0.497508443
     0.688631948  0.450955422  0.484982684
     0.598976398  0.407187737  0.510989991
     0.727180656  0.382732686  0.486326825
     0.637323976  0.338767537  0.512397713
     0.701593397  0.326577894  0.500353892
     0.733897352  0.533696867  0.534083508
     0.828064635  0.477760129  0.556728113
     0.786528838  0.601267683  0.565087451
     0.699478919  0.495991387  0.570134481
     0.661176813  0.578596139  0.532024807
     0.643563228  0.597552943  0.508682034
     0.814963125  0.396521967  0.549662063
     0.854517026  0.632987857  0.554063639
     0.722833375  0.470501395  0.591905864
     0.592341276  0.539274997  0.498311979
     0.037932126  0.181718817  0.568798154
     0.033439111  0.684808855  0.566235324
     0.551386330  0.226770384  0.562129706
     0.519922949  0.711814352  0.568626794
     0.430118416  0.270966285  0.563058480
     0.467727614  0.828221196  0.564526120
     0.989399983  0.300834869  0.565079942
     0.975716096  0.800076958  0.566928395
     0.220642841  0.449829881  0.567449556
     0.183983275  0.974349053  0.565721122
     0.706911606  0.951960175  0.567267269
     0.303731205  0.023675713  0.565655985
     0.285371437  0.562006625  0.565902738
     0.801671031  0.039901392  0.569493972
     0.052128744  0.196183988  0.657465485
     0.051107408  0.716400149  0.662926722
     0.544656695  0.203572327  0.660037777
     0.538028783  0.713268559  0.663280186
     0.211204686  0.448147746  0.658707006
     0.206646945  0.950665645  0.659582486
     0.716691587  0.463534052  0.664747582
     0.701868985  0.958016983  0.658803216
     0.446926900  0.288927271  0.660527927
     0.445428917  0.803122752  0.657383194
     0.963725192  0.287454083  0.664824929
     0.954599433  0.800102618  0.660131302
     0.296133842  0.045337991  0.659380053
     0.294013672  0.548277480  0.660192471
     0.798450997  0.045446580  0.658858342
     0.802825896  0.556804468  0.656041739
     0.045862501  0.204119496  0.752725994
     0.045862500  0.704119456  0.752725994
     0.545862507  0.204119496  0.752725994
     0.545862496  0.704119456  0.752725994
     0.204119002  0.454101003  0.752704994
     0.204118991  0.954100951  0.752704994
     0.704118976  0.454101003  0.752704994
     0.704118964  0.954100951  0.752704994
     0.454140018  0.295888490  0.752726971
     0.454140007  0.795888516  0.752726971
     0.954140018  0.295888490  0.752726971
     0.954140060  0.795888516  0.752726971
     0.295882492  0.045900498  0.752704994
     0.295882481  0.545900528  0.752704994
     0.795882439  0.045900498  0.752704994
     0.795882481  0.545900528  0.752704994
     0.761531878  0.526140407  0.556461030
     0.491551108  0.016840156  0.551623576
     0.470869689  0.515282506  0.558232076
     0.998256271  0.994299341  0.551141302
     0.034227310  0.490292403  0.551880769
     0.237061289  0.242190560  0.552048405
     0.254843608  0.751388395  0.552887745
     0.749551816  0.214391791  0.555839873
     0.722089113  0.783451437  0.547069626
     0.001184417  0.996953998  0.654255798
     0.012035887  0.501776009  0.654680444
     0.494563780  0.998680283  0.653468043
     0.507567379  0.486652266  0.656473344
     0.252778880  0.246484043  0.653768396
     0.250281410  0.752268532  0.654845638
     0.740632457  0.255125759  0.655345433
     0.754223205  0.757539486  0.653726151
     0.144256787  0.105696196  0.610182713
     0.146133706  0.608271615  0.607110809
     0.648914800  0.103467546  0.608495486
     0.618368770  0.634253048  0.614439790
     0.350655884  0.391641189  0.607149513
     0.357968245  0.891948868  0.606944272
     0.890113597  0.363716299  0.614397911
     0.861620828  0.892931222  0.606696603
     0.112864577  0.356586286  0.610155669
     0.108928601  0.859538470  0.606459861
     0.577916123  0.329037395  0.608906579
     0.611339408  0.863058387  0.609554963
     0.383163371  0.132654334  0.608548902
     0.385487780  0.637044938  0.612144043
     0.889749377  0.141198916  0.612109551
     0.915305864  0.653819454  0.615069310
     0.000000000  0.000000000  0.754927972
     0.000000000  0.500000000  0.754927972
     0.500000000  0.000000000  0.754927972
     0.499999989  0.500000000  0.754927972
     0.250000496  0.250000000  0.754939022
     0.250000511  0.749999974  0.754939022
     0.750000470  0.250000000  0.754939022
     0.750000458  0.749999974  0.754939022
     0.135790500  0.114209997  0.704782994
     0.135790502  0.614209984  0.704782994
     0.635790447  0.114209997  0.704782994
     0.635790488  0.614209984  0.704782994
     0.364209516  0.385789989  0.704782994
     0.364209505  0.885789963  0.704782994
     0.864209542  0.385789989  0.704782994
     0.864209531  0.885789963  0.704782994
     0.114217990  0.364218986  0.704780979
     0.114217992  0.864218986  0.704780979
     0.614218004  0.364218986  0.704780979
     0.614217992  0.864218986  0.704780979
     0.385782012  0.135781489  0.704782017
     0.385782001  0.635781489  0.704782017
     0.885781985  0.135781489  0.704782017
     0.885782027  0.635781489  0.704782017
     0.134667000  0.115332001  0.801256025
     0.134666989  0.615331988  0.801256025
     0.634666987  0.115332001  0.801256025
     0.634666976  0.615331988  0.801256025
     0.365333002  0.384667985  0.801256025
     0.365332990  0.884667959  0.801256025
     0.865332949  0.384667985  0.801256025
     0.865332938  0.884667959  0.801256025
     0.115328503  0.365337004  0.801264999
     0.115328505  0.865336978  0.801264999
     0.615328503  0.365337004  0.801264999
     0.615328492  0.865336978  0.801264999
     0.384671513  0.134662996  0.801264999
     0.384671501  0.634662970  0.801264999
     0.884671486  0.134662996  0.801264999
     0.884671528  0.634662970  0.801264999
     0.997100660  0.001001107  0.604508543
     0.006917434  0.500584682  0.604980989
     0.500874216  0.005431959  0.602679320
     0.495893582  0.496387476  0.605846335
     0.244478677  0.247793320  0.602719123
     0.248321123  0.747970852  0.601964639
     0.746954619  0.249673842  0.604062959
     0.746768749  0.756107401  0.603466404
     0.000000500  0.000000500  0.704828963
     0.000000500  0.500000475  0.704828963
     0.500000475  0.000000500  0.704828963
     0.500000464  0.500000475  0.704828963
     0.249999994  0.249999472  0.704824995
     0.250000010  0.749999498  0.704824995
     0.749999994  0.249999472  0.704824995
     0.749999983  0.749999498  0.704824995
     0.000000000  0.000000000  0.807317968
     0.000000000  0.500000000  0.807317968
     0.500000000  0.000000000  0.807317968
     0.499999989  0.500000000  0.807317968
     0.249999994  0.250000000  0.807317968
     0.250000010  0.749999974  0.807317968
     0.749999994  0.250000000  0.807317968
     0.749999983  0.749999974  0.807317968

  ion indices of the primitive-cell ions
   primitive index   ion index
                 1           1
                 2           2
                 3           3
                 4           4
                 5           5
                 6           6
                 7           7
                 8           8
                 9           9
                10          10
                11          11
                12          12
                13          13
                14          14
                15          15
                16          16
                17          17
                18          18
                19          19
                20          20
                21          21
                22          22
                23          23
                24          24
                25          25
                26          26
                27          27
                28          28
                29          29
                30          30
                31          31
                32          32
                33          33
                34          34
                35          35
                36          36
                37          37
                38          38
                39          39
                40          40
                41          41
                42          42
                43          43
                44          44
                45          45
                46          46
                47          47
                48          48
                49          49
                50          50
                51          51
                52          52
                53          53
                54          54
                55          55
                56          56
                57          57
                58          58
                59          59
                60          60
                61          61
                62          62
                63          63
                64          64
                65          65
                66          66
                67          67
                68          68
                69          69
                70          70
                71          71
                72          72
                73          73
                74          74
                75          75
                76          76
                77          77
                78          78
                79          79
                80          80
                81          81
                82          82
                83          83
                84          84
                85          85
                86          86
                87          87
                88          88
                89          89
                90          90
                91          91
                92          92
                93          93
                94          94
                95          95
                96          96
                97          97
                98          98
                99          99
               100         100
               101         101
               102         102
               103         103
               104         104
               105         105
               106         106
               107         107
               108         108
               109         109
               110         110
               111         111
               112         112
               113         113
               114         114
               115         115
               116         116
               117         117
               118         118
               119         119
               120         120
               121         121
               122         122
               123         123
               124         124
               125         125
               126         126
               127         127
               128         128
               129         129
               130         130
               131         131
               132         132
               133         133
               134         134
               135         135
               136         136
               137         137
               138         138
               139         139
               140         140
               141         141
               142         142
               143         143
               144         144
               145         145
               146         146
               147         147
               148         148
               149         149
               150         150
               151         151
               152         152
               153         153
               154         154
               155         155
               156         156
               157         157
               158         158
               159         159
               160         160
               161         161
               162         162
               163         163
               164         164
               165         165
               166         166
               167         167
               168         168
               169         169
               170         170
               171         171
               172         172
               173         173
               174         174
               175         175
               176         176
               177         177
               178         178
               179         179
               180         180
               181         181
               182         182
               183         183
               184         184
               185         185
               186         186
               187         187
               188         188
               189         189
               190         190
               191         191
               192         192
               193         193
               194         194
               195         195
               196         196
               197         197
               198         198
               199         199
               200         200
               201         201
               202         202
               203         203
               204         204
               205         205
               206         206
               207         207
               208         208
               209         209
               210         210
               211         211
               212         212
               213         213
               214         214
               215         215
               216         216
               217         217
               218         218
               219         219
               220         220
               221         221
               222         222
               223         223
               224         224
               225         225
               226         226
               227         227
               228         228
               229         229
               230         230
               231         231
               232         232
               233         233
               234         234
               235         235
               236         236
               237         237
               238         238
               239         239
               240         240
               241         241
               242         242
               243         243
               244         244
               245         245
               246         246
               247         247
               248         248
               249         249
               250         250
               251         251
               252         252
               253         253
               254         254
               255         255
               256         256
               257         257
               258         258
               259         259
               260         260
               261         261
               262         262
               263         263
               264         264
               265         265
               266         266
               267         267
               268         268
               269         269
               270         270
               271         271
               272         272
               273         273
               274         274
               275         275
               276         276
               277         277
               278         278
               279         279
               280         280
               281         281
               282         282
               283         283
               284         284
               285         285
               286         286
               287         287
               288         288
               289         289
               290         290
               291         291
               292         292
               293         293
               294         294
               295         295
               296         296
               297         297
               298         298
               299         299
               300         300
               301         301
               302         302
               303         303
               304         304
               305         305
               306         306
               307         307
               308         308
               309         309
               310         310
               311         311
               312         312
               313         313
               314         314
               315         315
               316         316
               317         317
               318         318
               319         319
               320         320
               321         321
               322         322
               323         323
               324         324
               325         325

----------------------------------------------------------------------------------------

 
 
 KPOINTS: Automatic Mesh                          

Automatic generation of k-mesh.
 Grid dimensions read from file:
 generate k-points for:    3    3    1

 Generating k-lattice:

  Cartesian coordinates                     Fractional coordinates (reciprocal lattice)
     0.018456177  0.000005026 -0.000000000     0.333333333  0.000000000  0.000000000
     0.000000000  0.018454135  0.000000000     0.000000000  0.333333333  0.000000000
     0.000000000 -0.000000000  0.016003201     0.000000000  0.000000000  1.000000000

  Length of vectors
     0.018456178  0.018454135  0.016003201

  Shift w.r.t. Gamma in fractional coordinates (k-lattice)
     0.000000000  0.000000000  0.000000000

 
 Subroutine IBZKPT returns following result:
 ===========================================
 
 Found      5 irreducible k-points:
 
 Following reciprocal coordinates:
            Coordinates               Weight
  0.000000  0.000000  0.000000      1.000000
  0.333333  0.000000  0.000000      2.000000
  0.000000  0.333333  0.000000      2.000000
  0.333333  0.333333  0.000000      2.000000
 -0.333333  0.333333  0.000000      2.000000
 
 Following cartesian coordinates:
            Coordinates               Weight
  0.000000  0.000000  0.000000      1.000000
  0.018456  0.000005  0.000000      2.000000
  0.000000  0.018454  0.000000      2.000000
  0.018456  0.018459  0.000000      2.000000
 -0.018456  0.018449  0.000000      2.000000
 


--------------------------------------------------------------------------------------------------------




 Dimension of arrays:
   k-points           NKPTS =      5   k-points in BZ     NKDIM =      5   number of bands    NBANDS=    732
   number of dos      NEDOS =    301   number of ions     NIONS =    325
   non local maximal  LDIM  =      5   non local SUM 2l+1 LMDIM =     13
   total plane-waves  NPLWV = ******
   max r-space proj   IRMAX =   3336   max aug-charges    IRDMAX=  19845
   dimension x,y,z NGX =   100 NGY =  100 NGZ =  350
   dimension x,y,z NGXF=   200 NGYF=  200 NGZF=  700
   support grid    NGXF=   200 NGYF=  200 NGZF=  700
   ions per type =             143  39  47  72  24
   NGX,Y,Z   is equivalent  to a cutoff of   9.20,  9.20,  9.31 a.u.
   NGXF,Y,Z  is equivalent  to a cutoff of  18.41, 18.41, 18.62 a.u.

 SYSTEM =  PSC                                     
 POSCAR =   H  C  N  I Pb                          

 Startparameter for this run:
   NWRITE =      2    write-flag & timer
   PREC   = normal    normal or accurate (medium, high low for compatibility)
   ISTART =      0    job   : 0-new  1-cont  2-samecut
   ICHARG =      1    charge: 1-file 2-atom 10-const
   ISPIN  =      1    spin polarized calculation?
   LNONCOLLINEAR =      F non collinear calculations
   LSORBIT =      F    spin-orbit coupling
   INIWAV =      1    electr: 0-lowe 1-rand  2-diag
   LASPH  =      F    aspherical Exc in radial PAW
 Electronic Relaxation 1
   ENCUT  =  500.0 eV  36.75 Ry    6.06 a.u.  32.93 32.93113.93*2*pi/ulx,y,z
   ENINI  =  500.0     initial cutoff
   ENAUG  =  644.9 eV  augmentation charge cutoff
   NELM   =    600;   NELMIN=  2; NELMDL=  0     # of ELM steps 
   EDIFF  = 0.1E-03   stopping-criterion for ELM
   LREAL  =      T    real-space projection
   NLSPLINE    = F    spline interpolate recip. space projectors
   LCOMPAT=      F    compatible to vasp.4.4
   GGA_COMPAT  = F    GGA compatible to vasp.4.4-vasp.4.6
   LMAXPAW     = -100 max onsite density
   LMAXMIX     =    2 max onsite mixed and CHGCAR
   VOSKOWN=      0    Vosko Wilk Nusair interpolation
   ROPT   =   -0.00050  -0.00050  -0.00050  -0.00050
   ROPT   =   -0.00050
 Ionic relaxation
   EDIFFG = 0.1E-02   stopping-criterion for IOM
   NSW    =      0    number of steps for IOM
   NBLOCK =      1;   KBLOCK =      1    inner block; outer block 
   IBRION =     -1    ionic relax: 0-MD 1-quasi-New 2-CG
   NFREE  =      0    steps in history (QN), initial steepest desc. (CG)
   ISIF   =      2    stress and relaxation
   IWAVPR =     10    prediction:  0-non 1-charg 2-wave 3-comb
   ISYM   =      0    0-nonsym 1-usesym 2-fastsym
   LCORR  =      T    Harris-Foulkes like correction to forces

   POTIM  = 0.5000    time-step for ionic-motion
   TEIN   =    0.0    initial temperature
   TEBEG  =    0.0;   TEEND  =   0.0 temperature during run
   SMASS  =  -3.00    Nose mass-parameter (am)
   estimated Nose-frequenzy (Omega)   =  0.10E-29 period in steps = 0.13E+47 mass=  -0.745E-26a.u.
   SCALEE = 1.0000    scale energy and forces
   NPACO  =    256;   APACO  = 16.0  distance and # of slots for P.C.
   PSTRESS=    0.0 pullay stress

  Mass of Ions in am
   POMASS =   1.00 12.01 14.00126.90207.20
  Ionic Valenz
   ZVAL   =   1.00  4.00  5.00  7.00  4.00
  Atomic Wigner-Seitz radii
   RWIGS  =  -1.00 -1.00 -1.00 -1.00 -1.00
  virtual crystal weights 
   VCA    =   1.00  1.00  1.00  1.00  1.00
   NELECT =    1134.0000    total number of electrons
   NUPDOWN=      -1.0000    fix difference up-down

 DOS related values:
   EMIN   =  10.00;   EMAX   =-10.00  energy-range for DOS
   EFERMI =   0.00
   ISMEAR =     0;   SIGMA  =   0.05  broadening in eV -4-tet -1-fermi 0-gaus

 Electronic relaxation 2 (details)
   IALGO  =     38    algorithm
   LDIAG  =      T    sub-space diagonalisation (order eigenvalues)
   LSUBROT=      F    optimize rotation matrix (better conditioning)
   TURBO    =      0    0=normal 1=particle mesh
   IRESTART =      0    0=no restart 2=restart with 2 vectors
   NREBOOT  =      0    no. of reboots
   NMIN     =      0    reboot dimension
   EREF     =   0.00    reference energy to select bands
   IMIX   =      4    mixing-type and parameters
     AMIX     =   0.40;   BMIX     =  0.01
     AMIX_MAG =   1.60;   BMIX_MAG =  0.01
     AMIN     =   0.01
     WC   =   100.;   INIMIX=   1;  MIXPRE=   1;  MAXMIX= -45

 Intra band minimization:
   WEIMIN = 0.0000     energy-eigenvalue tresh-hold
   EBREAK =  0.34E-07  absolut break condition
   DEPER  =   0.30     relativ break condition  

   TIME   =   0.40     timestep for ELM

  volume/ion in A,a.u.               =      62.72       423.28
  Fermi-wavevector in a.u.,A,eV,Ry     =   0.624944  1.180972  5.313816  0.390554
  Thomas-Fermi vector in A             =   1.685677
 
 Write flags
   LWAVE        =      F    write WAVECAR
   LDOWNSAMPLE  =      F    k-point downsampling of WAVECAR
   LCHARG       =      T    write CHGCAR
   LVTOT        =      T    write LOCPOT, total local potential
   LVHAR        =      F    write LOCPOT, Hartree potential only
   LELF         =      F    write electronic localiz. function (ELF)
   LORBIT       =      0    0 simple, 1 ext, 2 COOP (PROOUT), +10 PAW based schemes


 Dipole corrections
   LMONO  =      F    monopole corrections only (constant potential shift)
   LDIPOL =      T    correct potential (dipole corrections)
   IDIPOL =      3    1-x, 2-y, 3-z, 4-all directions 
   EPSILON=  1.0000000 bulk dielectric constant

 Exchange correlation treatment:
   GGA     =    --    GGA type
   LEXCH   =     8    internal setting for exchange type
   VOSKOWN=      0    Vosko Wilk Nusair interpolation
   LHFCALC =     F    Hartree Fock is set to
   LHFONE  =     F    Hartree Fock one center treatment
   AEXX    =    0.0000 exact exchange contribution

 Linear response parameters
   LEPSILON=     F    determine dielectric tensor
   LRPA    =     F    only Hartree local field effects (RPA)
   LNABLA  =     F    use nabla operator in PAW spheres
   LVEL    =     F    velocity operator in full k-point grid
   LINTERFAST=   F  fast interpolation
   KINTER  =     0    interpolate to denser k-point grid
   CSHIFT  =0.1000    complex shift for real part using Kramers Kronig
   OMEGAMAX=  -1.0    maximum frequency
   DEG_THRESHOLD= 0.2000000E-02 threshold for treating states as degnerate
   RTIME   =   -0.100 relaxation time in fs
  (WPLASMAI=    0.000 imaginary part of plasma frequency in eV, 0.658/RTIME)
   DFIELD  = 0.0000000 0.0000000 0.0000000 field for delta impulse in time
 
 Orbital magnetization related:
   ORBITALMAG=     F  switch on orbital magnetization
   LCHIMAG   =     F  perturbation theory with respect to B field
   DQ        =  0.001000  dq finite difference perturbation B field
   LLRAUG    =     F  two centre corrections for induced B field



--------------------------------------------------------------------------------------------------------


 Static calculation
 charge density and potential will be updated during run
 non-spin polarized calculation
 Variant of blocked Davidson
 Davidson routine will perform the subspace rotation
 perform sub-space diagonalisation
    after iterative eigenvector-optimisation
 modified Broyden-mixing scheme, WC =      100.0
 initial mixing is a Kerker type mixing with AMIX =  0.4000 and BMIX =      0.0100
 Hartree-type preconditioning will be used
 using additional bands           165
 real space projection scheme for non local part
[...]
     13.54561      0.00000     45.35368         0.000041      0.001036      0.011307
     13.54315      9.03140     45.35368         0.009083     -0.004251      0.025164
     14.03629     10.08163     32.76497         0.281666      0.258021     -0.037356
     13.10876      8.63948     33.00042        -0.093251     -0.636319     -0.173472
     15.67687      9.13447     34.13701         0.013606     -0.297305     -0.009286
     15.36326      8.72125     35.80476        -0.040472     -0.300310     -0.016737
     13.33559     11.56495     35.25071         0.493049     -0.478537     -0.093120
     14.40571     10.67962     36.37268         0.120235      0.131365      0.040805
     11.87011      9.71549     35.69557        -0.306339      0.732314      0.080239
     12.15596      8.14371     35.08440         0.021311     -0.267523     -0.306667
     11.08328      9.88164     33.66560         0.294780      0.196576     -0.044899
     12.08815     11.33914     33.83080        -0.170632      0.871287      0.248560
     11.08748     11.77114     31.80061         0.176926     -0.305832     -0.180274
     12.52510     10.94759     31.19510         0.237750     -0.003735     -0.132395
     14.99796      7.02438     33.28984        -0.014844     -0.052965      0.213548
     13.66846      6.80069     34.44035         0.483107      0.336606      0.036391
     15.31179      6.47609     34.97988        -0.118620      0.286524     -0.254435
     15.46892     12.48867     34.94403         0.168249     -0.192686     -0.133239
     15.34113     11.42918     33.51530         0.061037      0.084281      0.419886
     16.35005     10.90247     34.93094        -0.210681      0.290874     -0.151571
     13.69180      9.21215     37.47136         0.449464      0.547415      0.452154
     13.56935      7.54244     36.97866         0.130700     -0.253357     -0.070640
     12.16305      8.40400     37.58532        -0.472901     -0.154073      0.421507
      9.77254      9.67288     31.69618        -0.554637      0.160064      0.349797
     10.44241     10.05987     30.12683        -0.095408      0.175419     -0.333107
     12.81354      8.92011     29.66422         0.160043      0.458455     -0.357969
      9.90542      7.52254     32.53019         0.346883      0.009580     -0.137576
     14.01428      6.77860     29.81940         0.925328     -0.251117     -0.639311
     11.16685      5.33073     32.69444        -0.043137      0.127285     -0.026958
     13.21699      4.97185     31.35014         0.137619     -0.321418      0.087225
      0.35380      4.35040     34.83630         0.353920     -0.998035     -0.203387
      0.14360     13.45225     34.81637         0.157267      0.484563     -1.415238
      8.75056      4.16700     34.64769        -1.779971      0.290979      0.007733
      9.19990     13.96348     34.86217        -0.206832      0.692958      0.224729
      4.32348      9.23706     34.88864         0.531177      1.291223     -0.439920
      4.28868      0.21705     34.82648         1.118540      0.802696     -0.448049
     13.84507     17.81216     35.00298        -0.716160     -1.164455     -0.285318
      0.08845      4.44290     40.73367        -1.278124      1.395466     -0.471912
      0.22659     13.81358     40.80096        -0.976325      1.576542     -1.460991
      8.79854      4.24641     40.71564        -1.090200      1.237263      0.018291
      8.94310     13.63629     40.68632         0.303458     -0.298050     -0.831266
      4.55523      9.05330     40.61899        -1.214743     -1.084074     -0.685600
      4.54626     17.98826     40.61475         0.937694      1.051615     -0.167736
     13.76142      9.00024     40.73314         0.277314      0.127416     -0.690173
     13.57891     18.02614     40.57818         1.478267      1.195338     -0.262011
      9.02897      4.51561     46.44552         0.006725      0.009301      0.028037
      9.02651     13.54701     46.44552         0.006501      0.006619      0.052704
     18.05937      4.51561     46.44552        -0.005253      0.021707      0.052029
     18.05691     13.54701     46.44552         0.028036     -0.007591      0.052607
      4.51521      0.00002     46.44421         0.005025      0.002053      0.066976
      4.51275      9.03142     46.44421         0.006476      0.007174      0.050762
     13.54561      0.00002     46.44421         0.009472      0.009072      0.049388
     13.54315      9.03142     46.44421        -0.025610     -0.029780      0.055326
     11.30125      8.36039     31.08806        -0.143676      0.523145      0.271846
     12.43503      8.14552     30.30536         0.511888     -1.611247      0.408254
     10.81599      7.35495     31.93049         0.331408     -0.978347      0.109647
     13.13158      6.91322     30.38935        -1.555908      0.432046      1.015263
     11.50891      6.11909     32.01845        -0.176218      0.447406     -0.094797
     12.66973      5.89891     31.26586        -0.122392      1.007661     -0.484307
     13.25215      9.64006     33.37354        -1.040548      0.260702     -0.366119
     14.95316      8.62969     34.78855         0.362005     -0.848792     -0.167557
     14.20238     10.86058     35.31090        -0.516057      0.130819      0.080245
     12.63071      8.95899     35.62628         0.142356     -0.401918      0.000294
     11.93854     10.45107     33.24490         0.618690     -1.138055     -0.141658
     11.62033     10.79348     31.78627        -0.840947      0.336222      0.359147
     14.71694      7.16230     34.34701        -0.084740      0.379349      0.138147
     15.43015     11.43353     34.62205        -0.100892     -0.012513      0.057790
     13.05264      8.49857     36.98672         0.155060     -0.139611     -0.305331
     10.69551      9.74082     31.13827         0.451337     -0.078791     -0.284119
      0.68419      3.28235     35.54277        -0.365393      1.355111     -1.573891
      0.60057     12.36957     35.38263         0.295574     -0.311535     -0.723328
      9.95736      4.09611     35.12608         0.358724     -0.410490     -0.767086
      9.38672     12.85736     35.53207         0.030224     -0.308707     -0.155234
      7.76695      4.89441     35.18412         0.538257     -0.963952     -1.261509
      8.44346     14.95999     35.27583         0.568223     -0.293191     -0.934561
     17.86788      5.43392     35.31043         0.094235      0.132176     -0.692181
     17.61828     14.45163     35.42594        -0.053199     -0.349319      0.056359
      3.98277      8.12519     35.45850         0.849008     -0.178354      1.576976
      3.31809     17.59947     35.35050         0.291652     -0.973707      1.594451
     12.76271     17.19507     35.44711         0.622662      2.091901      1.130719
      5.48551      0.42765     35.34643        -1.968379     -1.381114      1.396647
      5.15127     10.15141     35.36185        -0.298552     -2.341230      1.608279
     14.47862      0.72073     35.58625        -1.170394      0.531707      1.712380
      0.94052      3.54363     41.08337         1.532513     -1.613538      0.229227
      0.91952     12.94019     41.42463         1.530069     -2.031690      1.341579
      9.83593      3.67709     41.24411         1.310977     -0.770152      0.736683
      9.71372     12.88363     41.44672        -1.384031      1.331556      0.124374
      3.81232      8.09480     41.16095         0.314700      0.386107     -1.004128
      3.72753     17.17168     41.21566        -0.323020     -0.298532     -0.166791
     12.94174      8.37272     41.53841         0.144005      0.201744     -0.007328
     12.67160     17.30447     41.16697        -0.348770     -0.340396     -0.432392
      8.07044      5.21884     41.27474         0.316561     -1.227387     -1.690458
      8.04085     14.50665     41.07823         0.312351     -0.314856     -1.372086
     17.40423      5.19223     41.54325         1.165455     -1.202871     -1.228036
     17.23689     14.45209     41.24995        -0.585211      0.078269      0.877049
      5.34819      0.81893     41.20301        -0.717246     -0.859194     -1.517770
      5.30743      9.90343     41.25378         0.407357      0.400790     -0.358713
     14.42044      0.82089     41.17041        -0.706623     -0.826449     -1.239135
     14.49694     10.05745     40.99441        -1.041127     -0.605171      1.577861
      0.82731      3.68697     47.03596         0.029799     -0.036373     -0.093895
      0.82485     12.71837     47.03596         0.006106     -0.015318     -0.092733
      9.85771      3.68697     47.03596         0.022517     -0.030829     -0.086089
      9.85525     12.71837     47.03596         0.028608     -0.019944     -0.099233
      3.68432      8.20234     47.03465        -0.015957     -0.012876     -0.069984
      3.68186     17.23373     47.03465        -0.014810     -0.008337     -0.076295
     12.71472      8.20234     47.03465         0.005889      0.007720     -0.086817
     12.71226     17.23373     47.03465        -0.015249     -0.020262     -0.072634
      8.20068      5.34457     47.03603        -0.020684      0.013414     -0.090145
      8.19822     14.37597     47.03603        -0.014633      0.016780     -0.099072
     17.23108      5.34457     47.03603        -0.004278      0.006343     -0.094059
     17.22862     14.37597     47.03603        -0.029196      0.022406     -0.092794
      5.34365      0.82909     47.03465         0.003093      0.003474     -0.072164
      5.34119      9.86049     47.03465         0.004552      0.009103     -0.075555
     14.37405      0.82909     47.03465         0.008398      0.000212     -0.076619
     14.37159      9.86049     47.03465         0.026534      0.033268     -0.074606
     13.75129      9.50357     34.77186        -0.282581      0.603335      0.061919
      8.87772      0.30418     34.46958         0.122871      0.067151     -0.005537
      8.50175      9.30744     34.88253         0.198847     -0.058354     -0.254862
     18.02442     17.95983     34.43944        -0.142725      0.019913     -0.011913
      0.61576      8.85605     34.48565        -0.105938     -0.020244     -0.001278
      4.28033      4.37464     34.49612        -0.035116     -0.005426     -0.021505
      4.59898     13.57218     34.54857        -0.004101      0.054032     -0.007539
     13.53645      3.87252     34.73304        -0.062704     -0.043704     -0.160759
     13.03765     14.15133     34.18501        -0.097836     -0.177579      0.117765
      0.01649     18.00778     40.88281         0.047406     -0.021007      0.027624
      0.21491      9.06348     40.90934         0.010862      0.003908      0.068245
      8.92731     18.03896     40.83358         0.094208      0.037491      0.168246
      9.16468      8.79030     41.02138        -0.034310      0.041968     -0.121429
      4.56418      4.45219     40.85235        -0.032733      0.008277      0.185426
      4.51658     13.58808     40.91967        -0.055253     -0.001830     -0.037335
     13.37516      4.60829     40.95090         0.016509      0.034540     -0.026261
     13.61815     13.68328     40.84971        -0.002389     -0.002472     -0.035212
      2.60487      1.90917     38.12879        -0.125036     -0.099567      0.033049
      2.63630     10.98709     37.93684        -0.033559     -0.101119      0.110688
     11.71941      1.86891     38.02336        -0.032117     -0.052365      0.020994
     11.16512     11.45639     38.39481         0.150755     -0.133160     -0.183755
      6.33120      7.07414     37.93925         0.117470      0.068399      0.076602
      6.46081     16.11109     37.92643        -0.006742     -0.000712      0.128615
     16.07438      6.56973     38.39219        -0.131764      0.221463     -0.230626
     15.55717     16.12884     37.91095        -0.046411     -0.141303      0.079144
      2.03667      6.44095     38.12710        -0.018750      0.073969     -0.011369
      1.96311     15.52567     37.89616         0.062686      0.052492      0.077804
     10.43601      5.94334     38.04905         0.131938      0.157272     -0.091045
     11.03703     15.58925     38.08957         0.075220     -0.029796      0.076834
      6.91958      2.39611     38.02670         0.037401     -0.004210     -0.054046
      6.95908     11.50681     38.25135         0.041143      0.014722     -0.010637
     16.06889      2.55045     38.24920         0.028112     -0.057766     -0.049530
     16.52794     11.80981     38.43414        -0.235540     -0.049711     -0.353659
      0.00000      0.00000     47.17356         0.000640     -0.001077      0.359383
     -0.00246      9.03140     47.17356        -0.001779      0.007043      0.397855
      9.03040      0.00000     47.17356         0.000612     -0.005064      0.383895
      9.02794      9.03140     47.17356         0.003041      0.004276      0.590151
      4.51398      4.51570     47.17425        -0.004134     -0.005311      0.413144
      4.51152     13.54710     47.17425        -0.000265      0.003024      0.496325
     13.54438      4.51570     47.17425         0.002505     -0.003080      0.509654
     13.54192     13.54710     47.17425         0.001993     -0.000224      0.306474
      2.45192      2.06295     44.04013        -0.005363     -0.044060     -0.030456
      2.44946     11.09435     44.04013         0.029819     -0.024542      0.053398
     11.48232      2.06295     44.04013         0.028915     -0.062523     -0.019342
     11.47986     11.09435     44.04013         0.116780     -0.002678     -0.020153
      6.57602      6.96845     44.04013        -0.077088      0.037008      0.026155
      6.57356     15.99985     44.04013        -0.011234      0.024115      0.012215
     15.60642      6.96845     44.04013        -0.004499      0.061927      0.044529
     15.60396     15.99985     44.04013        -0.044880      0.016157      0.037490
      2.06108      6.57881     44.04000         0.013882     -0.018819      0.006762
      2.05862     15.61021     44.04000        -0.011997      0.039388      0.032631
     11.09148      6.57881     44.04000        -0.034398     -0.080913      0.066569
     11.08902     15.61021     44.04000         0.005228     -0.016507     -0.026199
      6.96686      2.45259     44.04007        -0.004229     -0.025248      0.028348
      6.96440     11.48399     44.04007         0.020460      0.039201     -0.006154
     15.99726      2.45259     44.04007         0.040535     -0.016729     -0.013653
     15.99481     11.48399     44.04007        -0.019265      0.063717     -0.060207
      2.43163      2.08322     50.06849         0.000816     -0.020788      0.018197
      2.42917     11.11462     50.06849         0.001439     -0.015287      0.018152
     11.46203      2.08322     50.06849         0.001840     -0.022808      0.021385
     11.45957     11.11462     50.06849         0.036495      0.017127      0.017801
      6.59631      6.94818     50.06849        -0.025407     -0.003435      0.021629
      6.59385     15.97958     50.06849        -0.002250      0.018120      0.018021
     15.62671      6.94818     50.06849        -0.000735      0.019529      0.020357
     15.62425     15.97958     50.06849        -0.012597      0.006650      0.016279
      2.08113      6.59901     50.06905        -0.014507     -0.007514      0.020507
      2.07867     15.63041     50.06905        -0.024156      0.002569      0.017498
     11.11153      6.59901     50.06905        -0.000374     -0.017060      0.021759
     11.10907     15.63041     50.06905        -0.001261     -0.019124      0.017752
      6.94681      2.43239     50.06905         0.012684      0.004053      0.020925
      6.94435     11.46379     50.06905         0.000528      0.021005      0.019992
     15.97721      2.43239     50.06905         0.025518     -0.006456      0.020065
     15.97475     11.46379     50.06905         0.002274      0.020751      0.016549
     18.00843      0.01808     37.77423         0.028295      0.044858     -0.023972
      0.12247      9.04196     37.80375        -0.026046     -0.006337      0.051395
      9.04616      0.09812     37.65992         0.009780      0.117306     -0.001627
      8.95379      8.96615     37.85782        -0.027046     -0.063497      0.093274
      4.41426      4.47584     37.66241         0.135576     -0.122515     -0.025385
      4.48120     13.51045     37.61526         0.035797      0.013261     -0.017868
     13.48937      4.50981     37.74638        -0.077047     -0.038057      0.112668
     13.48352     13.65742     37.70911        -0.146135      0.017809      0.020522
      0.00001      0.00001     44.04300        -0.025844     -0.036528      0.109166
     -0.00245      9.03141     44.04300         0.020685     -0.096714      0.045195
      9.03041      0.00001     44.04300        -0.038835      0.069389     -0.063426
      9.02795      9.03141     44.04300        -0.040480     -0.021455      0.150440
      4.51397      4.51569     44.04275         0.068125      0.035895     -0.052756
      4.51151     13.54709     44.04275        -0.020294     -0.018337      0.009206
     13.54437      4.51569     44.04275         0.026860      0.062123      0.079970
     13.54191     13.54709     44.04275        -0.050163      0.054193      0.074508
      0.00000      0.00000     50.44728         0.006690      0.008554     -0.612978
     -0.00246      9.03140     50.44728         0.006206     -0.009646     -0.625077
      9.03040      0.00000     50.44728        -0.005854      0.010533     -0.622116
      9.02794      9.03140     50.44728        -0.007042     -0.009724     -0.676589
      4.51397      4.51570     50.44728         0.013453      0.014919     -0.631264
      4.51151     13.54710     50.44728         0.014134     -0.013505     -0.652598
     13.54437      4.51570     50.44728        -0.015217      0.012984     -0.657564
     13.54191     13.54710     50.44728        -0.012360     -0.014856     -0.597825
 -----------------------------------------------------------------------------------
    total drift:                                0.001947      0.042993     -0.014003


--------------------------------------------------------------------------------------------------------



  FREE ENERGIE OF THE ION-ELECTRON SYSTEM (eV)
  ---------------------------------------------------
  free  energy   TOTEN  =     -1573.09237336 eV

  energy  without entropy=    -1573.09237336  energy(sigma->0) =    -1573.09237336
 


--------------------------------------------------------------------------------------------------------


    POTLOK:  cpu time    0.4986: real time    0.4986


--------------------------------------------------------------------------------------------------------


     LOOP+:  cpu time  286.2359: real time  286.8018
 vacuum level on the upper side and lower side of the slab         2.287         1.583
    4ORBIT:  cpu time    0.0000: real time    0.0000

 total amount of memory used by VASP MPI-rank0  8653586. kBytes
=======================================================================

   base      :      30000. kBytes
   nonlr-proj:      53624. kBytes
   fftplans  :     249280. kBytes
   grid      :     701440. kBytes
   one-center:       2636. kBytes
   wavefun   :    7616606. kBytes
 
  
  
 General timing and accounting informations for this job:
 ========================================================
  
                  Total CPU time used (sec):      500.016
                            User time (sec):      405.779
                          System time (sec):       94.237
                         Elapsed time (sec):      501.814
  
                   Maximum memory used (kb):    10308144.
                   Average memory used (kb):          N/A
  
                          Minor page faults:      3614093
                          Major page faults:           13
                 Voluntary context switches:        11199
