 vasp.6.2.1 16May21 (build Nov 15 2021 14:57:28) complex                         
 executed on             LinuxPGI date 2023.07.25  03:10:01
 running on    4 total cores
 distrk:  each k-point on    4 cores,    1 groups
 distr:  one band on NCORE=   1 cores,    4 groups


--------------------------------------------------------------------------------------------------------


 INCAR:
   SYSTEM = PSC
   ISTART = 1
   ICHARG = 1
   PREC = Normal
   ENCUT = 500
   GGA_COMPAT = F
   NELM = 600
   ISYM = 0
   LREAL = Auto
   ISMEAR = 0
   SIGMA = 0.05
   AMIN = 0.01
   BMIX = 0.01
   LVTOT = T
   LWAVE = F
   LDIPOL = T
   IDIPOL = 3
   LVDW = T
   IVDW = 12

 POTCAR:    PAW_PBE H 15Jun2001                   
 POTCAR:    PAW_PBE C 08Apr2002                   
 POTCAR:    PAW_PBE N 08Apr2002                   
 POTCAR:    PAW_PBE I 08Apr2002                   
 POTCAR:    PAW_PBE Pb 08Apr2002                  
 WARNING: For LVTOT=.TRUE., VASP.5.x writes the TOTAL local potential to the
     file LOCPOT. If you want only the Hartree contributions, use LVHAR=.TRUE.
     instead. 

 POTCAR:    PAW_PBE H 15Jun2001                   
   SHA256 =  030f79b5d3ab3cf0e668861823c8fb652ff669f3e15e46930bd03bfd63a607b6 H/POTCAR              
   COPYR  = (c) Copyright 15Jun2001 Georg Kresse                                                    
   COPYR  = This file is part of the software VASP. Any use, copying, and all other rights are regul
   COPYR  = If you do not have a valid VASP license, you may not use, copy or distribute this file. 
   VRHFIN =H: ultrasoft test                                                                        
   LEXCH  = PE                                                                                      
   EATOM  =    12.4884 eV,    0.9179 Ry                                                             
                                                                                                    
   TITEL  = PAW_PBE H 15Jun2001                                                                     
   LULTRA =        F    use ultrasoft PP ?                                                          
   IUNSCR =        0    unscreen: 0-lin 1-nonlin 2-no                                               
   RPACOR =    0.000    partial core radius                                                         
   POMASS =    1.000; ZVAL   =    1.000    mass and valenz                                          
   RCORE  =    1.100    outmost cutoff radius                                                       
   RWIGS  =    0.700; RWIGS  =    0.370    wigner-seitz radius (au A)                               
   ENMAX  =  250.000; ENMIN  =  200.000 eV                                                          
   RCLOC  =    0.701    cutoff for local pot                                                        
   LCOR   =        T    correct aug charges                                                         
   LPAW   =        T    paw PP                                                                      
   EAUG   =  400.000                                                                                
   RMAX   =    1.123    core radius for proj-oper                                                   
   RAUG   =    1.200    factor for augmentation sphere                                              
   RDEP   =    1.112    radius for radial grids                                                     
   RDEPT  =    0.926    core radius for aug-charge                                                  
                                                                                                    
   Atomic configuration                                                                             
    2 entries                                                                                       
     n  l   j            E        occ.                                                              
     1  0  0.50        -6.4927   1.0000                                                             
     2  1  0.50        -3.4015   0.0000                                                             
   Description                                                                                      
     l       E           TYP  RCUT    TYP  RCUT                                                     
     0     -6.4927494     23  1.100                                                                 
     0      6.8029130     23  1.100                                                                 
     1     -4.0817478     23  1.100                                                                 
  local pseudopotential read in
  atomic valenz-charges read in
  non local Contribution for L=            0  read in
    real space projection operators read in
  non local Contribution for L=            0  read in
    real space projection operators read in
  non local Contribution for L=            1  read in
    real space projection operators read in
    PAW grid and wavefunctions read in
 
   number of l-projection  operators is LMAX  =            3
   number of lm-projection operators is LMMAX =            5
 
 POTCAR:    PAW_PBE C 08Apr2002                   
   SHA256 =  253f7b50bb8d59471dbedb8285d89021f4a42ed1a2c5d38a03a736e69125dd95 C/POTCAR              
   COPYR  = (c) Copyright 08Apr2002 Georg Kresse                                                    
   COPYR  = This file is part of the software VASP. Any use, copying, and all other rights are regul
   COPYR  = If you do not have a valid VASP license, you may not use, copy or distribute this file. 
   VRHFIN =C: s2p2                                                                                  
   LEXCH  = PE                                                                                      
   EATOM  =   147.1560 eV,   10.8157 Ry                                                             
                                                                                                    
   TITEL  = PAW_PBE C 08Apr2002                                                                     
   LULTRA =        F    use ultrasoft PP ?                                                          
   IUNSCR =        1    unscreen: 0-lin 1-nonlin 2-no                                               
   RPACOR =    1.200    partial core radius                                                         
   POMASS =   12.011; ZVAL   =    4.000    mass and valenz                                          
   RCORE  =    1.500    outmost cutoff radius                                                       
   RWIGS  =    1.630; RWIGS  =    0.863    wigner-seitz radius (au A)                               
   ENMAX  =  400.000; ENMIN  =  300.000 eV                                                          
   ICORE  =        2    local potential                                                             
   LCOR   =        T    correct aug charges                                                         
   LPAW   =        T    paw PP                                                                      
   EAUG   =  644.873                                                                                
   DEXC   =    0.000                                                                                
   RMAX   =    1.529    core radius for proj-oper                                                   
   RAUG   =    1.300    factor for augmentation sphere                                              
   RDEP   =    1.501    radius for radial grids                                                     
   RDEPT  =    1.300    core radius for aug-charge                                                  
                                                                                                    
   Atomic configuration                                                                             
    4 entries                                                                                       
     n  l   j            E        occ.                                                              
     1  0  0.50      -273.3789   2.0000                                                             
     2  0  0.50       -13.7508   2.0000                                                             
     2  1  0.50        -5.2854   2.0000                                                             
     3  2  1.50        -5.4423   0.0000                                                             
   Description                                                                                      
     l       E           TYP  RCUT    TYP  RCUT                                                     
     0    -13.7508458     23  1.200                                                                 
     0     -8.2022199     23  1.200                                                                 
     1     -5.2854383     23  1.500                                                                 
     1     34.0145650     23  1.500                                                                 
     2     -5.4423304      7  1.500                                                                 
  local pseudopotential read in
  partial core-charges read in
  partial kinetic energy density read in
  atomic valenz-charges read in
  non local Contribution for L=            0  read in
    real space projection operators read in
  non local Contribution for L=            0  read in
    real space projection operators read in
  non local Contribution for L=            1  read in
    real space projection operators read in
  non local Contribution for L=            1  read in
    real space projection operators read in
    PAW grid and wavefunctions read in
 
   number of l-projection  operators is LMAX  =            4
   number of lm-projection operators is LMMAX =            8
 
 POTCAR:    PAW_PBE N 08Apr2002                   
   SHA256 =  e053789ff3a61a86a1b75d8a110fcc91f86041011e7b0817c7c99e4e8a6349d7 N/POTCAR              
   COPYR  = (c) Copyright 08Apr2002 Georg Kresse                                                    
   COPYR  = This file is part of the software VASP. Any use, copying, and all other rights are regul
   COPYR  = If you do not have a valid VASP license, you may not use, copy or distribute this file. 
   VRHFIN =N: s2p3                                                                                  
   LEXCH  = PE                                                                                      
   EATOM  =   264.5486 eV,   19.4438 Ry                                                             
                                                                                                    
   TITEL  = PAW_PBE N 08Apr2002                                                                     
   LULTRA =        F    use ultrasoft PP ?                                                          
   IUNSCR =        1    unscreen: 0-lin 1-nonlin 2-no                                               
   RPACOR =    1.200    partial core radius                                                         
   POMASS =   14.001; ZVAL   =    5.000    mass and valenz                                          
   RCORE  =    1.500    outmost cutoff radius                                                       
   RWIGS  =    1.400; RWIGS  =    0.741    wigner-seitz radius (au A)                               
   ENMAX  =  400.000; ENMIN  =  300.000 eV                                                          
   ICORE  =        2    local potential                                                             
   LCOR   =        T    correct aug charges                                                         
   LPAW   =        T    paw PP                                                                      
   EAUG   =  627.112                                                                                
   DEXC   =    0.000                                                                                
   RMAX   =    1.529    core radius for proj-oper                                                   
   RAUG   =    1.300    factor for augmentation sphere                                              
   RDEP   =    1.514    radius for radial grids                                                     
   RDEPT  =    1.338    core radius for aug-charge                                                  
                                                                                                    
   Atomic configuration                                                                             
    4 entries                                                                                       
     n  l   j            E        occ.                                                              
     1  0  0.50      -384.7179   2.0000                                                             
     2  0  0.50       -18.5828   2.0000                                                             
     2  1  0.50        -7.0898   3.0000                                                             
     3  2  1.50        -6.8029   0.0000                                                             
   Description                                                                                      
     l       E           TYP  RCUT    TYP  RCUT                                                     
     0    -18.5828119     23  1.200                                                                 
     0    -13.5018863     23  1.200                                                                 
     1     -7.0897853     23  1.500                                                                 
     1      9.5240782     23  1.500                                                                 
     2     -6.8029130      7  1.500                                                                 
  local pseudopotential read in
  partial core-charges read in
  partial kinetic energy density read in
  atomic valenz-charges read in
  non local Contribution for L=            0  read in
    real space projection operators read in
  non local Contribution for L=            0  read in
    real space projection operators read in
  non local Contribution for L=            1  read in
    real space projection operators read in
  non local Contribution for L=            1  read in
    real space projection operators read in
    PAW grid and wavefunctions read in
 
   number of l-projection  operators is LMAX  =            4
   number of lm-projection operators is LMMAX =            8
 
 POTCAR:    PAW_PBE I 08Apr2002                   
   SHA256 =  e40f3f59b681c1fc3e3091736183c4589116986673d2b852a5012aec72758799 I/POTCAR              
   COPYR  = (c) Copyright 08Apr2002 Georg Kresse                                                    
   COPYR  = This file is part of the software VASP. Any use, copying, and all other rights are regul
   COPYR  = If you do not have a valid VASP license, you may not use, copy or distribute this file. 
   VRHFIN =I : s2p5                                                                                 
   LEXCH  = PE                                                                                      
   EATOM  =   315.8678 eV,   23.2156 Ry                                                             
                                                                                                    
   TITEL  = PAW_PBE I 08Apr2002                                                                     
   LULTRA =        F    use ultrasoft PP ?                                                          
   IUNSCR =        1    unscreen: 0-lin 1-nonlin 2-no                                               
   RPACOR =    2.200    partial core radius                                                         
   POMASS =  126.904; ZVAL   =    7.000    mass and valenz                                          
   RCORE  =    2.300    outmost cutoff radius                                                       
   RWIGS  =    2.810; RWIGS  =    1.487    wigner-seitz radius (au A)                               
   ENMAX  =  175.647; ENMIN  =  131.735 eV                                                          
   ICORE  =        3    local potential                                                             
   LCOR   =        T    correct aug charges                                                         
   LPAW   =        T    paw PP                                                                      
   EAUG   =  370.139                                                                                
   DEXC   =    0.000                                                                                
   RMAX   =    2.359    core radius for proj-oper                                                   
   RAUG   =    1.300    factor for augmentation sphere                                              
   RDEP   =    2.392    radius for radial grids                                                     
   RDEPT  =    2.170    core radius for aug-charge                                                  
                                                                                                    
   Atomic configuration                                                                             
   13 entries                                                                                       
     n  l   j            E        occ.                                                              
     1  0  0.50    -32976.3739   2.0000                                                             
     2  0  0.50     -5094.5933   2.0000                                                             
     2  1  1.50     -4572.0131   6.0000                                                             
     3  0  0.50     -1028.2813   2.0000                                                             
     3  1  1.50      -859.0250   6.0000                                                             
     3  2  2.50      -605.7620  10.0000                                                             
     4  0  0.50      -180.5540   2.0000                                                             
     4  1  1.50      -127.5306   6.0000                                                             
     4  2  2.50       -50.2720  10.0000                                                             
     5  0  0.50       -17.4058   2.0000                                                             
     5  1  0.50        -7.0851   5.0000                                                             
     5  2  1.50        -7.0750   0.0000                                                             
     4  3  2.50        -7.0750   0.0000                                                             
   Description                                                                                      
     l       E           TYP  RCUT    TYP  RCUT                                                     
     0    -17.4058016     23  2.300                                                                 
     0    -18.7663842     23  2.300                                                                 
     1     -7.0850686     23  2.300                                                                 
     1     -4.2150896     23  2.300                                                                 
     2     -7.0750295     23  2.300                                                                 
     3     -1.3605826     23  2.300                                                                 
  local pseudopotential read in
  partial core-charges read in
  partial kinetic energy density read in
  atomic valenz-charges read in
  non local Contribution for L=            0  read in
    real space projection operators read in
  non local Contribution for L=            0  read in
    real space projection operators read in
  non local Contribution for L=            1  read in
    real space projection operators read in
  non local Contribution for L=            1  read in
    real space projection operators read in
  non local Contribution for L=            2  read in
    real space projection operators read in
    PAW grid and wavefunctions read in
 
   number of l-projection  operators is LMAX  =            5
   number of lm-projection operators is LMMAX =           13
 
 POTCAR:    PAW_PBE Pb 08Apr2002                  
   SHA256 =  797118a27cf1bcd06b9881c67a26cdde129e3cd1a551dd4a281f9681ce847303 Pb/POTCAR             
   COPYR  = (c) Copyright 08Apr2002 Georg Kresse                                                    
   COPYR  = This file is part of the software VASP. Any use, copying, and all other rights are regul
   COPYR  = If you do not have a valid VASP license, you may not use, copy or distribute this file. 
   VRHFIN =Pb:                                                                                      
   LEXCH  = PE                                                                                      
   EATOM  =    96.9868 eV,    7.1283 Ry                                                             
                                                                                                    
   TITEL  = PAW_PBE Pb 08Apr2002                                                                    
   LULTRA =        F    use ultrasoft PP ?                                                          
   IUNSCR =        1    unscreen: 0-lin 1-nonlin 2-no                                               
   RPACOR =    2.200    partial core radius                                                         
   POMASS =  207.200; ZVAL   =    4.000    mass and valenz                                          
   RCORE  =    3.100    outmost cutoff radius                                                       
   RWIGS  =    3.260; RWIGS  =    1.725    wigner-seitz radius (au A)                               
   ENMAX  =   97.973; ENMIN  =   73.480 eV                                                          
   ICORE  =        3    local potential                                                             
   LCOR   =        T    correct aug charges                                                         
   LPAW   =        T    paw PP                                                                      
   EAUG   =  234.873                                                                                
   DEXC   =    0.000                                                                                
   RMAX   =    3.158    core radius for proj-oper                                                   
   RAUG   =    1.300    factor for augmentation sphere                                              
   RDEP   =    3.202    radius for radial grids                                                     
   RDEPT  =    2.659    core radius for aug-charge                                                  
                                                                                                    
   Atomic configuration                                                                             
   17 entries                                                                                       
     n  l   j            E        occ.                                                              
     1  0  0.50    -88091.8466   2.0000                                                             
     2  0  0.50    -15753.4197   2.0000                                                             
     2  1  1.50    -13508.1797   6.0000                                                             
     3  0  0.50     -3781.7194   2.0000                                                             
     3  1  1.50     -3138.2529   6.0000                                                             
     3  2  2.50     -2483.2977  10.0000                                                             
     4  0  0.50      -856.2895   2.0000                                                             
     4  1  1.50      -645.4943   6.0000                                                             
     4  2  2.50      -401.8768  10.0000                                                             
     4  3  3.50      -132.9059  14.0000                                                             
     5  0  0.50      -144.0950   2.0000                                                             
     5  1  1.50       -85.7879   6.0000                                                             
     5  2  2.50       -21.1769  10.0000                                                             
     6  0  0.50       -12.0372   2.0000                                                             
     6  1  1.50        -3.4971   2.0000                                                             
     6  2  2.50        -1.3606   0.0000                                                             
     5  3  2.50        -2.7212   0.0000                                                             
   Description                                                                                      
     l       E           TYP  RCUT    TYP  RCUT                                                     
     0    -12.0371566     23  3.100                                                                 
     0    -13.3977392     23  3.100                                                                 
     1     -3.4971341     23  3.100                                                                 
     1     -5.4423304     23  3.100                                                                 
     2     -1.3605826     23  3.100                                                                 
     3     -1.3605826     23  3.100                                                                 
  local pseudopotential read in
  partial core-charges read in
  partial kinetic energy density read in
  atomic valenz-charges read in
  non local Contribution for L=            0  read in
    real space projection operators read in
  non local Contribution for L=            0  read in
    real space projection operators read in
  non local Contribution for L=            1  read in
    real space projection operators read in
  non local Contribution for L=            1  read in
    real space projection operators read in
  non local Contribution for L=            2  read in
    real space projection operators read in
    PAW grid and wavefunctions read in
 
   number of l-projection  operators is LMAX  =            5
   number of lm-projection operators is LMMAX =           13
 
 Optimization of the real space projectors (new method)

 maximal supplied QI-value         = 34.20
 optimisation between [QCUT,QGAM] = [ 11.29, 22.57] = [ 35.68,142.71] Ry 
 Optimized for a Real-space Cutoff    1.16 Angstroem

   l    n(q)    QCUT    max X(q) W(low)/X(q) W(high)/X(q)  e(spline) 
   0      8    11.287    19.460    0.40E-03    0.73E-03    0.16E-06
   0      8    11.287    12.209    0.38E-03    0.70E-03    0.15E-06
   1      7    11.287     4.655    0.22E-03    0.25E-04    0.22E-06
 Optimization of the real space projectors (new method)

 maximal supplied QI-value         = 25.13
 optimisation between [QCUT,QGAM] = [ 11.31, 22.87] = [ 35.82,146.48] Ry 
 Optimized for a Real-space Cutoff    1.00 Angstroem

   l    n(q)    QCUT    max X(q) W(low)/X(q) W(high)/X(q)  e(spline) 
   0      7    11.310   115.676    0.43E-03    0.13E-02    0.19E-06
   0      7    11.310    87.132    0.43E-03    0.13E-02    0.18E-06
   1      6    11.310     4.429    0.42E-03    0.74E-03    0.11E-06
   1      6    11.310     2.733    0.34E-03    0.55E-03    0.92E-07
 Optimization of the real space projectors (new method)

 maximal supplied QI-value         = 25.13
 optimisation between [QCUT,QGAM] = [ 11.31, 22.87] = [ 35.82,146.48] Ry 
 Optimized for a Real-space Cutoff    1.27 Angstroem

   l    n(q)    QCUT    max X(q) W(low)/X(q) W(high)/X(q)  e(spline) 
   0      9    11.310    79.467    0.75E-04    0.16E-03    0.36E-06
   0      9    11.310    66.151    0.74E-04    0.16E-03    0.36E-06
   1      8    11.310    17.416    0.35E-03    0.12E-03    0.95E-06
   1      8    11.310    12.382    0.37E-03    0.13E-03    0.98E-06
 Optimization of the real space projectors (new method)

 maximal supplied QI-value         = 16.25
 optimisation between [QCUT,QGAM] = [ 11.38, 22.75] = [ 36.24,144.96] Ry 
 Optimized for a Real-space Cutoff    1.31 Angstroem

   l    n(q)    QCUT    max X(q) W(low)/X(q) W(high)/X(q)  e(spline) 
   0      9    11.376   194.483    0.24E-03    0.23E-03    0.67E-07
   0      9    11.376   190.334    0.23E-03    0.22E-03    0.65E-07
   1      8    11.376   116.687    0.25E-03    0.63E-04    0.16E-06
   1      8    11.376    88.696    0.25E-03    0.61E-04    0.16E-06
   2      8    11.376     4.877    0.17E-03    0.14E-03    0.29E-07
 Optimization of the real space projectors (new method)

 maximal supplied QI-value         = 12.09
 optimisation between [QCUT,QGAM] = [ 11.37, 22.86] = [ 36.19,146.31] Ry 
 Optimized for a Real-space Cutoff    1.66 Angstroem

   l    n(q)    QCUT    max X(q) W(low)/X(q) W(high)/X(q)  e(spline) 
   0     11    11.369   135.111    0.12E-03    0.69E-04    0.19E-05
   0     11    11.369   146.850    0.11E-03    0.65E-04    0.18E-05
   1     11    11.369   148.016    0.17E-03    0.32E-03    0.89E-06
   1     11    11.369   122.989    0.17E-03    0.32E-03    0.91E-06
   2     10    11.369     8.916    0.12E-03    0.45E-04    0.33E-06
  PAW_PBE H 15Jun2001                   :
 energy of atom  1       EATOM=  -12.4884
 kinetic energy error for atom=    0.0020 (will be added to EATOM!!)
  PAW_PBE C 08Apr2002                   :
 energy of atom  2       EATOM= -147.1560
 kinetic energy error for atom=    0.0076 (will be added to EATOM!!)
  PAW_PBE N 08Apr2002                   :
 energy of atom  3       EATOM= -264.5486
 kinetic energy error for atom=    0.0138 (will be added to EATOM!!)
  PAW_PBE I 08Apr2002                   :
 energy of atom  4       EATOM= -315.8678
 kinetic energy error for atom=    0.0009 (will be added to EATOM!!)
  PAW_PBE Pb 08Apr2002                  :
 energy of atom  5       EATOM=  -96.9868
 kinetic energy error for atom=    0.0000 (will be added to EATOM!!)
 
 
 POSCAR:  H  C  N  I Pb
  positions in cartesian coordinates
  No initial velocities read in
 exchange correlation table for  LEXCH =        8
   RHO(1)=    0.500       N(1)  =     2000
   RHO(2)=  100.500       N(2)  =     4000
 


--------------------------------------------------------------------------------------------------------


 ion  position               nearest neighbor table
   1  0.453  0.336  0.564- 187 1.02
   2  0.443  0.829  0.572- 188 1.03
   3  0.962  0.328  0.575- 189 1.03
   4  0.941  0.818  0.573- 190 1.03
   5  0.336  0.951  0.572- 194 1.03
   6  0.352  0.549  0.558- 195 1.03
   7  0.807  0.089  0.561- 196 1.03
   8  0.013  0.143  0.559- 183 1.03
   9  0.074  0.668  0.571- 184 1.02
  10  0.552  0.160  0.560- 185 1.02
  11  0.496  0.641  0.558- 186 1.02
  12  0.370  0.026  0.558- 194 1.01
  13  0.296  0.627  0.553- 195 1.02
  14  0.879  0.028  0.554- 196 1.02
  15  0.957  0.190  0.577- 183 1.02
  16  0.990  0.693  0.582- 184 1.03
  17  0.566  0.252  0.567- 185 1.02
  18  0.442  0.691  0.576- 186 1.03
  19  0.279  0.437  0.572- 191 1.03
  20  0.202  0.929  0.573- 192 1.02
  21  0.687  0.029  0.571- 193 1.02
  22  0.372  0.290  0.556- 187 1.03
  23  0.505  0.867  0.554- 188 1.02
  24  0.022  0.368  0.556- 189 1.03
  25  0.991  0.869  0.554- 190 1.03
  26  0.183  0.446  0.569- 191 1.02
  27  0.147  0.994  0.560- 192 1.02
  28  0.682  0.933  0.566- 193 1.02
  29  0.430  0.178  0.551- 146 1.09
  30  0.545  0.750  0.543- 147 1.09
  31  0.064  0.251  0.545- 144 1.09
  32  0.083  0.777  0.551- 145 1.10
  33  0.187  0.564  0.557- 148 1.09
  34  0.248  0.066  0.549- 149 1.09
  35  0.802  0.923  0.556- 150 1.09
  36  0.487  0.339  0.658- 205 1.02
  37  0.447  0.808  0.674- 206 1.02
  38  0.963  0.288  0.676- 207 1.02
  39  0.928  0.725  0.673- 208 1.03
  40  0.305  0.057  0.670- 209 1.02
  41  0.298  0.549  0.675- 210 1.02
  42  0.802  0.058  0.674- 211 1.02
  43  0.772  0.596  0.656- 212 1.03
  44  0.086  0.163  0.645- 197 1.03
  45  0.118  0.723  0.652- 198 1.03
  46  0.563  0.152  0.655- 199 1.02
  47  0.568  0.668  0.649- 200 1.02
  48  0.176  0.416  0.648- 201 1.02
  49  0.171  0.920  0.650- 202 1.01
  50  0.692  0.410  0.656- 203 1.02
  51  0.674  0.921  0.651- 204 1.02
  52  0.063  0.184  0.672- 197 1.03
  53  0.059  0.677  0.670- 198 1.03
  54  0.593  0.243  0.659- 199 1.02
  55  0.539  0.697  0.675- 200 1.02
  56  0.199  0.444  0.674- 201 1.02
  57  0.204  0.955  0.675- 202 1.02
  58  0.665  0.503  0.657- 203 1.02
  59  0.699  0.959  0.676- 204 1.02
  60  0.398  0.300  0.656- 205 1.02
  61  0.428  0.841  0.648- 206 1.02
  62  0.935  0.325  0.651- 207 1.02
  63  0.906  0.797  0.655- 208 1.02
  64  0.326  0.077  0.643- 209 1.02
  65  0.328  0.578  0.650- 210 1.02
  66  0.834  0.076  0.648- 211 1.02
  67  0.860  0.556  0.654- 212 1.03
  68  0.007  0.251  0.631- 151 1.09
  69  0.024  0.803  0.640- 152 1.09
  70  0.440  0.181  0.653- 153 1.09
  71  0.502  0.756  0.631- 154 1.10
  72  0.244  0.993  0.629- 156 1.09
  73  0.255  0.496  0.631- 155 1.09
  74  0.758  0.991  0.632- 158 1.09
  75  0.817  0.436  0.655- 157 1.09
  76  0.449  0.301  0.769- 221 1.02
  77  0.449  0.801  0.769- 222 1.02
  78  0.949  0.301  0.769- 223 1.02
  79  0.949  0.801  0.769- 224 1.02
  80  0.301  0.051  0.769- 225 1.02
  81  0.301  0.551  0.769- 226 1.02
  82  0.801  0.051  0.769- 227 1.02
  83  0.801  0.551  0.769- 228 1.02
  84  0.079  0.171  0.743- 213 1.02
  85  0.079  0.671  0.743- 214 1.02
  86  0.579  0.171  0.743- 215 1.02
  87  0.579  0.671  0.743- 216 1.02
  88  0.171  0.421  0.743- 217 1.02
  89  0.171  0.921  0.743- 218 1.02
  90  0.671  0.421  0.743- 219 1.02
  91  0.671  0.921  0.743- 220 1.02
  92  0.051  0.199  0.769- 213 1.02
  93  0.051  0.699  0.769- 214 1.02
  94  0.551  0.199  0.769- 215 1.02
  95  0.551  0.699  0.769- 216 1.02
  96  0.199  0.449  0.769- 217 1.02
  97  0.199  0.949  0.769- 218 1.02
  98  0.699  0.449  0.769- 219 1.02
  99  0.699  0.949  0.769- 220 1.02
 100  0.421  0.329  0.743- 221 1.02
 101  0.421  0.829  0.743- 222 1.02
 102  0.921  0.329  0.743- 223 1.02
 103  0.921  0.829  0.743- 224 1.02
 104  0.329  0.079  0.743- 225 1.02
 105  0.329  0.579  0.743- 226 1.02
 106  0.829  0.079  0.743- 227 1.02
 107  0.829  0.579  0.743- 228 1.02
 108  0.000  0.250  0.726- 161 1.09
 109  0.000  0.750  0.726- 162 1.09
 110  0.500  0.250  0.726- 159 1.09
 111  0.500  0.750  0.726- 160 1.09
 112  0.250  0.000  0.726- 163 1.09
 113  0.250  0.500  0.726- 164 1.09
 114  0.750  0.000  0.726- 165 1.09
 115  0.750  0.500  0.726- 166 1.09
 116  0.775  0.556  0.518- 173 1.10
 117  0.719  0.479  0.524- 173 1.09
 118  0.869  0.502  0.537- 174 1.10
 119  0.861  0.485  0.565- 174 1.10
 120  0.744  0.642  0.559- 175 1.10
 121  0.813  0.599  0.575- 175 1.09
 122  0.667  0.547  0.568- 176 1.10
 123  0.682  0.455  0.559- 176 1.10
 124  0.617  0.561  0.536- 177 1.10
 125  0.674  0.640  0.534- 177 1.09
 126  0.605  0.645  0.502- 178 1.10
 127  0.687  0.602  0.493- 178 1.10
 128  0.790  0.390  0.529- 179 1.10
 129  0.777  0.374  0.557- 179 1.09
 130  0.866  0.367  0.546- 179 1.10
 131  0.861  0.697  0.551- 180 1.10
 132  0.836  0.651  0.528- 180 1.10
 133  0.905  0.612  0.545- 180 1.10
 134  0.771  0.531  0.596- 181 1.10
 135  0.776  0.437  0.588- 181 1.09
 136  0.694  0.473  0.599- 181 1.09
 137  0.539  0.527  0.505- 182 1.10
 138  0.573  0.544  0.479- 182 1.10
 139  0.704  0.480  0.470- 168 1.08
 140  0.556  0.410  0.520- 169 1.09
 141  0.768  0.358  0.471- 170 1.09
 142  0.621  0.289  0.522- 171 1.09
 143  0.728  0.263  0.498- 172 1.09
 144  0.021  0.255  0.557-  31 1.09 189 1.31 183 1.31
 145  0.034  0.767  0.561-  32 1.10 184 1.31 190 1.32
 146  0.463  0.226  0.556-  29 1.09 185 1.31 187 1.32
 147  0.502  0.754  0.555-  30 1.09 188 1.31 186 1.31
 148  0.239  0.536  0.560-  33 1.09 195 1.31 191 1.31
 149  0.257  0.015  0.558-  34 1.09 192 1.31 194 1.31
 150  0.781  0.978  0.560-  35 1.09 196 1.31 193 1.31
 151  0.010  0.244  0.648-  68 1.09 197 1.31 207 1.32
 152  0.012  0.762  0.653-  69 1.09 198 1.31 208 1.31
 153  0.480  0.225  0.656-  70 1.09 199 1.31 205 1.31
 154  0.498  0.754  0.649-  71 1.10 200 1.31 206 1.31
 155  0.252  0.496  0.649-  73 1.09 201 1.31 210 1.32
 156  0.248  0.998  0.647-  72 1.09 202 1.31 209 1.31
 157  0.777  0.482  0.655-  75 1.09 212 1.31 203 1.31
 158  0.755  0.998  0.649-  74 1.09 204 1.31 211 1.31
 159  0.500  0.250  0.743- 110 1.09 221 1.31 215 1.31
 160  0.500  0.750  0.743- 111 1.09 222 1.31 216 1.31
 161  1.000  0.250  0.743- 108 1.09 223 1.31 213 1.31
 162  1.000  0.750  0.743- 109 1.09 224 1.31 214 1.31
 163  0.250  0.000  0.743- 112 1.09 225 1.31 218 1.31
 164  0.250  0.500  0.743- 113 1.09 226 1.31 217 1.31
 165  0.750  0.000  0.743- 114 1.09 227 1.31 220 1.31
 166  0.750  0.500  0.743- 115 1.09 228 1.31 219 1.31
 167  0.626  0.454  0.495- 168 1.41 169 1.41 182 1.52
 168  0.686  0.438  0.481- 139 1.08 170 1.40 167 1.41
 169  0.603  0.399  0.509- 140 1.09 171 1.40 167 1.41
 170  0.722  0.369  0.482- 141 1.09 172 1.40 168 1.40
 171  0.639  0.331  0.510- 142 1.09 169 1.40 172 1.40
 172  0.699  0.316  0.497- 143 1.09 170 1.40 171 1.40
 173  0.731  0.536  0.529- 117 1.09 116 1.10 229 1.52 177 1.52
 174  0.832  0.479  0.550- 118 1.10 119 1.10 179 1.51 229 1.52
 175  0.793  0.606  0.558- 121 1.09 120 1.10 229 1.51 180 1.51
 176  0.709  0.503  0.567- 122 1.10 123 1.10 181 1.51 229 1.52
 177  0.663  0.585  0.527- 125 1.09 124 1.10 173 1.52 178 1.54
 178  0.638  0.594  0.504- 126 1.10 127 1.10 177 1.54 182 1.54
 179  0.814  0.399  0.545- 129 1.09 128 1.10 130 1.10 174 1.51
 180  0.852  0.642  0.545- 131 1.10 132 1.10 133 1.10 175 1.51
 181  0.740  0.485  0.589- 135 1.09 136 1.09 134 1.10 176 1.51
 182  0.590  0.530  0.495- 137 1.10 138 1.10 167 1.52 178 1.54
 183  0.994  0.192  0.564-  15 1.02   8 1.03 144 1.31
 184  0.032  0.706  0.572-   9 1.02  16 1.03 145 1.31
 185  0.533  0.213  0.560-  17 1.02  10 1.02 146 1.31
 186  0.477  0.692  0.563-  11 1.02  18 1.03 147 1.31
 187  0.429  0.290  0.558-   1 1.02  22 1.03 146 1.32
 188  0.480  0.820  0.560-  23 1.02   2 1.03 147 1.31
 189  0.998  0.321  0.563-  24 1.03   3 1.03 144 1.31
 190  0.982  0.818  0.561-  25 1.03   4 1.03 145 1.32
 191  0.234  0.467  0.566-  26 1.02  19 1.03 148 1.31
 192  0.199  0.976  0.563-  20 1.02  27 1.02 149 1.31
 193  0.711  0.981  0.566-  28 1.02  21 1.02 150 1.31
 194  0.325  0.996  0.562-  12 1.01   5 1.03 149 1.31
 195  0.300  0.572  0.556-  13 1.02   6 1.03 148 1.31
 196  0.826  0.035  0.559-  14 1.02   7 1.03 150 1.31
 197  0.055  0.194  0.656-  44 1.03  52 1.03 151 1.31
 198  0.064  0.716  0.658-  53 1.03  45 1.03 152 1.31
 199  0.550  0.206  0.657-  46 1.02  54 1.02 153 1.31
 200  0.537  0.703  0.659-  55 1.02  47 1.02 154 1.31
 201  0.206  0.450  0.657-  56 1.02  48 1.02 155 1.31
 202  0.205  0.955  0.658-  49 1.01  57 1.02 156 1.31
 203  0.707  0.465  0.656-  58 1.02  50 1.02 157 1.31
 204  0.707  0.957  0.660-  51 1.02  59 1.02 158 1.31
 205  0.454  0.293  0.657-  36 1.02  60 1.02 153 1.31
 206  0.456  0.804  0.658-  61 1.02  37 1.02 154 1.31
 207  0.967  0.288  0.659-  62 1.02  38 1.02 151 1.32
 208  0.945  0.762  0.661-  63 1.02  39 1.03 152 1.31
 209  0.296  0.047  0.654-  40 1.02  64 1.02 156 1.31
 210  0.295  0.544  0.659-  65 1.02  41 1.02 155 1.32
 211  0.799  0.047  0.658-  42 1.02  66 1.02 158 1.31
 212  0.804  0.549  0.655-  67 1.03  43 1.03 157 1.31
 213  0.046  0.204  0.753-  92 1.02  84 1.02 161 1.31
 214  0.046  0.704  0.753-  93 1.02  85 1.02 162 1.31
 215  0.546  0.204  0.753-  94 1.02  86 1.02 159 1.31
 216  0.546  0.704  0.753-  95 1.02  87 1.02 160 1.31
 217  0.204  0.454  0.753-  96 1.02  88 1.02 164 1.31
 218  0.204  0.954  0.753-  97 1.02  89 1.02 163 1.31
 219  0.704  0.454  0.753-  98 1.02  90 1.02 166 1.31
 220  0.704  0.954  0.753-  99 1.02  91 1.02 165 1.31
 221  0.454  0.296  0.753-  76 1.02 100 1.02 159 1.31
 222  0.454  0.796  0.753-  77 1.02 101 1.02 160 1.31
 223  0.954  0.296  0.753-  78 1.02 102 1.02 161 1.31
 224  0.954  0.796  0.753-  79 1.02 103 1.02 162 1.31
 225  0.296  0.046  0.753-  80 1.02 104 1.02 163 1.31
 226  0.296  0.546  0.753-  81 1.02 105 1.02 164 1.31
 227  0.796  0.046  0.753-  82 1.02 106 1.02 165 1.31
 228  0.796  0.546  0.753-  83 1.02 107 1.02 166 1.31
 229  0.766  0.531  0.551- 175 1.51 174 1.52 173 1.52 176 1.52
 230  0.517  0.015  0.552- 304 3.22
 231  0.483  0.495  0.554- 305 3.15
 232  0.016  0.006  0.548- 302 3.53
 233  0.037  0.509  0.553- 303 3.24
 234  0.237  0.241  0.552- 306 3.15
 235  0.254  0.766  0.553- 307 3.15
 236  0.739  0.207  0.554- 308 3.10
 237  0.701  0.791  0.554- 309 3.18
 238  0.001  0.985  0.654- 302 3.07 310 3.21
 239  0.998  0.506  0.655- 311 3.14 303 3.16
 240  0.496  0.010  0.655- 312 3.15 304 3.17
 241  0.507  0.489  0.655- 313 3.14 305 3.16
 242  0.259  0.247  0.654- 314 3.17 306 3.24
 243  0.259  0.754  0.654- 315 3.15 307 3.19
 244  0.744  0.266  0.654- 316 3.18 308 3.25
 245  0.745  0.742  0.654- 317 3.17 309 3.23
 246  0.134  0.112  0.607- 302 3.18 306 3.20
 247  0.146  0.609  0.608- 307 3.16 303 3.19
 248  0.648  0.106  0.610- 308 3.13 304 3.14
 249  0.616  0.628  0.608- 309 3.20 305 3.26
 250  0.357  0.388  0.605- 305 3.17 306 3.23
 251  0.375  0.880  0.606- 307 3.27 304 3.30
 252  0.890  0.364  0.609- 303 3.28 308 3.39
 253  0.867  0.879  0.605- 302 3.22 309 3.23
 254  0.120  0.367  0.609- 306 3.20 303 3.26
 255  0.124  0.868  0.608- 307 3.21 302 3.26
 256  0.594  0.339  0.601- 308 3.22 305 3.24
 257  0.616  0.871  0.613- 309 3.11 304 3.23
 258  0.386  0.135  0.606- 304 3.16 306 3.22
 259  0.384  0.629  0.610- 307 3.22 305 3.26
 260  0.886  0.133  0.611- 302 3.19 308 3.29
 261  0.895  0.646  0.609- 303 3.25 309 3.47
 262  0.000  0.000  0.755- 310 3.13 318 3.27
 263  0.000  0.500  0.755- 311 3.13 319 3.27
 264  0.500  0.000  0.755- 312 3.13 320 3.27
 265  0.500  0.500  0.755- 313 3.13 321 3.27
 266  0.250  0.250  0.755- 314 3.13 322 3.27
 267  0.250  0.750  0.755- 315 3.13 323 3.27
 268  0.750  0.250  0.755- 316 3.13 324 3.27
 269  0.750  0.750  0.755- 317 3.13 325 3.27
 270  0.136  0.114  0.705- 310 3.20 314 3.20
 271  0.136  0.614  0.705- 311 3.20 315 3.20
 272  0.636  0.114  0.705- 312 3.20 316 3.20
 273  0.636  0.614  0.705- 313 3.20 317 3.20
 274  0.364  0.386  0.705- 313 3.20 314 3.20
 275  0.364  0.886  0.705- 312 3.20 315 3.20
 276  0.864  0.386  0.705- 311 3.20 316 3.20
 277  0.864  0.886  0.705- 310 3.20 317 3.20
 278  0.114  0.364  0.705- 314 3.21 311 3.21
 279  0.114  0.864  0.705- 315 3.21 310 3.21
 280  0.614  0.364  0.705- 316 3.21 313 3.21
 281  0.614  0.864  0.705- 317 3.21 312 3.21
 282  0.386  0.136  0.705- 314 3.21 312 3.21
 283  0.386  0.636  0.705- 315 3.21 313 3.21
 284  0.886  0.136  0.705- 316 3.21 310 3.21
 285  0.886  0.636  0.705- 317 3.21 311 3.21
 286  0.135  0.115  0.801- 318 3.22 322 3.22
 287  0.135  0.615  0.801- 319 3.22 323 3.22
 288  0.635  0.115  0.801- 320 3.22 324 3.22
 289  0.635  0.615  0.801- 321 3.22 325 3.22
 290  0.365  0.385  0.801- 321 3.22 322 3.22
 291  0.365  0.885  0.801- 320 3.22 323 3.22
 292  0.865  0.385  0.801- 319 3.22 324 3.22
 293  0.865  0.885  0.801- 318 3.22 325 3.22
 294  0.115  0.365  0.801- 319 3.23 322 3.23
 295  0.115  0.865  0.801- 318 3.23 323 3.23
 296  0.615  0.365  0.801- 321 3.23 324 3.23
 297  0.615  0.865  0.801- 320 3.23 325 3.23
 298  0.385  0.135  0.801- 320 3.23 322 3.23
 299  0.385  0.635  0.801- 321 3.23 323 3.23
 300  0.885  0.135  0.801- 318 3.23 324 3.23
 301  0.885  0.635  0.801- 319 3.23 325 3.23
 302  1.000  0.999  0.605- 238 3.07 246 3.18 260 3.19 253 3.22 255 3.26 232 3.53
 303  0.004  0.505  0.604- 239 3.16 247 3.19 233 3.24 261 3.25 254 3.26 252 3.28
 304  0.506  0.007  0.604- 248 3.14 258 3.16 240 3.17 230 3.22 257 3.23 251 3.30
 305  0.499  0.491  0.604- 231 3.15 241 3.16 250 3.17 256 3.24 259 3.26 249 3.26
 306  0.248  0.247  0.603- 234 3.15 246 3.20 254 3.20 258 3.22 250 3.23 242 3.24
 307  0.252  0.747  0.603- 235 3.15 247 3.16 243 3.19 255 3.21 259 3.22 251 3.27
 308  0.746  0.246  0.602- 236 3.10 248 3.13 256 3.22 244 3.25 260 3.29 252 3.39
 309  0.738  0.755  0.603- 257 3.11 237 3.18 249 3.20 245 3.23 253 3.23 261 3.47
 310  0.000  0.000  0.705- 262 3.13 270 3.20 277 3.20 279 3.21 284 3.21 238 3.21
 311  0.000  0.500  0.705- 263 3.13 239 3.14 271 3.20 276 3.20 278 3.21 285 3.21
 312  0.500  0.000  0.705- 264 3.13 240 3.15 272 3.20 275 3.20 281 3.21 282 3.21
 313  0.500  0.500  0.705- 265 3.13 241 3.14 273 3.20 274 3.20 280 3.21 283 3.21
 314  0.250  0.250  0.705- 266 3.13 242 3.17 270 3.20 274 3.20 282 3.21 278 3.21
 315  0.250  0.750  0.705- 267 3.13 243 3.15 271 3.20 275 3.20 283 3.21 279 3.21
 316  0.750  0.250  0.705- 268 3.13 244 3.18 272 3.20 276 3.20 284 3.21 280 3.21
 317  0.750  0.750  0.705- 269 3.13 245 3.17 273 3.20 277 3.20 285 3.21 281 3.21
 318  0.000  0.000  0.807- 286 3.22 293 3.22 300 3.23 295 3.23 262 3.27
 319  0.000  0.500  0.807- 287 3.22 292 3.22 301 3.23 294 3.23 263 3.27
 320  0.500  0.000  0.807- 288 3.22 291 3.22 298 3.23 297 3.23 264 3.27
 321  0.500  0.500  0.807- 289 3.22 290 3.22 299 3.23 296 3.23 265 3.27
 322  0.250  0.250  0.807- 290 3.22 286 3.22 294 3.23 298 3.23 266 3.27
 323  0.250  0.750  0.807- 291 3.22 287 3.22 299 3.23 295 3.23 267 3.27
 324  0.750  0.250  0.807- 292 3.22 288 3.22 296 3.23 300 3.23 268 3.27
 325  0.750  0.750  0.807- 293 3.22 289 3.22 297 3.23 301 3.23 269 3.27
 

IMPORTANT INFORMATION: All symmetrisations will be switched off!
NOSYMM: (Re-)initialisation of all symmetry stuff for point group C_1.


----------------------------------------------------------------------------------------

                                     Primitive cell                                     

  volume of cell :   20385.2105

  direct lattice vectors                    reciprocal lattice vectors
    18.060800552  0.000000000  0.000000000     0.055368531  0.000015077 -0.000000000
    -0.004918649 18.062799454  0.000000000     0.000000000  0.055362404  0.000000000
     0.000000000  0.000000000 62.487499237     0.000000000 -0.000000000  0.016003201

  length of vectors
    18.060800552 18.062800123 62.487499237     0.055368533  0.055362404  0.016003201

  position of ions in fractional coordinates (direct lattice)
     0.453155504  0.336246051  0.563512551
     0.442851563  0.829059254  0.572298549
     0.962466577  0.327568722  0.575259651
     0.940584577  0.818110436  0.572569416
     0.336409818  0.951463669  0.572078961
     0.351680194  0.548787242  0.557688083
     0.807275714  0.088600551  0.561227426
     0.013415444  0.142570561  0.558804150
     0.074406198  0.668463742  0.570619746
     0.551611300  0.159782071  0.559672488
     0.495705496  0.641223929  0.558395133
     0.369790739  0.026295896  0.557616657
     0.296349018  0.627496579  0.552568467
     0.879404457  0.027513008  0.554270773
     0.956755113  0.190215023  0.576678026
     0.990232480  0.693254375  0.582158614
     0.566117744  0.252229515  0.567445894
     0.441593002  0.691243100  0.576010839
     0.278993451  0.437417695  0.571819327
     0.201883276  0.929347487  0.572575215
     0.686515970  0.028539514  0.571055319
     0.372158087  0.289719897  0.555540558
     0.504909214  0.866744512  0.554189763
     0.021851422  0.367787741  0.556446379
     0.991490189  0.868654891  0.553942704
     0.183244735  0.445683835  0.569310585
     0.146703500  0.993849184  0.559702768
     0.682439144  0.932673742  0.566299424
     0.429793358  0.178485564  0.551023358
     0.545309300  0.749586726  0.542516835
     0.064250877  0.250687162  0.544530422
     0.082603208  0.777426955  0.550566968
     0.186621322  0.564483366  0.557009724
     0.247807560  0.065785654  0.548668700
     0.802481049  0.923027008  0.556166294
     0.486527497  0.339129386  0.658185417
     0.447492901  0.807966519  0.674013778
     0.963157227  0.287526231  0.675603146
     0.928321388  0.724848204  0.672510121
     0.305056451  0.057059929  0.669946314
     0.297650634  0.549391195  0.674851898
     0.801974613  0.058179755  0.673908227
     0.772051510  0.596344773  0.655583578
     0.085721632  0.163299216  0.645114688
     0.117524059  0.722572042  0.652432374
     0.563303000  0.151608775  0.655413195
     0.567910496  0.668388347  0.649454484
     0.175819482  0.415755801  0.647659325
     0.170772531  0.919733639  0.650494792
     0.692198438  0.409972552  0.656454724
     0.674480651  0.921447591  0.651022791
     0.063264260  0.183692038  0.671670414
     0.058634097  0.676636087  0.669917744
     0.592634549  0.243019299  0.658696384
     0.539449845  0.696835221  0.674675715
     0.198788090  0.444316111  0.673581624
     0.204055632  0.954719119  0.674554414
     0.664897568  0.502611058  0.656633654
     0.698818490  0.958861116  0.675773408
     0.397950372  0.300276982  0.655853713
     0.428352716  0.841286146  0.648441647
     0.934624490  0.325320041  0.651286759
     0.905620063  0.796909677  0.655171509
     0.326043719  0.077019368  0.643246577
     0.327718598  0.578233999  0.649716316
     0.834292190  0.076252185  0.648108267
     0.860359671  0.556347292  0.654190905
     0.007206699  0.251291432  0.630615816
     0.024060778  0.803256647  0.640487663
     0.440038085  0.180887134  0.653403760
     0.501968270  0.755846316  0.631207853
     0.244015860  0.992849961  0.629315324
     0.255139464  0.496026445  0.631059813
     0.757926735  0.991268228  0.631904953
     0.816690586  0.436240808  0.654765238
     0.448745018  0.301283966  0.768889017
     0.448745007  0.801283913  0.768889017
     0.948744965  0.301283966  0.768889017
     0.948745007  0.801283913  0.768889017
     0.301275995  0.051294496  0.768872961
     0.301276011  0.551294499  0.768872961
     0.801275943  0.051294496  0.768872961
     0.801275984  0.551294499  0.768872961
     0.078771004  0.171180501  0.743441971
     0.078771006  0.671180448  0.743441971
     0.578771004  0.171180501  0.743441971
     0.578770992  0.671180448  0.743441971
     0.171199499  0.421174482  0.743421032
     0.171199501  0.921174508  0.743421032
     0.671199512  0.421174482  0.743421032
     0.671199501  0.921174508  0.743421032
     0.051256000  0.198714991  0.768889017
     0.051256002  0.698714925  0.768889017
     0.551256027  0.198714991  0.768889017
     0.551256016  0.698714925  0.768889017
     0.198723491  0.448703970  0.768872046
     0.198723493  0.948703970  0.768872046
     0.698723518  0.448703970  0.768872046
     0.698723507  0.948703970  0.768872046
     0.421231519  0.328817467  0.743441971
     0.421231508  0.828817440  0.743441971
     0.921231466  0.328817467  0.743441971
     0.921231508  0.828817440  0.743441971
     0.328800503  0.078824997  0.743421032
     0.328800492  0.578824964  0.743421032
     0.828800477  0.078824997  0.743421032
     0.828800519  0.578824964  0.743421032
     0.000003500  0.250001478  0.725821992
     0.000003500  0.750001452  0.725821992
     0.500003506  0.250001478  0.725821992
     0.500003495  0.750001452  0.725821992
     0.250000502  0.000000000  0.725803983
     0.250000517  0.500000000  0.725803983
     0.750000502  0.000000000  0.725803983
     0.750000490  0.500000000  0.725803983
     0.774954843  0.556340693  0.518061321
     0.718811766  0.478889947  0.524072167
     0.868501202  0.501731237  0.537484884
     0.860770572  0.485131481  0.565158144
     0.743556460  0.641765211  0.558969284
     0.813257867  0.598671937  0.574561758
     0.666534101  0.546984095  0.567915592
     0.681746870  0.455134096  0.559457785
     0.616673544  0.561274268  0.536291530
     0.674187304  0.640111270  0.533616923
     0.605348248  0.645259680  0.502184641
     0.687076551  0.601550310  0.493462102
     0.789616308  0.390100763  0.529261132
     0.776913460  0.373603303  0.557066193
     0.865684278  0.367319663  0.545763090
     0.861324021  0.697110403  0.551390192
     0.835734988  0.650724453  0.527936099
     0.905074961  0.611922260  0.545290644
     0.770787007  0.531328784  0.595938043
     0.775630708  0.436827575  0.588324032
     0.693840513  0.472951473  0.599407181
     0.539424361  0.526672396  0.504676259
     0.572828462  0.543724576  0.478580890
     0.704384436  0.479563488  0.469931761
     0.556278902  0.410407024  0.520130888
     0.767752940  0.358082758  0.471442530
     0.621271569  0.288657950  0.521919454
     0.727619122  0.262661232  0.497975089
     0.020823768  0.254589071  0.556658336
     0.034051109  0.767425803  0.560679220
     0.463071108  0.225520372  0.556393146
     0.502114251  0.753638052  0.554676982
     0.238785022  0.535789504  0.559750629
     0.257024735  0.014596707  0.557627157
     0.781145128  0.977843155  0.560197312
     0.009924122  0.244306401  0.647989652
     0.011974263  0.761933310  0.652754643
     0.480094642  0.225280696  0.655649571
     0.498181026  0.754432974  0.648757445
     0.252130658  0.496484148  0.648514843
     0.248436681  0.998094339  0.646708146
     0.777184927  0.482000946  0.655265766
     0.754730348  0.998334387  0.649279705
     0.499988984  0.249994984  0.743277021
     0.499989025  0.749994958  0.743277021
     0.999988984  0.249994984  0.743277021
     0.999989025  0.749994958  0.743277021
     0.250000502  0.000001000  0.743255960
     0.250000517  0.500001003  0.743255960
     0.750000502  0.000001000  0.743255960
     0.750000491  0.500001003  0.743255960
     0.626498719  0.454120961  0.495093654
     0.685872061  0.438145195  0.481305679
     0.602945108  0.398832896  0.509465547
     0.721671823  0.369364703  0.482228410
     0.638966153  0.330574099  0.510426615
     0.698872981  0.315801566  0.496920252
     0.731123923  0.535920020  0.528806146
     0.831858794  0.478969408  0.549800519
     0.792654667  0.606249991  0.558239645
     0.708561761  0.503351176  0.566842990
     0.662821983  0.585077426  0.527116111
     0.637803069  0.593754042  0.503697517
     0.813681761  0.398724159  0.545189184
     0.852150823  0.641822813  0.544647205
     0.739964135  0.485318437  0.588621638
     0.589970565  0.529615235  0.494988988
     0.994493892  0.192464786  0.564477771
     0.032207067  0.705635806  0.571558105
     0.533152852  0.213232129  0.560423310
     0.476813201  0.692103755  0.563110371
     0.428714905  0.289608916  0.557794610
     0.480055352  0.820118966  0.560127047
     0.998257760  0.320545888  0.562522423
     0.981805651  0.818445859  0.561201725
     0.234410329  0.466675621  0.566117137
     0.198948339  0.975942291  0.563314818
     0.711058569  0.981178723  0.565725640
     0.325394153  0.995961844  0.562308025
     0.300102827  0.572350804  0.556021917
     0.825889976  0.034923301  0.559135393
     0.054935000  0.194238921  0.655616056
     0.064454212  0.715740970  0.658148361
     0.549867860  0.206418743  0.656814843
     0.536737836  0.703162392  0.658539003
     0.205805386  0.449923544  0.657470858
     0.205213385  0.955186663  0.658203365
     0.706674926  0.464744440  0.655666175
     0.706763432  0.956975386  0.659590605
     0.454135316  0.293164762  0.656706667
     0.455955321  0.804349506  0.657861195
     0.966779019  0.288072423  0.659290435
     0.944825135  0.761608393  0.660839757
     0.296256654  0.046662214  0.654083889
     0.295390609  0.543740626  0.658578440
     0.799351198  0.047407919  0.657935978
     0.804132763  0.549361311  0.655453670
     0.045862501  0.204119496  0.752725994
     0.045862500  0.704119456  0.752725994
     0.545862507  0.204119496  0.752725994
     0.545862496  0.704119456  0.752725994
     0.204119002  0.454101003  0.752704994
     0.204118991  0.954100951  0.752704994
     0.704118976  0.454101003  0.752704994
     0.704118964  0.954100951  0.752704994
     0.454140018  0.295888490  0.752726971
     0.454140007  0.795888516  0.752726971
     0.954140018  0.295888490  0.752726971
     0.954140060  0.795888516  0.752726971
     0.295882492  0.045900498  0.752704994
     0.295882481  0.545900528  0.752704994
     0.795882439  0.045900498  0.752704994
     0.795882481  0.545900528  0.752704994
     0.766022364  0.531059146  0.550886063
     0.517118145  0.014641560  0.552431660
     0.483422432  0.495194195  0.554018953
     0.015900568  0.006178584  0.548419932
     0.036641808  0.509206441  0.553215447
     0.236829132  0.240809794  0.552172270
     0.253980319  0.766399574  0.553306469
     0.738899548  0.207033203  0.554044287
     0.700591537  0.791070356  0.553993130
     0.000639113  0.984893977  0.653616632
     0.997961906  0.506119201  0.654669028
     0.495756792  0.010201196  0.654563660
     0.506907797  0.488736349  0.654731601
     0.258661460  0.247166321  0.654231196
     0.259197603  0.753809381  0.654479781
     0.744337257  0.266168848  0.654106843
     0.744514912  0.742062156  0.654124058
     0.134004613  0.111914763  0.607357380
     0.146250430  0.608666489  0.608388287
     0.647563528  0.105687115  0.610026371
     0.616363437  0.628001431  0.608278707
     0.357416080  0.387745511  0.605061816
     0.374869151  0.879816906  0.606468957
     0.889909240  0.364464601  0.608539074
     0.866944199  0.879289615  0.604786675
     0.119783617  0.367421061  0.609025377
     0.123866567  0.868075172  0.607676413
     0.594172641  0.339300741  0.601354775
     0.616390020  0.870835700  0.612995715
     0.386017636  0.134769291  0.605592256
     0.384499283  0.629043393  0.609840848
     0.885975937  0.132693800  0.610614257
     0.894720641  0.646168645  0.609326829
     0.000000000  0.000000000  0.754927972
     0.000000000  0.500000000  0.754927972
     0.500000000  0.000000000  0.754927972
     0.499999989  0.500000000  0.754927972
     0.250000496  0.250000000  0.754939022
     0.250000511  0.749999974  0.754939022
     0.750000470  0.250000000  0.754939022
     0.750000458  0.749999974  0.754939022
     0.135790500  0.114209997  0.704782994
     0.135790502  0.614209984  0.704782994
     0.635790447  0.114209997  0.704782994
     0.635790488  0.614209984  0.704782994
     0.364209516  0.385789989  0.704782994
     0.364209505  0.885789963  0.704782994
     0.864209542  0.385789989  0.704782994
     0.864209531  0.885789963  0.704782994
     0.114217990  0.364218986  0.704780979
     0.114217992  0.864218986  0.704780979
     0.614218004  0.364218986  0.704780979
     0.614217992  0.864218986  0.704780979
     0.385782012  0.135781489  0.704782017
     0.385782001  0.635781489  0.704782017
     0.885781985  0.135781489  0.704782017
     0.885782027  0.635781489  0.704782017
     0.134667000  0.115332001  0.801256025
     0.134666989  0.615331988  0.801256025
     0.634666987  0.115332001  0.801256025
     0.634666976  0.615331988  0.801256025
     0.365333002  0.384667985  0.801256025
     0.365332990  0.884667959  0.801256025
     0.865332949  0.384667985  0.801256025
     0.865332938  0.884667959  0.801256025
     0.115328503  0.365337004  0.801264999
     0.115328505  0.865336978  0.801264999
     0.615328503  0.365337004  0.801264999
     0.615328492  0.865336978  0.801264999
     0.384671513  0.134662996  0.801264999
     0.384671501  0.634662970  0.801264999
     0.884671486  0.134662996  0.801264999
     0.884671528  0.634662970  0.801264999
     0.999598186  0.998761493  0.604706032
     0.004141959  0.504567160  0.604116192
     0.505687128  0.007276974  0.603847461
     0.499242587  0.491319318  0.604136887
     0.247778700  0.246869835  0.602505335
     0.252466111  0.746572664  0.603444854
     0.745892590  0.245827609  0.602385682
     0.738168662  0.755039092  0.602530609
     0.000000500  0.000000500  0.704828963
     0.000000500  0.500000475  0.704828963
     0.500000475  0.000000500  0.704828963
     0.500000464  0.500000475  0.704828963
     0.249999994  0.249999472  0.704824995
     0.250000010  0.749999498  0.704824995
     0.749999994  0.249999472  0.704824995
     0.749999983  0.749999498  0.704824995
     0.000000000  0.000000000  0.807317968
     0.000000000  0.500000000  0.807317968
     0.500000000  0.000000000  0.807317968
     0.499999989  0.500000000  0.807317968
     0.249999994  0.250000000  0.807317968
     0.250000010  0.749999974  0.807317968
     0.749999994  0.250000000  0.807317968
     0.749999983  0.749999974  0.807317968

  ion indices of the primitive-cell ions
   primitive index   ion index
                 1           1
                 2           2
                 3           3
                 4           4
                 5           5
                 6           6
                 7           7
                 8           8
                 9           9
                10          10
                11          11
                12          12
                13          13
                14          14
                15          15
                16          16
                17          17
                18          18
                19          19
                20          20
                21          21
                22          22
                23          23
                24          24
                25          25
                26          26
                27          27
                28          28
                29          29
                30          30
                31          31
                32          32
                33          33
                34          34
                35          35
                36          36
                37          37
                38          38
                39          39
                40          40
                41          41
                42          42
                43          43
                44          44
                45          45
                46          46
                47          47
                48          48
                49          49
                50          50
                51          51
                52          52
                53          53
                54          54
                55          55
                56          56
                57          57
                58          58
                59          59
                60          60
                61          61
                62          62
                63          63
                64          64
                65          65
                66          66
                67          67
                68          68
                69          69
                70          70
                71          71
                72          72
                73          73
                74          74
                75          75
                76          76
                77          77
                78          78
                79          79
                80          80
                81          81
                82          82
                83          83
                84          84
                85          85
                86          86
                87          87
                88          88
                89          89
                90          90
                91          91
                92          92
                93          93
                94          94
                95          95
                96          96
                97          97
                98          98
                99          99
               100         100
               101         101
               102         102
               103         103
               104         104
               105         105
               106         106
               107         107
               108         108
               109         109
               110         110
               111         111
               112         112
               113         113
               114         114
               115         115
               116         116
               117         117
               118         118
               119         119
               120         120
               121         121
               122         122
               123         123
               124         124
               125         125
               126         126
               127         127
               128         128
               129         129
               130         130
               131         131
               132         132
               133         133
               134         134
               135         135
               136         136
               137         137
               138         138
               139         139
               140         140
               141         141
               142         142
               143         143
               144         144
               145         145
               146         146
               147         147
               148         148
               149         149
               150         150
               151         151
               152         152
               153         153
               154         154
               155         155
               156         156
               157         157
               158         158
               159         159
               160         160
               161         161
               162         162
               163         163
               164         164
               165         165
               166         166
               167         167
               168         168
               169         169
               170         170
               171         171
               172         172
               173         173
               174         174
               175         175
               176         176
               177         177
               178         178
               179         179
               180         180
               181         181
               182         182
               183         183
               184         184
               185         185
               186         186
               187         187
               188         188
               189         189
               190         190
               191         191
               192         192
               193         193
               194         194
               195         195
               196         196
               197         197
               198         198
               199         199
               200         200
               201         201
               202         202
               203         203
               204         204
               205         205
               206         206
               207         207
               208         208
               209         209
               210         210
               211         211
               212         212
               213         213
               214         214
               215         215
               216         216
               217         217
               218         218
               219         219
               220         220
               221         221
               222         222
               223         223
               224         224
               225         225
               226         226
               227         227
               228         228
               229         229
               230         230
               231         231
               232         232
               233         233
               234         234
               235         235
               236         236
               237         237
               238         238
               239         239
               240         240
               241         241
               242         242
               243         243
               244         244
               245         245
               246         246
               247         247
               248         248
               249         249
               250         250
               251         251
               252         252
               253         253
               254         254
               255         255
               256         256
               257         257
               258         258
               259         259
               260         260
               261         261
               262         262
               263         263
               264         264
               265         265
               266         266
               267         267
               268         268
               269         269
               270         270
               271         271
               272         272
               273         273
               274         274
               275         275
               276         276
               277         277
               278         278
               279         279
               280         280
               281         281
               282         282
               283         283
               284         284
               285         285
               286         286
               287         287
               288         288
               289         289
               290         290
               291         291
               292         292
               293         293
               294         294
               295         295
               296         296
               297         297
               298         298
               299         299
               300         300
               301         301
               302         302
               303         303
               304         304
               305         305
               306         306
               307         307
               308         308
               309         309
               310         310
               311         311
               312         312
               313         313
               314         314
               315         315
               316         316
               317         317
               318         318
               319         319
               320         320
               321         321
               322         322
               323         323
               324         324
               325         325

----------------------------------------------------------------------------------------

 
 
 KPOINTS: Automatic Mesh                          

Automatic generation of k-mesh.
 Grid dimensions read from file:
 generate k-points for:    3    3    1

 Generating k-lattice:

  Cartesian coordinates                     Fractional coordinates (reciprocal lattice)
     0.018456177  0.000005026 -0.000000000     0.333333333  0.000000000  0.000000000
     0.000000000  0.018454135  0.000000000     0.000000000  0.333333333  0.000000000
     0.000000000 -0.000000000  0.016003201     0.000000000  0.000000000  1.000000000

  Length of vectors
     0.018456178  0.018454135  0.016003201

  Shift w.r.t. Gamma in fractional coordinates (k-lattice)
     0.000000000  0.000000000  0.000000000

 
 Subroutine IBZKPT returns following result:
 ===========================================
 
 Found      5 irreducible k-points:
 
 Following reciprocal coordinates:
            Coordinates               Weight
  0.000000  0.000000  0.000000      1.000000
  0.333333  0.000000  0.000000      2.000000
  0.000000  0.333333  0.000000      2.000000
  0.333333  0.333333  0.000000      2.000000
 -0.333333  0.333333  0.000000      2.000000
 
 Following cartesian coordinates:
            Coordinates               Weight
  0.000000  0.000000  0.000000      1.000000
  0.018456  0.000005  0.000000      2.000000
  0.000000  0.018454  0.000000      2.000000
  0.018456  0.018459  0.000000      2.000000
 -0.018456  0.018449  0.000000      2.000000
 


--------------------------------------------------------------------------------------------------------




 Dimension of arrays:
   k-points           NKPTS =      5   k-points in BZ     NKDIM =      5   number of bands    NBANDS=    732
   number of dos      NEDOS =    301   number of ions     NIONS =    325
   non local maximal  LDIM  =      5   non local SUM 2l+1 LMDIM =     13
   total plane-waves  NPLWV = ******
   max r-space proj   IRMAX =   3336   max aug-charges    IRDMAX=  19845
   dimension x,y,z NGX =   100 NGY =  100 NGZ =  350
   dimension x,y,z NGXF=   200 NGYF=  200 NGZF=  700
   support grid    NGXF=   200 NGYF=  200 NGZF=  700
   ions per type =             143  39  47  72  24
   NGX,Y,Z   is equivalent  to a cutoff of   9.20,  9.20,  9.31 a.u.
   NGXF,Y,Z  is equivalent  to a cutoff of  18.41, 18.41, 18.62 a.u.

 SYSTEM =  PSC                                     
 POSCAR =   H  C  N  I Pb                          

 Startparameter for this run:
   NWRITE =      2    write-flag & timer
   PREC   = normal    normal or accurate (medium, high low for compatibility)
   ISTART =      0    job   : 0-new  1-cont  2-samecut
   ICHARG =      1    charge: 1-file 2-atom 10-const
   ISPIN  =      1    spin polarized calculation?
   LNONCOLLINEAR =      F non collinear calculations
   LSORBIT =      F    spin-orbit coupling
   INIWAV =      1    electr: 0-lowe 1-rand  2-diag
   LASPH  =      F    aspherical Exc in radial PAW
 Electronic Relaxation 1
   ENCUT  =  500.0 eV  36.75 Ry    6.06 a.u.  32.93 32.93113.93*2*pi/ulx,y,z
   ENINI  =  500.0     initial cutoff
   ENAUG  =  644.9 eV  augmentation charge cutoff
   NELM   =    600;   NELMIN=  2; NELMDL=  0     # of ELM steps 
   EDIFF  = 0.1E-03   stopping-criterion for ELM
   LREAL  =      T    real-space projection
   NLSPLINE    = F    spline interpolate recip. space projectors
   LCOMPAT=      F    compatible to vasp.4.4
   GGA_COMPAT  = F    GGA compatible to vasp.4.4-vasp.4.6
   LMAXPAW     = -100 max onsite density
   LMAXMIX     =    2 max onsite mixed and CHGCAR
   VOSKOWN=      0    Vosko Wilk Nusair interpolation
   ROPT   =   -0.00050  -0.00050  -0.00050  -0.00050
   ROPT   =   -0.00050
 Ionic relaxation
   EDIFFG = 0.1E-02   stopping-criterion for IOM
   NSW    =      0    number of steps for IOM
   NBLOCK =      1;   KBLOCK =      1    inner block; outer block 
   IBRION =     -1    ionic relax: 0-MD 1-quasi-New 2-CG
   NFREE  =      0    steps in history (QN), initial steepest desc. (CG)
   ISIF   =      2    stress and relaxation
   IWAVPR =     10    prediction:  0-non 1-charg 2-wave 3-comb
   ISYM   =      0    0-nonsym 1-usesym 2-fastsym
   LCORR  =      T    Harris-Foulkes like correction to forces

   POTIM  = 0.5000    time-step for ionic-motion
   TEIN   =    0.0    initial temperature
   TEBEG  =    0.0;   TEEND  =   0.0 temperature during run
   SMASS  =  -3.00    Nose mass-parameter (am)
   estimated Nose-frequenzy (Omega)   =  0.10E-29 period in steps = 0.13E+47 mass=  -0.745E-26a.u.
   SCALEE = 1.0000    scale energy and forces
   NPACO  =    256;   APACO  = 16.0  distance and # of slots for P.C.
   PSTRESS=    0.0 pullay stress

  Mass of Ions in am
   POMASS =   1.00 12.01 14.00126.90207.20
  Ionic Valenz
   ZVAL   =   1.00  4.00  5.00  7.00  4.00
  Atomic Wigner-Seitz radii
   RWIGS  =  -1.00 -1.00 -1.00 -1.00 -1.00
  virtual crystal weights 
   VCA    =   1.00  1.00  1.00  1.00  1.00
   NELECT =    1134.0000    total number of electrons
   NUPDOWN=      -1.0000    fix difference up-down

 DOS related values:
   EMIN   =  10.00;   EMAX   =-10.00  energy-range for DOS
   EFERMI =   0.00
   ISMEAR =     0;   SIGMA  =   0.05  broadening in eV -4-tet -1-fermi 0-gaus

 Electronic relaxation 2 (details)
   IALGO  =     38    algorithm
   LDIAG  =      T    sub-space diagonalisation (order eigenvalues)
   LSUBROT=      F    optimize rotation matrix (better conditioning)
   TURBO    =      0    0=normal 1=particle mesh
   IRESTART =      0    0=no restart 2=restart with 2 vectors
   NREBOOT  =      0    no. of reboots
   NMIN     =      0    reboot dimension
   EREF     =   0.00    reference energy to select bands
   IMIX   =      4    mixing-type and parameters
     AMIX     =   0.40;   BMIX     =  0.01
     AMIX_MAG =   1.60;   BMIX_MAG =  0.01
     AMIN     =   0.01
     WC   =   100.;   INIMIX=   1;  MIXPRE=   1;  MAXMIX= -45

 Intra band minimization:
   WEIMIN = 0.0000     energy-eigenvalue tresh-hold
   EBREAK =  0.34E-07  absolut break condition
   DEPER  =   0.30     relativ break condition  

   TIME   =   0.40     timestep for ELM

  volume/ion in A,a.u.               =      62.72       423.28
  Fermi-wavevector in a.u.,A,eV,Ry     =   0.624944  1.180972  5.313816  0.390554
  Thomas-Fermi vector in A             =   1.685677
 
 Write flags
   LWAVE        =      F    write WAVECAR
   LDOWNSAMPLE  =      F    k-point downsampling of WAVECAR
   LCHARG       =      T    write CHGCAR
   LVTOT        =      T    write LOCPOT, total local potential
   LVHAR        =      F    write LOCPOT, Hartree potential only
   LELF         =      F    write electronic localiz. function (ELF)
   LORBIT       =      0    0 simple, 1 ext, 2 COOP (PROOUT), +10 PAW based schemes


 Dipole corrections
   LMONO  =      F    monopole corrections only (constant potential shift)
   LDIPOL =      T    correct potential (dipole corrections)
   IDIPOL =      3    1-x, 2-y, 3-z, 4-all directions 
   EPSILON=  1.0000000 bulk dielectric constant

 Exchange correlation treatment:
   GGA     =    --    GGA type
   LEXCH   =     8    internal setting for exchange type
   VOSKOWN=      0    Vosko Wilk Nusair interpolation
   LHFCALC =     F    Hartree Fock is set to
   LHFONE  =     F    Hartree Fock one center treatment
   AEXX    =    0.0000 exact exchange contribution

 Linear response parameters
   LEPSILON=     F    determine dielectric tensor
   LRPA    =     F    only Hartree local field effects (RPA)
   LNABLA  =     F    use nabla operator in PAW spheres
   LVEL    =     F    velocity operator in full k-point grid
   LINTERFAST=   F  fast interpolation
   KINTER  =     0    interpolate to denser k-point grid
   CSHIFT  =0.1000    complex shift for real part using Kramers Kronig
   OMEGAMAX=  -1.0    maximum frequency
   DEG_THRESHOLD= 0.2000000E-02 threshold for treating states as degnerate
   RTIME   =   -0.100 relaxation time in fs
  (WPLASMAI=    0.000 imaginary part of plasma frequency in eV, 0.658/RTIME)
   DFIELD  = 0.0000000 0.0000000 0.0000000 field for delta impulse in time
 
 Orbital magnetization related:
   ORBITALMAG=     F  switch on orbital magnetization
   LCHIMAG   =     F  perturbation theory with respect to B field
   DQ        =  0.001000  dq finite difference perturbation B field
   LLRAUG    =     F  two centre corrections for induced B field



--------------------------------------------------------------------------------------------------------


 Static calculation
 charge density and potential will be updated during run
 non-spin polarized calculation
 Variant of blocked Davidson
 Davidson routine will perform the subspace rotation
 perform sub-space diagonalisation
    after iterative eigenvector-optimisation
 modified Broyden-mixing scheme, WC =      100.0
 initial mixing is a Kerker type mixing with AMIX =  0.4000 and BMIX =      0.0100
 Hartree-type preconditioning will be used
 using additional bands           165
 real space projection scheme for non local part
[...]
     13.54561      0.00000     45.35368         0.000145     -0.000446      0.014805
     13.54315      9.03140     45.35368        -0.006427     -0.007003     -0.014134
     13.99357     10.04907     32.37236        -0.066846     -0.049493      0.078286
     12.97996      8.65009     32.74796        -0.060848      0.043024      0.027509
     15.68336      9.06267     33.58609         0.026102     -0.017458     -0.001557
     15.54382      8.76283     35.31532        -0.028511     -0.047588     -0.029515
     13.42607     11.59208     34.92859        -0.018812      0.004653      0.023288
     14.68514     10.81369     35.90293         0.029148      0.008494      0.010195
     12.03545      9.88006     35.48763         0.040432      0.052331      0.033275
     12.31066      8.22100     34.95912         0.048923     -0.037540      0.028013
     11.13486     10.13818     33.51152         0.000265      0.011966      0.068690
     12.17321     11.56220     33.34439         0.079577      0.188268      0.088638
     10.92990     11.65520     31.38026         0.048314     -0.079738      0.040413
     12.40619     10.86568     30.83521        -0.062297      0.004822     -0.017568
     14.25918      7.04631     33.07220        -0.004619     -0.023655      0.028227
     14.02984      6.74832     34.80967        -0.029629      0.011492      0.007592
     15.63314      6.63482     34.10337        -0.002240      0.018901     -0.028241
     15.55277     12.59177     34.45499         0.028655      0.072126      0.026133
     15.09084     11.75391     32.98941        -0.025893     -0.037082     -0.007147
     16.34337     11.05303     34.07385        -0.030390      0.016082     -0.032621
     13.91842      9.59729     37.23868        -0.050757     -0.048904     -0.052174
     14.00636      7.89033     36.76290         0.116607     -0.154666     -0.005709
     12.52899      8.54283     37.45546        -0.028900     -0.029264     -0.014903
      9.73985      9.51318     31.53596        -0.137016     -0.009570      0.035560
     10.34307      9.82119     29.90532         0.002335      0.001997     -0.030040
     12.71939      8.66226     29.36486         0.078971      0.181827     -0.178540
     10.04482      7.41310     32.50168         0.093169     -0.020237     -0.055602
     13.86447      6.46798     29.45926         0.030440     -0.019425     -0.022455
     11.21924      5.21397     32.61344        -0.009126      0.016358     -0.004128
     13.14009      4.74440     31.11722        -0.052340      0.075537     -0.008785
      0.37484      4.59859     34.78419        -0.114676      0.006272      0.015647
      0.61122     13.86186     35.03544         0.017414      0.181278     -0.029726
      8.36233      4.07353     34.76762        -0.350866      0.126698     -0.038234
      9.06488     13.61281     34.66038         0.104202     -0.021448     -0.029170
      4.31001      9.67786     34.97742         0.007177     -0.067305      0.020834
      4.64200      0.26366     34.84473         0.129755      0.017053      0.028019
     14.10330     17.66258     35.00533        -0.076493      0.100990      0.041325
      0.17804      4.41286     40.49125        -0.208570      0.210946     -0.067571
      0.21252     13.76265     40.78901        -0.348936      0.040626     -0.023301
      8.66979      4.06920     40.96990        -0.171573      0.290653     -0.032460
      8.99384     13.62717     40.53923        -0.020232      0.069039     -0.415144
      4.55124      8.96789     40.52407         0.081547      0.110259      0.053447
      4.48206     18.02838     40.41117         0.044523      0.043330      0.013331
     14.03421      8.70629     40.94592         0.170638      0.084058      0.029995
     13.62612     18.03271     40.57187         0.030100      0.030606     -0.052161
      9.02897      4.51561     46.44552         0.009380      0.008725     -0.014819
      9.02651     13.54701     46.44552         0.019496     -0.002860      0.037245
     18.05937      4.51561     46.44552         0.000728      0.016969      0.041466
     18.05691     13.54701     46.44552         0.007357      0.014245      0.007145
      4.51521      0.00002     46.44421         0.008392      0.005246      0.052889
      4.51275      9.03142     46.44421         0.004626     -0.000366      0.029201
     13.54561      0.00002     46.44421        -0.008805     -0.010598      0.016555
     13.54315      9.03142     46.44421        -0.028364     -0.028876      0.003115
     11.31283      8.20270     30.93716         0.004887     -0.009336      0.016794
     12.38524      7.91413     30.07559        -0.117139     -0.312905      0.304611
     10.88771      7.20404     31.83523         0.027214      0.183097     -0.114661
     13.03215      6.67176     30.13325        -0.042313      0.214848     -0.046213
     11.53861      5.97109     31.89528         0.028997     -0.042820     -0.023014
     12.62065      5.70426     31.05130        -0.000119     -0.117112      0.043443
     13.20205      9.68022     33.04377         0.144987     -0.026844     -0.056429
     15.02168      8.65153     34.35566         0.022246      0.018710      0.038125
     14.31300     10.95057     34.88300        -0.020283     -0.027638     -0.082034
     12.79472      9.09193     35.42060        -0.054041      0.045645     -0.049167
     11.96822     10.56814     32.93817        -0.130923     -0.213062     -0.180241
     11.51631     10.72486     31.47480         0.112677     -0.043744     -0.120510
     14.69378      7.20207     34.06751         0.063369      0.034566     -0.044110
     15.38737     11.59312     34.03364         0.076508      0.065648     -0.041894
     13.36196      8.76621     36.78149        -0.089829      0.176168      0.026948
     10.65274      9.56633     30.93062         0.096014     -0.057141      0.021889
     17.96041      3.47645     35.27280         0.179941     -0.087240     -0.158632
      0.57821     12.74576     35.71524        -0.037711      0.001539     -0.056430
      9.62812      3.85157     35.01945        -0.016981     -0.123406     -0.037631
      8.60822     12.50133     35.18736        -0.035760     -0.027394     -0.005253
      7.74151      5.23115     34.85519        -0.095711     -0.336849     -0.090422
      8.66615     14.81364     35.00094        -0.058209      0.167892      0.090863
     18.02776      5.78996     35.15062         0.011880     -0.024266      0.013491
     17.72817     14.78342     35.06809         0.073406     -0.015933     -0.058849
      4.23134      8.42947     35.37524         0.028445     -0.065137     -0.010941
      3.58837     17.62825     35.20013         0.031959     -0.079314      0.089453
     12.83746     17.72283     35.35078         0.233638      0.051258     -0.015992
      5.87198     17.98986     35.13722        -0.283240     -0.243797      0.074140
      5.41728     10.33826     34.74442         0.173739     -0.167810      0.021126
     14.91606      0.63081     34.93897        -0.094268      0.162451     -0.073458
      0.99121      3.50850     40.96781         0.282095     -0.314372      0.347861
      1.16057     12.92829     41.12605         0.426987     -0.170536      0.085425
      9.93004      3.72850     41.04272         0.291541     -0.182133     -0.027701
      9.69046     12.70108     41.15046        -0.034819      0.011098      0.001495
      3.71480      8.12688     41.08371         0.014477     -0.030679     -0.139035
      3.70162     17.25335     41.12948         0.198707      0.180225      0.153461
     12.76083      8.39459     40.97094        -0.214283     -0.176296      0.028949
     12.76001     17.28565     41.21617         0.111101      0.097512      0.114590
      8.20061      5.29538     41.03596        -0.094999     -0.237402     -0.049702
      8.23096     14.52880     41.10810         0.001032      0.000494      0.109424
     17.45939      5.20339     41.19741        -0.037901      0.034469      0.095984
     17.06055     13.75678     41.29422        -0.078695     -0.080404      0.121635
      5.35040      0.84285     40.87207        -0.092915     -0.075022     -0.134190
      5.33232      9.82148     41.15292        -0.160529     -0.174956      0.066052
     14.43669      0.85632     41.11277        -0.056672     -0.077265     -0.231810
     14.52058      9.92300     40.95766        -0.013011      0.097823     -0.133468
      0.82731      3.68697     47.03596         0.026657     -0.033638     -0.087395
      0.82485     12.71837     47.03596         0.029961     -0.032658     -0.069859
      9.85771      3.68697     47.03596         0.026437     -0.033036     -0.054415
      9.85525     12.71837     47.03596         0.017887     -0.017220     -0.085402
      3.68432      8.20234     47.03465        -0.020761     -0.011843     -0.063149
      3.68186     17.23373     47.03465        -0.015950     -0.010489     -0.062130
     12.71472      8.20234     47.03465         0.004599      0.003736     -0.053790
     12.71226     17.23373     47.03465        -0.009673     -0.010553     -0.060423
      8.20068      5.34457     47.03603        -0.025154      0.018427     -0.055863
      8.19822     14.37597     47.03603        -0.025926      0.022130     -0.085095
     17.23108      5.34457     47.03603        -0.010320      0.011175     -0.090160
     17.22862     14.37597     47.03603        -0.013904      0.017568     -0.068059
      5.34365      0.82909     47.03465         0.003649      0.006312     -0.068037
      5.34119      9.86049     47.03465         0.008459      0.018484     -0.065182
     14.37405      0.82909     47.03465         0.026898      0.021097     -0.055084
     14.37159      9.86049     47.03465         0.038918      0.037425     -0.061816
     13.83237      9.59241     34.42349        -0.166078     -0.077140     -0.148557
      9.33950      0.26447     34.52007         0.024898      0.043949      0.005263
      8.72856      8.94459     34.61926        -0.037872     -0.017339     -0.041648
      0.28715      0.11160     34.26939        -0.034916     -0.010329     -0.003332
      0.65928      9.19769     34.56905        -0.001091     -0.014287      0.009804
      4.27614      4.34970     34.50386         0.013695     -0.001991      0.006281
      4.58332     13.84332     34.57474        -0.007032     -0.033850      0.001238
     13.34410      3.73960     34.62084         0.019344      0.029940     -0.000477
     12.64935     14.28895     34.61765         0.023804     -0.016544     -0.069811
      0.00670     17.78994     40.84287        -0.020983     -0.014833      0.005798
     18.02150      9.14193     40.90863         0.023531     -0.014565      0.006801
      8.95371      0.18426     40.90205         0.021498     -0.004607     -0.023405
      9.15276      8.82795     40.91254         0.008528      0.022497     -0.038383
      4.67042      4.46452     40.88127        -0.012325      0.003720      0.011618
      4.67761     13.61591     40.89680        -0.029117      0.001621      0.012935
     13.44202      4.80775     40.87350         0.005560      0.003352      0.018724
     13.44289     13.40372     40.87458         0.020668      0.036709      0.016945
      2.41968      2.02149     37.95224         0.012436      0.028390      0.001941
      2.63841     10.99422     38.01666        -0.003335     -0.012336     -0.001179
     11.69500      1.90901     38.11902        -0.010207      0.003199     -0.014406
     11.12893     11.34346     38.00982        -0.022146      0.041925      0.006858
      6.45331      7.00377     37.80880         0.014534     -0.011417     -0.010888
      6.76611     15.89196     37.89673         0.007330     -0.004601      0.029840
     16.07068      6.58325     38.02608         0.012941     -0.028935      0.001986
     15.65338     15.88243     37.79161        -0.006057     -0.004808      0.016891
      2.16158      6.63665     38.05647         0.033596      0.004424      0.008417
      2.23286     15.67987     37.97218        -0.000814     -0.006197     -0.020319
     10.72956      6.12872     37.57716        -0.017630      0.007730      0.010408
     11.12821     15.72973     38.30457         0.007375      0.002990      0.000931
      6.97112      2.43431     37.84195        -0.012154      0.003088     -0.012917
      6.94127     11.36228     38.10743        -0.011503     -0.008710      0.031437
     16.00078      2.39682     38.15576         0.001145      0.007958     -0.043147
     16.15619     11.67161     38.07531         0.068974     -0.023658     -0.069363
      0.00000      0.00000     47.17356         0.002528      0.005056      0.291366
     -0.00246      9.03140     47.17356        -0.000202      0.003076      0.392626
      9.03040      0.00000     47.17356        -0.001717     -0.002490      0.407130
      9.02794      9.03140     47.17356         0.000125      0.005919      0.417785
      4.51398      4.51570     47.17425        -0.007668     -0.003859      0.425839
      4.51152     13.54710     47.17425         0.002185     -0.000654      0.412049
     13.54438      4.51570     47.17425         0.008857     -0.000073      0.407168
     13.54192     13.54710     47.17425        -0.001053     -0.004164      0.397198
      2.45192      2.06295     44.04013        -0.029238     -0.019290     -0.078843
      2.44946     11.09435     44.04013         0.017288     -0.035867     -0.052821
     11.48232      2.06295     44.04013         0.066759     -0.053464     -0.050826
     11.47986     11.09435     44.04013        -0.035092      0.021112     -0.065763
      6.57602      6.96845     44.04013        -0.053739      0.039794     -0.029446
      6.57356     15.99985     44.04013        -0.004207      0.000834     -0.028807
     15.60642      6.96845     44.04013         0.088144     -0.024612     -0.033219
     15.60396     15.99985     44.04013        -0.024412      0.025467     -0.040138
      2.06108      6.57881     44.04000        -0.012800      0.010721     -0.067235
      2.05862     15.61021     44.04000         0.046117      0.042303     -0.011524
     11.09148      6.57881     44.04000         0.003731     -0.012692     -0.019215
     11.08902     15.61021     44.04000        -0.020448     -0.007505     -0.049188
      6.96686      2.45259     44.04007        -0.082894     -0.073105     -0.034335
      6.96440     11.48399     44.04007         0.004746      0.016644     -0.058128
     15.99726      2.45259     44.04007         0.040428      0.000479     -0.081935
     15.99481     11.48399     44.04007         0.033617      0.020224     -0.014575
      2.43163      2.08322     50.06849        -0.001746     -0.021405      0.022135
      2.42917     11.11462     50.06849         0.010019     -0.010451      0.023400
     11.46203      2.08322     50.06849         0.012757     -0.011543      0.027570
     11.45957     11.11462     50.06849         0.015388     -0.004277      0.024626
      6.59631      6.94818     50.06849        -0.014968      0.009209      0.027405
      6.59385     15.97958     50.06849        -0.012681      0.008449      0.023274
     15.62671      6.94818     50.06849        -0.004699      0.013367      0.023200
     15.62425     15.97958     50.06849        -0.000851      0.019879      0.024480
      2.08113      6.59901     50.06905        -0.014438     -0.006908      0.023111
      2.07867     15.63041     50.06905        -0.018731     -0.000504      0.022963
     11.11153      6.59901     50.06905        -0.005840     -0.012183      0.027275
     11.10907     15.63041     50.06905        -0.007376     -0.012772      0.024835
      6.94681      2.43239     50.06905         0.008623      0.008824      0.025115
      6.94435     11.46379     50.06905         0.005303      0.016015      0.024637
     15.97721      2.43239     50.06905         0.023589     -0.000209      0.024097
     15.97475     11.46379     50.06905         0.012104      0.010163      0.023704
     18.04863     18.04043     37.78657         0.003109     -0.012783     -0.030041
      0.07233      9.11390     37.74971         0.031543      0.022037     -0.003178
      9.13308      0.13144     37.73292         0.003676      0.022774      0.025279
      9.01430      8.87460     37.75100        -0.027055      0.013173      0.027388
      4.47387      4.45916     37.64905        -0.040163      0.008418      0.007113
      4.55607     13.48519     37.70776        -0.017168     -0.022634     -0.012607
     13.47021      4.44033     37.64157        -0.010275      0.000644     -0.003293
     13.32820     13.63812     37.65063        -0.004472     -0.007885      0.037212
      0.00001      0.00001     44.04300        -0.050159     -0.116973      0.133440
     -0.00245      9.03141     44.04300        -0.029395     -0.055913      0.190678
      9.03041      0.00001     44.04300         0.035854      0.080252      0.160682
      9.02795      9.03141     44.04300         0.016690     -0.123756      0.240011
      4.51397      4.51569     44.04275         0.128548      0.058270      0.055637
      4.51151     13.54709     44.04275        -0.023069      0.032277      0.116740
     13.54437      4.51569     44.04275        -0.125045      0.067268      0.102146
     13.54191     13.54709     44.04275        -0.024834      0.056873      0.103561
      0.00000      0.00000     50.44728        -0.000803      0.002444     -0.599346
     -0.00246      9.03140     50.44728        -0.000644     -0.001666     -0.624785
      9.03040      0.00000     50.44728         0.002024      0.005962     -0.633509
      9.02794      9.03140     50.44728         0.001177     -0.004985     -0.639738
      4.51397      4.51570     50.44728         0.013940      0.008011     -0.637920
      4.51151     13.54710     50.44728         0.011010     -0.006065     -0.631602
     13.54437      4.51570     50.44728        -0.013910      0.006051     -0.636921
     13.54191     13.54710     50.44728        -0.009411     -0.006871     -0.630767
 -----------------------------------------------------------------------------------
    total drift:                               -0.137339     -0.123030      0.312210


--------------------------------------------------------------------------------------------------------



  FREE ENERGIE OF THE ION-ELECTRON SYSTEM (eV)
  ---------------------------------------------------
  free  energy   TOTEN  =     -1576.42706554 eV

  energy  without entropy=    -1576.42706554  energy(sigma->0) =    -1576.42706554
 


--------------------------------------------------------------------------------------------------------


    POTLOK:  cpu time    0.5036: real time    0.5037


--------------------------------------------------------------------------------------------------------


     LOOP+:  cpu time  263.4880: real time  263.9140
 vacuum level on the upper side and lower side of the slab         2.277         1.576
    4ORBIT:  cpu time    0.0000: real time    0.0000

 total amount of memory used by VASP MPI-rank0  8653585. kBytes
=======================================================================

   base      :      30000. kBytes
   nonlr-proj:      53623. kBytes
   fftplans  :     249280. kBytes
   grid      :     701440. kBytes
   one-center:       2636. kBytes
   wavefun   :    7616606. kBytes
 
  
  
 General timing and accounting informations for this job:
 ========================================================
  
                  Total CPU time used (sec):      473.744
                            User time (sec):      387.308
                          System time (sec):       86.435
                         Elapsed time (sec):      476.847
  
                   Maximum memory used (kb):    10306704.
                   Average memory used (kb):          N/A
  
                          Minor page faults:      3542452
                          Major page faults:           12
                 Voluntary context switches:        10796
