<?xml version="1.0" encoding="ISO-8859-1"?>
<modeling>
 <generator>
  <i name="program" type="string">vasp </i>
  <i name="version" type="string">6.2.1  </i>
  <i name="subversion" type="string">16May21 (build Nov 15 2021 14:57:28) complex                          parallel </i>
  <i name="platform" type="string">LinuxPGI </i>
  <i name="date" type="string">2023 07 25 </i>
  <i name="time" type="string">03:10:01 </i>
 </generator>
 <incar>
  <i type="string" name="SYSTEM">PSC</i>
  <i type="int" name="ISTART">     1</i>
  <i type="string" name="PREC">Normal</i>
  <i name="BMIX">      0.01000000</i>
  <i name="AMIN">      0.01000000</i>
  <i type="int" name="ICHARG">     1</i>
  <i type="int" name="NELM">   600</i>
  <i type="int" name="ISYM">     0</i>
  <i name="ENCUT">    500.00000000</i>
  <i type="string" name="LREAL">Auto</i>
  <i type="int" name="ISMEAR">     0</i>
  <i name="SIGMA">      0.05000000</i>
  <i type="logical" name="LWAVE"> F  </i>
  <i type="logical" name="LVTOT"> T  </i>
  <i type="logical" name="GGA_COMPAT"> F  </i>
  <i type="logical" name="LDIPOL"> T  </i>
  <i type="int" name="IDIPOL">     3</i>
  <i type="int" name="IVDW">    12</i>
 </incar>
 <primitive_cell>
  <structure name="primitive_cell" >
   <crystal>
    <varray name="basis" >
     <v>      18.06080055       0.00000000       0.00000000 </v>
     <v>      -0.00491865      18.06279945       0.00000000 </v>
     <v>       0.00000000       0.00000000      62.48749924 </v>
    </varray>
    <i name="volume">  20385.21054034 </i>
    <varray name="rec_basis" >
     <v>       0.05536853       0.00001508      -0.00000000 </v>
     <v>       0.00000000       0.05536240       0.00000000 </v>
     <v>       0.00000000      -0.00000000       0.01600320 </v>
    </varray>
   </crystal>
   <varray name="positions" >
    <v>       0.45315550       0.33624605       0.56351255 </v>
    <v>       0.44285156       0.82905925       0.57229855 </v>
    <v>       0.96246658       0.32756872       0.57525965 </v>
    <v>       0.94058458       0.81811044       0.57256942 </v>
    <v>       0.33640982       0.95146367       0.57207896 </v>
    <v>       0.35168019       0.54878724       0.55768808 </v>
    <v>       0.80727571       0.08860055       0.56122743 </v>
    <v>       0.01341544       0.14257056       0.55880415 </v>
    <v>       0.07440620       0.66846374       0.57061975 </v>
    <v>       0.55161130       0.15978207       0.55967249 </v>
    <v>       0.49570550       0.64122393       0.55839513 </v>
    <v>       0.36979074       0.02629590       0.55761666 </v>
    <v>       0.29634902       0.62749658       0.55256847 </v>
    <v>       0.87940446       0.02751301       0.55427077 </v>
    <v>       0.95675511       0.19021502       0.57667803 </v>
    <v>       0.99023248       0.69325438       0.58215861 </v>
    <v>       0.56611774       0.25222951       0.56744589 </v>
    <v>       0.44159300       0.69124310       0.57601084 </v>
    <v>       0.27899345       0.43741769       0.57181933 </v>
    <v>       0.20188328       0.92934749       0.57257522 </v>
    <v>       0.68651597       0.02853951       0.57105532 </v>
    <v>       0.37215809       0.28971990       0.55554056 </v>
    <v>       0.50490921       0.86674451       0.55418976 </v>
    <v>       0.02185142       0.36778774       0.55644638 </v>
    <v>       0.99149019       0.86865489       0.55394270 </v>
    <v>       0.18324474       0.44568384       0.56931059 </v>
    <v>       0.14670350       0.99384918       0.55970277 </v>
    <v>       0.68243914       0.93267374       0.56629942 </v>
    <v>       0.42979336       0.17848556       0.55102336 </v>
    <v>       0.54530930       0.74958673       0.54251684 </v>
    <v>       0.06425088       0.25068716       0.54453042 </v>
    <v>       0.08260321       0.77742695       0.55056697 </v>
    <v>       0.18662132       0.56448337       0.55700972 </v>
    <v>       0.24780756       0.06578565       0.54866870 </v>
    <v>       0.80248105       0.92302701       0.55616629 </v>
    <v>       0.48652750       0.33912939       0.65818542 </v>
    <v>       0.44749290       0.80796652       0.67401378 </v>
    <v>       0.96315723       0.28752623       0.67560315 </v>
    <v>       0.92832139       0.72484820       0.67251012 </v>
    <v>       0.30505645       0.05705993       0.66994631 </v>
    <v>       0.29765063       0.54939119       0.67485190 </v>
    <v>       0.80197461       0.05817976       0.67390823 </v>
    <v>       0.77205151       0.59634477       0.65558358 </v>
    <v>       0.08572163       0.16329922       0.64511469 </v>
    <v>       0.11752406       0.72257204       0.65243237 </v>
    <v>       0.56330300       0.15160878       0.65541320 </v>
    <v>       0.56791050       0.66838835       0.64945448 </v>
    <v>       0.17581948       0.41575580       0.64765932 </v>
    <v>       0.17077253       0.91973364       0.65049479 </v>
    <v>       0.69219844       0.40997255       0.65645472 </v>
    <v>       0.67448065       0.92144759       0.65102279 </v>
    <v>       0.06326426       0.18369204       0.67167041 </v>
    <v>       0.05863410       0.67663609       0.66991774 </v>
    <v>       0.59263455       0.24301930       0.65869638 </v>
    <v>       0.53944985       0.69683522       0.67467571 </v>
    <v>       0.19878809       0.44431611       0.67358162 </v>
    <v>       0.20405563       0.95471912       0.67455441 </v>
    <v>       0.66489757       0.50261106       0.65663365 </v>
    <v>       0.69881849       0.95886112       0.67577341 </v>
    <v>       0.39795037       0.30027698       0.65585371 </v>
    <v>       0.42835272       0.84128615       0.64844165 </v>
    <v>       0.93462449       0.32532004       0.65128676 </v>
    <v>       0.90562006       0.79690968       0.65517151 </v>
    <v>       0.32604372       0.07701937       0.64324658 </v>
    <v>       0.32771860       0.57823400       0.64971632 </v>
    <v>       0.83429219       0.07625218       0.64810827 </v>
    <v>       0.86035967       0.55634729       0.65419090 </v>
    <v>       0.00720670       0.25129143       0.63061582 </v>
    <v>       0.02406078       0.80325665       0.64048766 </v>
    <v>       0.44003809       0.18088713       0.65340376 </v>
    <v>       0.50196827       0.75584632       0.63120785 </v>
    <v>       0.24401586       0.99284996       0.62931532 </v>
    <v>       0.25513946       0.49602644       0.63105981 </v>
    <v>       0.75792673       0.99126823       0.63190495 </v>
    <v>       0.81669059       0.43624081       0.65476524 </v>
    <v>       0.44874502       0.30128397       0.76888902 </v>
    <v>       0.44874501       0.80128391       0.76888902 </v>
    <v>       0.94874497       0.30128397       0.76888902 </v>
    <v>       0.94874501       0.80128391       0.76888902 </v>
    <v>       0.30127600       0.05129450       0.76887296 </v>
    <v>       0.30127601       0.55129450       0.76887296 </v>
    <v>       0.80127594       0.05129450       0.76887296 </v>
    <v>       0.80127598       0.55129450       0.76887296 </v>
    <v>       0.07877100       0.17118050       0.74344197 </v>
    <v>       0.07877101       0.67118045       0.74344197 </v>
    <v>       0.57877100       0.17118050       0.74344197 </v>
    <v>       0.57877099       0.67118045       0.74344197 </v>
    <v>       0.17119950       0.42117448       0.74342103 </v>
    <v>       0.17119950       0.92117451       0.74342103 </v>
    <v>       0.67119951       0.42117448       0.74342103 </v>
    <v>       0.67119950       0.92117451       0.74342103 </v>
    <v>       0.05125600       0.19871499       0.76888902 </v>
    <v>       0.05125600       0.69871493       0.76888902 </v>
    <v>       0.55125603       0.19871499       0.76888902 </v>
    <v>       0.55125602       0.69871493       0.76888902 </v>
    <v>       0.19872349       0.44870397       0.76887205 </v>
    <v>       0.19872349       0.94870397       0.76887205 </v>
    <v>       0.69872352       0.44870397       0.76887205 </v>
    <v>       0.69872351       0.94870397       0.76887205 </v>
    <v>       0.42123152       0.32881747       0.74344197 </v>
    <v>       0.42123151       0.82881744       0.74344197 </v>
    <v>       0.92123147       0.32881747       0.74344197 </v>
    <v>       0.92123151       0.82881744       0.74344197 </v>
    <v>       0.32880050       0.07882500       0.74342103 </v>
    <v>       0.32880049       0.57882496       0.74342103 </v>
    <v>       0.82880048       0.07882500       0.74342103 </v>
    <v>       0.82880052       0.57882496       0.74342103 </v>
    <v>       0.00000350       0.25000148       0.72582199 </v>
    <v>       0.00000350       0.75000145       0.72582199 </v>
    <v>       0.50000351       0.25000148       0.72582199 </v>
    <v>       0.50000350       0.75000145       0.72582199 </v>
    <v>       0.25000050       0.00000000       0.72580398 </v>
    <v>       0.25000052       0.50000000       0.72580398 </v>
    <v>       0.75000050       0.00000000       0.72580398 </v>
    <v>       0.75000049       0.50000000       0.72580398 </v>
    <v>       0.77495484       0.55634069       0.51806132 </v>
    <v>       0.71881177       0.47888995       0.52407217 </v>
    <v>       0.86850120       0.50173124       0.53748488 </v>
    <v>       0.86077057       0.48513148       0.56515814 </v>
    <v>       0.74355646       0.64176521       0.55896928 </v>
    <v>       0.81325787       0.59867194       0.57456176 </v>
    <v>       0.66653410       0.54698409       0.56791559 </v>
    <v>       0.68174687       0.45513410       0.55945778 </v>
    <v>       0.61667354       0.56127427       0.53629153 </v>
    <v>       0.67418730       0.64011127       0.53361692 </v>
    <v>       0.60534825       0.64525968       0.50218464 </v>
    <v>       0.68707655       0.60155031       0.49346210 </v>
    <v>       0.78961631       0.39010076       0.52926113 </v>
    <v>       0.77691346       0.37360330       0.55706619 </v>
    <v>       0.86568428       0.36731966       0.54576309 </v>
    <v>       0.86132402       0.69711040       0.55139019 </v>
    <v>       0.83573499       0.65072445       0.52793610 </v>
    <v>       0.90507496       0.61192226       0.54529064 </v>
    <v>       0.77078701       0.53132878       0.59593804 </v>
    <v>       0.77563071       0.43682758       0.58832403 </v>
    <v>       0.69384051       0.47295147       0.59940718 </v>
    <v>       0.53942436       0.52667240       0.50467626 </v>
    <v>       0.57282846       0.54372458       0.47858089 </v>
    <v>       0.70438444       0.47956349       0.46993176 </v>
    <v>       0.55627890       0.41040702       0.52013089 </v>
    <v>       0.76775294       0.35808276       0.47144253 </v>
    <v>       0.62127157       0.28865795       0.52191945 </v>
    <v>       0.72761912       0.26266123       0.49797509 </v>
    <v>       0.02082377       0.25458907       0.55665834 </v>
    <v>       0.03405111       0.76742580       0.56067922 </v>
    <v>       0.46307111       0.22552037       0.55639315 </v>
    <v>       0.50211425       0.75363805       0.55467698 </v>
    <v>       0.23878502       0.53578950       0.55975063 </v>
    <v>       0.25702473       0.01459671       0.55762716 </v>
    <v>       0.78114513       0.97784316       0.56019731 </v>
    <v>       0.00992412       0.24430640       0.64798965 </v>
    <v>       0.01197426       0.76193331       0.65275464 </v>
    <v>       0.48009464       0.22528070       0.65564957 </v>
    <v>       0.49818103       0.75443297       0.64875744 </v>
    <v>       0.25213066       0.49648415       0.64851484 </v>
    <v>       0.24843668       0.99809434       0.64670815 </v>
    <v>       0.77718493       0.48200095       0.65526577 </v>
    <v>       0.75473035       0.99833439       0.64927971 </v>
    <v>       0.49998898       0.24999498       0.74327702 </v>
    <v>       0.49998903       0.74999496       0.74327702 </v>
    <v>       0.99998898       0.24999498       0.74327702 </v>
    <v>       0.99998903       0.74999496       0.74327702 </v>
    <v>       0.25000050       0.00000100       0.74325596 </v>
    <v>       0.25000052       0.50000100       0.74325596 </v>
    <v>       0.75000050       0.00000100       0.74325596 </v>
    <v>       0.75000049       0.50000100       0.74325596 </v>
    <v>       0.62649872       0.45412096       0.49509365 </v>
    <v>       0.68587206       0.43814519       0.48130568 </v>
    <v>       0.60294511       0.39883290       0.50946555 </v>
    <v>       0.72167182       0.36936470       0.48222841 </v>
    <v>       0.63896615       0.33057410       0.51042662 </v>
    <v>       0.69887298       0.31580157       0.49692025 </v>
    <v>       0.73112392       0.53592002       0.52880615 </v>
    <v>       0.83185879       0.47896941       0.54980052 </v>
    <v>       0.79265467       0.60624999       0.55823965 </v>
    <v>       0.70856176       0.50335118       0.56684299 </v>
    <v>       0.66282198       0.58507743       0.52711611 </v>
    <v>       0.63780307       0.59375404       0.50369752 </v>
    <v>       0.81368176       0.39872416       0.54518918 </v>
    <v>       0.85215082       0.64182281       0.54464721 </v>
    <v>       0.73996414       0.48531844       0.58862164 </v>
    <v>       0.58997056       0.52961523       0.49498899 </v>
    <v>       0.99449389       0.19246479       0.56447777 </v>
    <v>       0.03220707       0.70563581       0.57155811 </v>
    <v>       0.53315285       0.21323213       0.56042331 </v>
    <v>       0.47681320       0.69210376       0.56311037 </v>
    <v>       0.42871491       0.28960892       0.55779461 </v>
    <v>       0.48005535       0.82011897       0.56012705 </v>
    <v>       0.99825776       0.32054589       0.56252242 </v>
    <v>       0.98180565       0.81844586       0.56120172 </v>
    <v>       0.23441033       0.46667562       0.56611714 </v>
    <v>       0.19894834       0.97594229       0.56331482 </v>
    <v>       0.71105857       0.98117872       0.56572564 </v>
    <v>       0.32539415       0.99596184       0.56230803 </v>
    <v>       0.30010283       0.57235080       0.55602192 </v>
    <v>       0.82588998       0.03492330       0.55913539 </v>
    <v>       0.05493500       0.19423892       0.65561606 </v>
    <v>       0.06445421       0.71574097       0.65814836 </v>
    <v>       0.54986786       0.20641874       0.65681484 </v>
    <v>       0.53673784       0.70316239       0.65853900 </v>
    <v>       0.20580539       0.44992354       0.65747086 </v>
    <v>       0.20521339       0.95518666       0.65820337 </v>
    <v>       0.70667493       0.46474444       0.65566618 </v>
    <v>       0.70676343       0.95697539       0.65959061 </v>
    <v>       0.45413532       0.29316476       0.65670667 </v>
    <v>       0.45595532       0.80434951       0.65786119 </v>
    <v>       0.96677902       0.28807242       0.65929044 </v>
    <v>       0.94482514       0.76160839       0.66083976 </v>
    <v>       0.29625665       0.04666221       0.65408389 </v>
    <v>       0.29539061       0.54374063       0.65857844 </v>
    <v>       0.79935120       0.04740792       0.65793598 </v>
    <v>       0.80413276       0.54936131       0.65545367 </v>
    <v>       0.04586250       0.20411950       0.75272599 </v>
    <v>       0.04586250       0.70411946       0.75272599 </v>
    <v>       0.54586251       0.20411950       0.75272599 </v>
    <v>       0.54586250       0.70411946       0.75272599 </v>
    <v>       0.20411900       0.45410100       0.75270499 </v>
    <v>       0.20411899       0.95410095       0.75270499 </v>
    <v>       0.70411898       0.45410100       0.75270499 </v>
    <v>       0.70411896       0.95410095       0.75270499 </v>
    <v>       0.45414002       0.29588849       0.75272697 </v>
    <v>       0.45414001       0.79588852       0.75272697 </v>
    <v>       0.95414002       0.29588849       0.75272697 </v>
    <v>       0.95414006       0.79588852       0.75272697 </v>
    <v>       0.29588249       0.04590050       0.75270499 </v>
    <v>       0.29588248       0.54590053       0.75270499 </v>
    <v>       0.79588244       0.04590050       0.75270499 </v>
    <v>       0.79588248       0.54590053       0.75270499 </v>
    <v>       0.76602236       0.53105915       0.55088606 </v>
    <v>       0.51711814       0.01464156       0.55243166 </v>
    <v>       0.48342243       0.49519419       0.55401895 </v>
    <v>       0.01590057       0.00617858       0.54841993 </v>
    <v>       0.03664181       0.50920644       0.55321545 </v>
    <v>       0.23682913       0.24080979       0.55217227 </v>
    <v>       0.25398032       0.76639957       0.55330647 </v>
    <v>       0.73889955       0.20703320       0.55404429 </v>
    <v>       0.70059154       0.79107036       0.55399313 </v>
    <v>       0.00063911       0.98489398       0.65361663 </v>
    <v>       0.99796191       0.50611920       0.65466903 </v>
    <v>       0.49575679       0.01020120       0.65456366 </v>
    <v>       0.50690780       0.48873635       0.65473160 </v>
    <v>       0.25866146       0.24716632       0.65423120 </v>
    <v>       0.25919760       0.75380938       0.65447978 </v>
    <v>       0.74433726       0.26616885       0.65410684 </v>
    <v>       0.74451491       0.74206216       0.65412406 </v>
    <v>       0.13400461       0.11191476       0.60735738 </v>
    <v>       0.14625043       0.60866649       0.60838829 </v>
    <v>       0.64756353       0.10568712       0.61002637 </v>
    <v>       0.61636344       0.62800143       0.60827871 </v>
    <v>       0.35741608       0.38774551       0.60506182 </v>
    <v>       0.37486915       0.87981691       0.60646896 </v>
    <v>       0.88990924       0.36446460       0.60853907 </v>
    <v>       0.86694420       0.87928962       0.60478668 </v>
    <v>       0.11978362       0.36742106       0.60902538 </v>
    <v>       0.12386657       0.86807517       0.60767641 </v>
    <v>       0.59417264       0.33930074       0.60135478 </v>
    <v>       0.61639002       0.87083570       0.61299571 </v>
    <v>       0.38601764       0.13476929       0.60559226 </v>
    <v>       0.38449928       0.62904339       0.60984085 </v>
    <v>       0.88597594       0.13269380       0.61061426 </v>
    <v>       0.89472064       0.64616864       0.60932683 </v>
    <v>       0.00000000       0.00000000       0.75492797 </v>
    <v>       0.00000000       0.50000000       0.75492797 </v>
    <v>       0.50000000       0.00000000       0.75492797 </v>
    <v>       0.49999999       0.50000000       0.75492797 </v>
    <v>       0.25000050       0.25000000       0.75493902 </v>
    <v>       0.25000051       0.74999997       0.75493902 </v>
    <v>       0.75000047       0.25000000       0.75493902 </v>
    <v>       0.75000046       0.74999997       0.75493902 </v>
    <v>       0.13579050       0.11421000       0.70478299 </v>
    <v>       0.13579050       0.61420998       0.70478299 </v>
    <v>       0.63579045       0.11421000       0.70478299 </v>
    <v>       0.63579049       0.61420998       0.70478299 </v>
    <v>       0.36420952       0.38578999       0.70478299 </v>
    <v>       0.36420950       0.88578996       0.70478299 </v>
    <v>       0.86420954       0.38578999       0.70478299 </v>
    <v>       0.86420953       0.88578996       0.70478299 </v>
    <v>       0.11421799       0.36421899       0.70478098 </v>
    <v>       0.11421799       0.86421899       0.70478098 </v>
    <v>       0.61421800       0.36421899       0.70478098 </v>
    <v>       0.61421799       0.86421899       0.70478098 </v>
    <v>       0.38578201       0.13578149       0.70478202 </v>
    <v>       0.38578200       0.63578149       0.70478202 </v>
    <v>       0.88578199       0.13578149       0.70478202 </v>
    <v>       0.88578203       0.63578149       0.70478202 </v>
    <v>       0.13466700       0.11533200       0.80125603 </v>
    <v>       0.13466699       0.61533199       0.80125603 </v>
    <v>       0.63466699       0.11533200       0.80125603 </v>
    <v>       0.63466698       0.61533199       0.80125603 </v>
    <v>       0.36533300       0.38466799       0.80125603 </v>
    <v>       0.36533299       0.88466796       0.80125603 </v>
    <v>       0.86533295       0.38466799       0.80125603 </v>
    <v>       0.86533294       0.88466796       0.80125603 </v>
    <v>       0.11532850       0.36533700       0.80126500 </v>
    <v>       0.11532850       0.86533698       0.80126500 </v>
    <v>       0.61532850       0.36533700       0.80126500 </v>
    <v>       0.61532849       0.86533698       0.80126500 </v>
    <v>       0.38467151       0.13466300       0.80126500 </v>
    <v>       0.38467150       0.63466297       0.80126500 </v>
    <v>       0.88467149       0.13466300       0.80126500 </v>
    <v>       0.88467153       0.63466297       0.80126500 </v>
    <v>       0.99959819       0.99876149       0.60470603 </v>
    <v>       0.00414196       0.50456716       0.60411619 </v>
    <v>       0.50568713       0.00727697       0.60384746 </v>
    <v>       0.49924259       0.49131932       0.60413689 </v>
    <v>       0.24777870       0.24686984       0.60250534 </v>
    <v>       0.25246611       0.74657266       0.60344485 </v>
    <v>       0.74589259       0.24582761       0.60238568 </v>
    <v>       0.73816866       0.75503909       0.60253061 </v>
    <v>       0.00000050       0.00000050       0.70482896 </v>
    <v>       0.00000050       0.50000048       0.70482896 </v>
    <v>       0.50000048       0.00000050       0.70482896 </v>
    <v>       0.50000046       0.50000048       0.70482896 </v>
    <v>       0.24999999       0.24999947       0.70482499 </v>
    <v>       0.25000001       0.74999950       0.70482499 </v>
    <v>       0.74999999       0.24999947       0.70482499 </v>
    <v>       0.74999998       0.74999950       0.70482499 </v>
    <v>       0.00000000       0.00000000       0.80731797 </v>
    <v>       0.00000000       0.50000000       0.80731797 </v>
    <v>       0.50000000       0.00000000       0.80731797 </v>
    <v>       0.49999999       0.50000000       0.80731797 </v>
    <v>       0.24999999       0.25000000       0.80731797 </v>
    <v>       0.25000001       0.74999997       0.80731797 </v>
    <v>       0.74999999       0.25000000       0.80731797 </v>
    <v>       0.74999998       0.74999997       0.80731797 </v>
   </varray>
  </structure>
  <varray name="primitive_index" >
   <v type="int" >        1 </v>
   <v type="int" >        2 </v>
   <v type="int" >        3 </v>
   <v type="int" >        4 </v>
   <v type="int" >        5 </v>
   <v type="int" >        6 </v>
   <v type="int" >        7 </v>
   <v type="int" >        8 </v>
   <v type="int" >        9 </v>
   <v type="int" >       10 </v>
   <v type="int" >       11 </v>
   <v type="int" >       12 </v>
   <v type="int" >       13 </v>
   <v type="int" >       14 </v>
   <v type="int" >       15 </v>
   <v type="int" >       16 </v>
   <v type="int" >       17 </v>
   <v type="int" >       18 </v>
   <v type="int" >       19 </v>
   <v type="int" >       20 </v>
   <v type="int" >       21 </v>
   <v type="int" >       22 </v>
   <v type="int" >       23 </v>
   <v type="int" >       24 </v>
   <v type="int" >       25 </v>
   <v type="int" >       26 </v>
   <v type="int" >       27 </v>
   <v type="int" >       28 </v>
   <v type="int" >       29 </v>
   <v type="int" >       30 </v>
   <v type="int" >       31 </v>
   <v type="int" >       32 </v>
   <v type="int" >       33 </v>
   <v type="int" >       34 </v>
   <v type="int" >       35 </v>
   <v type="int" >       36 </v>
   <v type="int" >       37 </v>
   <v type="int" >       38 </v>
   <v type="int" >       39 </v>
   <v type="int" >       40 </v>
   <v type="int" >       41 </v>
   <v type="int" >       42 </v>
   <v type="int" >       43 </v>
   <v type="int" >       44 </v>
   <v type="int" >       45 </v>
   <v type="int" >       46 </v>
   <v type="int" >       47 </v>
   <v type="int" >       48 </v>
   <v type="int" >       49 </v>
   <v type="int" >       50 </v>
   <v type="int" >       51 </v>
   <v type="int" >       52 </v>
   <v type="int" >       53 </v>
   <v type="int" >       54 </v>
   <v type="int" >       55 </v>
   <v type="int" >       56 </v>
   <v type="int" >       57 </v>
   <v type="int" >       58 </v>
   <v type="int" >       59 </v>
   <v type="int" >       60 </v>
   <v type="int" >       61 </v>
   <v type="int" >       62 </v>
   <v type="int" >       63 </v>
   <v type="int" >       64 </v>
   <v type="int" >       65 </v>
   <v type="int" >       66 </v>
   <v type="int" >       67 </v>
   <v type="int" >       68 </v>
   <v type="int" >       69 </v>
   <v type="int" >       70 </v>
   <v type="int" >       71 </v>
   <v type="int" >       72 </v>
   <v type="int" >       73 </v>
   <v type="int" >       74 </v>
   <v type="int" >       75 </v>
   <v type="int" >       76 </v>
   <v type="int" >       77 </v>
   <v type="int" >       78 </v>
   <v type="int" >       79 </v>
   <v type="int" >       80 </v>
   <v type="int" >       81 </v>
   <v type="int" >       82 </v>
   <v type="int" >       83 </v>
   <v type="int" >       84 </v>
   <v type="int" >       85 </v>
   <v type="int" >       86 </v>
   <v type="int" >       87 </v>
   <v type="int" >       88 </v>
   <v type="int" >       89 </v>
   <v type="int" >       90 </v>
   <v type="int" >       91 </v>
   <v type="int" >       92 </v>
   <v type="int" >       93 </v>
   <v type="int" >       94 </v>
   <v type="int" >       95 </v>
   <v type="int" >       96 </v>
   <v type="int" >       97 </v>
   <v type="int" >       98 </v>
   <v type="int" >       99 </v>
   <v type="int" >      100 </v>
   <v type="int" >      101 </v>
   <v type="int" >      102 </v>
   <v type="int" >      103 </v>
   <v type="int" >      104 </v>
   <v type="int" >      105 </v>
   <v type="int" >      106 </v>
   <v type="int" >      107 </v>
   <v type="int" >      108 </v>
   <v type="int" >      109 </v>
   <v type="int" >      110 </v>
   <v type="int" >      111 </v>
   <v type="int" >      112 </v>
   <v type="int" >      113 </v>
   <v type="int" >      114 </v>
   <v type="int" >      115 </v>
   <v type="int" >      116 </v>
   <v type="int" >      117 </v>
   <v type="int" >      118 </v>
   <v type="int" >      119 </v>
   <v type="int" >      120 </v>
   <v type="int" >      121 </v>
   <v type="int" >      122 </v>
   <v type="int" >      123 </v>
   <v type="int" >      124 </v>
   <v type="int" >      125 </v>
   <v type="int" >      126 </v>
   <v type="int" >      127 </v>
   <v type="int" >      128 </v>
   <v type="int" >      129 </v>
   <v type="int" >      130 </v>
   <v type="int" >      131 </v>
   <v type="int" >      132 </v>
   <v type="int" >      133 </v>
   <v type="int" >      134 </v>
   <v type="int" >      135 </v>
   <v type="int" >      136 </v>
   <v type="int" >      137 </v>
   <v type="int" >      138 </v>
   <v type="int" >      139 </v>
   <v type="int" >      140 </v>
   <v type="int" >      141 </v>
   <v type="int" >      142 </v>
   <v type="int" >      143 </v>
   <v type="int" >      144 </v>
   <v type="int" >      145 </v>
   <v type="int" >      146 </v>
   <v type="int" >      147 </v>
   <v type="int" >      148 </v>
   <v type="int" >      149 </v>
   <v type="int" >      150 </v>
   <v type="int" >      151 </v>
   <v type="int" >      152 </v>
   <v type="int" >      153 </v>
   <v type="int" >      154 </v>
   <v type="int" >      155 </v>
   <v type="int" >      156 </v>
   <v type="int" >      157 </v>
   <v type="int" >      158 </v>
   <v type="int" >      159 </v>
   <v type="int" >      160 </v>
   <v type="int" >      161 </v>
   <v type="int" >      162 </v>
   <v type="int" >      163 </v>
   <v type="int" >      164 </v>
   <v type="int" >      165 </v>
   <v type="int" >      166 </v>
   <v type="int" >      167 </v>
   <v type="int" >      168 </v>
   <v type="int" >      169 </v>
   <v type="int" >      170 </v>
   <v type="int" >      171 </v>
   <v type="int" >      172 </v>
   <v type="int" >      173 </v>
   <v type="int" >      174 </v>
   <v type="int" >      175 </v>
   <v type="int" >      176 </v>
   <v type="int" >      177 </v>
   <v type="int" >      178 </v>
   <v type="int" >      179 </v>
   <v type="int" >      180 </v>
   <v type="int" >      181 </v>
   <v type="int" >      182 </v>
   <v type="int" >      183 </v>
   <v type="int" >      184 </v>
   <v type="int" >      185 </v>
   <v type="int" >      186 </v>
   <v type="int" >      187 </v>
   <v type="int" >      188 </v>
   <v type="int" >      189 </v>
   <v type="int" >      190 </v>
   <v type="int" >      191 </v>
   <v type="int" >      192 </v>
   <v type="int" >      193 </v>
   <v type="int" >      194 </v>
   <v type="int" >      195 </v>
   <v type="int" >      196 </v>
   <v type="int" >      197 </v>
   <v type="int" >      198 </v>
   <v type="int" >      199 </v>
   <v type="int" >      200 </v>
   <v type="int" >      201 </v>
   <v type="int" >      202 </v>
   <v type="int" >      203 </v>
   <v type="int" >      204 </v>
   <v type="int" >      205 </v>
   <v type="int" >      206 </v>
   <v type="int" >      207 </v>
   <v type="int" >      208 </v>
   <v type="int" >      209 </v>
   <v type="int" >      210 </v>
   <v type="int" >      211 </v>
   <v type="int" >      212 </v>
   <v type="int" >      213 </v>
   <v type="int" >      214 </v>
   <v type="int" >      215 </v>
   <v type="int" >      216 </v>
   <v type="int" >      217 </v>
   <v type="int" >      218 </v>
   <v type="int" >      219 </v>
   <v type="int" >      220 </v>
   <v type="int" >      221 </v>
   <v type="int" >      222 </v>
   <v type="int" >      223 </v>
   <v type="int" >      224 </v>
   <v type="int" >      225 </v>
   <v type="int" >      226 </v>
   <v type="int" >      227 </v>
   <v type="int" >      228 </v>
   <v type="int" >      229 </v>
   <v type="int" >      230 </v>
   <v type="int" >      231 </v>
   <v type="int" >      232 </v>
   <v type="int" >      233 </v>
   <v type="int" >      234 </v>
   <v type="int" >      235 </v>
   <v type="int" >      236 </v>
   <v type="int" >      237 </v>
   <v type="int" >      238 </v>
   <v type="int" >      239 </v>
   <v type="int" >      240 </v>
   <v type="int" >      241 </v>
   <v type="int" >      242 </v>
   <v type="int" >      243 </v>
   <v type="int" >      244 </v>
   <v type="int" >      245 </v>
   <v type="int" >      246 </v>
   <v type="int" >      247 </v>
   <v type="int" >      248 </v>
   <v type="int" >      249 </v>
   <v type="int" >      250 </v>
   <v type="int" >      251 </v>
   <v type="int" >      252 </v>
   <v type="int" >      253 </v>
   <v type="int" >      254 </v>
   <v type="int" >      255 </v>
   <v type="int" >      256 </v>
   <v type="int" >      257 </v>
   <v type="int" >      258 </v>
   <v type="int" >      259 </v>
   <v type="int" >      260 </v>
   <v type="int" >      261 </v>
   <v type="int" >      262 </v>
   <v type="int" >      263 </v>
   <v type="int" >      264 </v>
   <v type="int" >      265 </v>
   <v type="int" >      266 </v>
   <v type="int" >      267 </v>
   <v type="int" >      268 </v>
   <v type="int" >      269 </v>
   <v type="int" >      270 </v>
   <v type="int" >      271 </v>
   <v type="int" >      272 </v>
   <v type="int" >      273 </v>
   <v type="int" >      274 </v>
   <v type="int" >      275 </v>
   <v type="int" >      276 </v>
   <v type="int" >      277 </v>
   <v type="int" >      278 </v>
   <v type="int" >      279 </v>
   <v type="int" >      280 </v>
   <v type="int" >      281 </v>
   <v type="int" >      282 </v>
   <v type="int" >      283 </v>
   <v type="int" >      284 </v>
   <v type="int" >      285 </v>
   <v type="int" >      286 </v>
   <v type="int" >      287 </v>
   <v type="int" >      288 </v>
   <v type="int" >      289 </v>
   <v type="int" >      290 </v>
   <v type="int" >      291 </v>
   <v type="int" >      292 </v>
   <v type="int" >      293 </v>
   <v type="int" >      294 </v>
   <v type="int" >      295 </v>
   <v type="int" >      296 </v>
   <v type="int" >      297 </v>
   <v type="int" >      298 </v>
   <v type="int" >      299 </v>
   <v type="int" >      300 </v>
   <v type="int" >      301 </v>
   <v type="int" >      302 </v>
   <v type="int" >      303 </v>
   <v type="int" >      304 </v>
   <v type="int" >      305 </v>
   <v type="int" >      306 </v>
   <v type="int" >      307 </v>
   <v type="int" >      308 </v>
   <v type="int" >      309 </v>
   <v type="int" >      310 </v>
   <v type="int" >      311 </v>
   <v type="int" >      312 </v>
   <v type="int" >      313 </v>
   <v type="int" >      314 </v>
   <v type="int" >      315 </v>
   <v type="int" >      316 </v>
   <v type="int" >      317 </v>
   <v type="int" >      318 </v>
   <v type="int" >      319 </v>
   <v type="int" >      320 </v>
   <v type="int" >      321 </v>
   <v type="int" >      322 </v>
   <v type="int" >      323 </v>
   <v type="int" >      324 </v>
   <v type="int" >      325 </v>
  </varray>
 </primitive_cell>
 <kpoints>
  <generation param="Gamma">
   <v type="int" name="divisions">       3        3        1 </v>
   <v name="usershift">      0.00000000       0.00000000       0.00000000 </v>
   <v name="genvec1">      0.33333333       0.00000000       0.00000000 </v>
   <v name="genvec2">      0.00000000       0.33333333       0.00000000 </v>
   <v name="genvec3">      0.00000000       0.00000000       1.00000000 </v>
   <v name="shift">      0.00000000       0.00000000       0.00000000 </v>
  </generation>
  <varray name="kpointlist" >
   <v>       0.00000000       0.00000000       0.00000000 </v>
   <v>       0.33333333       0.00000000       0.00000000 </v>
   <v>       0.00000000       0.33333333       0.00000000 </v>
   <v>       0.33333333       0.33333333       0.00000000 </v>
   <v>      -0.33333333       0.33333333       0.00000000 </v>
  </varray>
  <varray name="weights" >
   <v>       0.11111111 </v>
   <v>       0.22222222 </v>
   <v>       0.22222222 </v>
   <v>       0.22222222 </v>
   <v>       0.22222222 </v>
  </varray>
 </kpoints>
 <parameters>
  <separator name="general" >
   <i type="string" name="SYSTEM">PSC</i>
   <i type="logical" name="LCOMPAT"> F  </i>
  </separator>
  <separator name="electronic" >
   <i type="string" name="PREC">normal</i>
   <i name="ENMAX">    500.00000000</i>
   <i name="ENAUG">    644.87300000</i>
   <i name="EDIFF">      0.00010000</i>
   <i type="int" name="IALGO">    38</i>
   <i type="int" name="IWAVPR">    10</i>
   <i type="int" name="NBANDS">   732</i>
   <i type="int" name="NBANDSLOW">    -1</i>
   <i type="int" name="NBANDSHIGH">    -1</i>
   <i name="NELECT">   1134.00000000</i>
   <i type="int" name="TURBO">     0</i>
   <i type="int" name="IRESTART">     0</i>
   <i type="int" name="NREBOOT">     0</i>
   <i type="int" name="NMIN">     0</i>
   <i name="EREF">      0.00000000</i>
   <separator name="electronic smearing" >
    <i type="int" name="ISMEAR">     0</i>
    <i name="SIGMA">      0.05000000</i>
    <i name="KSPACING">      0.50000000</i>
    <i type="logical" name="KGAMMA"> T  </i>
    <i type="logical" name="KBLOWUP"> T  </i>
   </separator>
   <separator name="electronic projectors" >
    <i type="logical" name="LREAL"> T  </i>
    <v name="ROPT">     -0.00050000     -0.00050000     -0.00050000     -0.00050000     -0.00050000</v>
    <i type="int" name="LMAXPAW">  -100</i>
    <i type="int" name="LMAXMIX">     2</i>
    <i type="logical" name="NLSPLINE"> F  </i>
   </separator>
   <separator name="electronic startup" >
    <i type="int" name="ISTART">     0</i>
    <i type="int" name="ICHARG">     1</i>
    <i type="int" name="INIWAV">     1</i>
   </separator>
   <separator name="electronic spin" >
    <i type="int" name="ISPIN">     1</i>
    <i type="logical" name="LNONCOLLINEAR"> F  </i>
    <v name="MAGMOM">      1.00000000      1.00000000      1.00000000      1.00000000      1.00000000      1.00000000      1.00000000      1.00000000      1.00000000      1.00000000      1.00000000      1.00000000      1.00000000      1.00000000      1.00000000      1.00000000      1.00000000      1.00000000      1.00000000      1.00000000
      1.00000000      1.00000000      1.00000000      1.00000000      1.00000000      1.00000000      1.00000000      1.00000000      1.00000000      1.00000000      1.00000000      1.00000000      1.00000000      1.00000000      1.00000000      1.00000000      1.00000000      1.00000000      1.00000000      1.00000000
      1.00000000      1.00000000      1.00000000      1.00000000      1.00000000      1.00000000      1.00000000      1.00000000      1.00000000      1.00000000      1.00000000      1.00000000      1.00000000      1.00000000      1.00000000      1.00000000      1.00000000      1.00000000      1.00000000      1.00000000
      1.00000000      1.00000000      1.00000000      1.00000000      1.00000000      1.00000000      1.00000000      1.00000000      1.00000000      1.00000000      1.00000000      1.00000000      1.00000000      1.00000000      1.00000000      1.00000000      1.00000000      1.00000000      1.00000000      1.00000000
      1.00000000      1.00000000      1.00000000      1.00000000      1.00000000      1.00000000      1.00000000      1.00000000      1.00000000      1.00000000      1.00000000      1.00000000      1.00000000      1.00000000      1.00000000      1.00000000      1.00000000      1.00000000      1.00000000      1.00000000
      1.00000000      1.00000000      1.00000000      1.00000000      1.00000000      1.00000000      1.00000000      1.00000000      1.00000000      1.00000000      1.00000000      1.00000000      1.00000000      1.00000000      1.00000000      1.00000000      1.00000000      1.00000000      1.00000000      1.00000000
      1.00000000      1.00000000      1.00000000      1.00000000      1.00000000      1.00000000      1.00000000      1.00000000      1.00000000      1.00000000      1.00000000      1.00000000      1.00000000      1.00000000      1.00000000      1.00000000      1.00000000      1.00000000      1.00000000      1.00000000
      1.00000000      1.00000000      1.00000000      1.00000000      1.00000000      1.00000000      1.00000000      1.00000000      1.00000000      1.00000000      1.00000000      1.00000000      1.00000000      1.00000000      1.00000000      1.00000000      1.00000000      1.00000000      1.00000000      1.00000000
      1.00000000      1.00000000      1.00000000      1.00000000      1.00000000      1.00000000      1.00000000      1.00000000      1.00000000      1.00000000      1.00000000      1.00000000      1.00000000      1.00000000      1.00000000      1.00000000      1.00000000      1.00000000      1.00000000      1.00000000
      1.00000000      1.00000000      1.00000000      1.00000000      1.00000000      1.00000000      1.00000000      1.00000000      1.00000000      1.00000000      1.00000000      1.00000000      1.00000000      1.00000000      1.00000000      1.00000000      1.00000000      1.00000000      1.00000000      1.00000000
      1.00000000      1.00000000      1.00000000      1.00000000      1.00000000      1.00000000      1.00000000      1.00000000      1.00000000      1.00000000      1.00000000      1.00000000      1.00000000      1.00000000      1.00000000      1.00000000      1.00000000      1.00000000      1.00000000      1.00000000
      1.00000000      1.00000000      1.00000000      1.00000000      1.00000000      1.00000000      1.00000000      1.00000000      1.00000000      1.00000000      1.00000000      1.00000000      1.00000000      1.00000000      1.00000000      1.00000000      1.00000000      1.00000000      1.00000000      1.00000000
      1.00000000      1.00000000      1.00000000      1.00000000      1.00000000      1.00000000      1.00000000      1.00000000      1.00000000      1.00000000      1.00000000      1.00000000      1.00000000      1.00000000      1.00000000      1.00000000      1.00000000      1.00000000      1.00000000      1.00000000
      1.00000000      1.00000000      1.00000000      1.00000000      1.00000000      1.00000000      1.00000000      1.00000000      1.00000000      1.00000000      1.00000000      1.00000000      1.00000000      1.00000000      1.00000000      1.00000000      1.00000000      1.00000000      1.00000000      1.00000000
      1.00000000      1.00000000      1.00000000      1.00000000      1.00000000      1.00000000      1.00000000      1.00000000      1.00000000      1.00000000      1.00000000      1.00000000      1.00000000      1.00000000      1.00000000      1.00000000      1.00000000      1.00000000      1.00000000      1.00000000
      1.00000000      1.00000000      1.00000000      1.00000000      1.00000000      1.00000000      1.00000000      1.00000000      1.00000000      1.00000000      1.00000000      1.00000000      1.00000000      1.00000000      1.00000000      1.00000000      1.00000000      1.00000000      1.00000000      1.00000000
      1.00000000      1.00000000      1.00000000      1.00000000      1.00000000</v>
    <i name="NUPDOWN">     -1.00000000</i>
    <i type="logical" name="LSORBIT"> F  </i>
    <v name="SAXIS">      0.00000000      0.00000000      1.00000000</v>
    <i type="logical" name="LSPIRAL"> F  </i>
    <v name="QSPIRAL">      0.00000000      0.00000000      0.00000000</v>
    <i type="logical" name="LZEROZ"> F  </i>
   </separator>
   <separator name="electronic exchange-correlation" >
    <i type="logical" name="LASPH"> F  </i>
    <i type="logical" name="LMETAGGA"> F  </i>
   </separator>
   <separator name="electronic convergence" >
    <i type="int" name="NELM">   600</i>
    <i type="int" name="NELMDL">     0</i>
    <i type="int" name="NELMIN">     2</i>
    <i name="ENINI">    500.00000000</i>
    <separator name="electronic convergence detail" >
     <i type="logical" name="LDIAG"> T  </i>
     <i type="logical" name="LSUBROT"> F  </i>
     <i name="WEIMIN">      0.00000000</i>
     <i name="EBREAK">      0.00000003</i>
     <i name="DEPER">      0.30000000</i>
     <i type="int" name="NRMM">     4</i>
     <i name="TIME">      0.40000000</i>
    </separator>
   </separator>
   <separator name="electronic mixer" >
    <i name="AMIX">      0.40000000</i>
    <i name="BMIX">      0.01000000</i>
    <i name="AMIN">      0.01000000</i>
    <i name="AMIX_MAG">      1.60000000</i>
    <i name="BMIX_MAG">      0.01000000</i>
    <separator name="electronic mixer details" >
     <i type="int" name="IMIX">     4</i>
     <i type="logical" name="MIXFIRST"> F  </i>
     <i type="int" name="MAXMIX">   -45</i>
     <i name="WC">    100.00000000</i>
     <i type="int" name="INIMIX">     1</i>
     <i type="int" name="MIXPRE">     1</i>
     <i type="int" name="MREMOVE">     5</i>
    </separator>
   </separator>
   <separator name="electronic dipolcorrection" >
    <i type="logical" name="LDIPOL"> T  </i>
    <i type="logical" name="LMONO"> F  </i>
    <i type="int" name="IDIPOL">     3</i>
    <i name="EPSILON">      1.00000000</i>
    <v name="DIPOL">   -100.00000000   -100.00000000   -100.00000000</v>
    <i name="EFIELD">      0.00000000</i>
   </separator>
  </separator>
  <separator name="grids" >
   <i type="int" name="NGX">   100</i>
   <i type="int" name="NGY">   100</i>
   <i type="int" name="NGZ">   350</i>
   <i type="int" name="NGXF">   200</i>
   <i type="int" name="NGYF">   200</i>
   <i type="int" name="NGZF">   700</i>
   <i type="logical" name="ADDGRID"> F  </i>
  </separator>
  <separator name="ionic" >
   <i type="int" name="NSW">     0</i>
   <i type="int" name="IBRION">    -1</i>
   <i type="int" name="MDALGO">     0</i>
   <i type="int" name="ISIF">     2</i>
   <i name="PSTRESS">      0.00000000</i>
   <i name="EDIFFG">      0.00100000</i>
   <i type="int" name="NFREE">     0</i>
   <i name="POTIM">      0.50000000</i>
   <i name="SMASS">     -3.00000000</i>
   <i name="SCALEE">      1.00000000</i>
  </separator>
  <separator name="ionic md" >
   <i name="TEBEG">      0.00010000</i>
   <i name="TEEND">      0.00010000</i>
   <i type="int" name="NBLOCK">     1</i>
   <i type="int" name="KBLOCK">     1</i>
   <i type="int" name="NPACO">   256</i>
   <i name="APACO">     16.00000000</i>
  </separator>
  <separator name="symmetry" >
   <i type="int" name="ISYM">     0</i>
   <i name="SYMPREC">      0.00001000</i>
  </separator>
  <separator name="dos" >
   <i type="int" name="LORBIT">     0</i>
   <v name="RWIGS">     -1.00000000     -1.00000000     -1.00000000     -1.00000000     -1.00000000</v>
   <i type="int" name="NEDOS">   301</i>
   <i name="EMIN">     10.00000000</i>
   <i name="EMAX">    -10.00000000</i>
   <i name="EFERMI">      0.00000000</i>
  </separator>
  <separator name="writing" >
   <i type="int" name="NWRITE">     2</i>
   <i type="logical" name="LWAVE"> F  </i>
   <i type="logical" name="LDOWNSAMPLE"> F  </i>
   <i type="logical" name="LCHARG"> T  </i>
   <i type="logical" name="LPARD"> F  </i>
   <i type="logical" name="LVTOT"> T  </i>
   <i type="logical" name="LVHAR"> F  </i>
   <i type="logical" name="LELF"> F  </i>
   <i type="logical" name="LOPTICS"> F  </i>
   <v name="STM">      0.00000000      0.00000000      0.00000000      0.00000000      0.00000000      0.00000000      0.00000000</v>
  </separator>
  <separator name="performance" >
   <i type="int" name="NPAR">     4</i>
   <i type="int" name="NSIM">     4</i>
   <i type="int" name="NBLK">    -1</i>
   <i type="logical" name="LPLANE"> T  </i>
   <i type="logical" name="LSCALAPACK"> T  </i>
   <i type="logical" name="LSCAAWARE"> F  </i>
   <i type="logical" name="LSCALU"> F  </i>
   <i type="logical" name="LASYNC"> F  </i>
   <i type="logical" name="LORBITALREAL"> F  </i>
  </separator>
  <separator name="miscellaneous" >
   <i type="int" name="IDIOT">     3</i>
   <i type="int" name="PHON_NSTRUCT">    -1</i>
   <i type="logical" name="LMUSIC"> F  </i>
   <v name="POMASS">      1.00000000     12.01100000     14.00100000    126.90400000    207.20000000</v>
   <v name="DARWINR">      0.00000000      0.00000000      0.00000000      0.00000000      0.00000000</v>
   <v name="DARWINV">      1.00000000      1.00000000      1.00000000      1.00000000      1.00000000</v>
   <i type="logical" name="LCORR"> T  </i>
  </separator>
  <i type="logical" name="GGA_COMPAT"> F  </i>
  <i type="logical" name="LBERRY"> F  </i>
  <i type="int" name="ICORELEVEL">     0</i>
  <i type="logical" name="LDAU"> F  </i>
  <i type="int" name="I_CONSTRAINED_M">     0</i>
  <separator name="electronic exchange-correlation" >
   <i type="string" name="GGA">--</i>
   <i type="int" name="VOSKOWN">     0</i>
   <i type="logical" name="LHFCALC"> F  </i>
   <i type="string" name="PRECFOCK"></i>
   <i type="logical" name="LSYMGRAD"> F  </i>
   <i type="logical" name="LHFONE"> F  </i>
   <i type="logical" name="LRHFCALC"> F  </i>
   <i type="logical" name="LTHOMAS"> F  </i>
   <i type="logical" name="LMODELHF"> F  </i>
   <i type="logical" name="LFOCKACE"> F  </i>
   <i name="ENCUT4O">     -1.00000000</i>
   <i type="int" name="EXXOEP">     0</i>
   <i type="int" name="FOURORBIT">     0</i>
   <i name="AEXX">      0.00000000</i>
   <i name="HFALPHA">      0.00000000</i>
   <i name="MCALPHA">      0.00000000</i>
   <i name="ALDAX">      1.00000000</i>
   <i name="AGGAX">      1.00000000</i>
   <i name="ALDAC">      1.00000000</i>
   <i name="AGGAC">      1.00000000</i>
   <i type="int" name="NKREDX">     1</i>
   <i type="int" name="NKREDY">     1</i>
   <i type="int" name="NKREDZ">     1</i>
   <i type="logical" name="SHIFTRED"> F  </i>
   <i type="logical" name="ODDONLY"> F  </i>
   <i type="logical" name="EVENONLY"> F  </i>
   <i type="int" name="LMAXFOCK">     0</i>
   <i type="int" name="NMAXFOCKAE">     0</i>
   <i type="logical" name="LFOCKAEDFT"> F  </i>
   <i name="HFSCREEN">      0.00000000</i>
   <i name="HFSCREENC">      0.00000000</i>
   <i type="int" name="NBANDSGWLOW">     0</i>
  </separator>
  <separator name="vdW DFT" >
   <i type="logical" name="LUSE_VDW"> F  </i>
   <i name="Zab_VDW">     -0.84910000</i>
   <i name="PARAM1">      0.12340000</i>
   <i name="PARAM2">      1.00000000</i>
   <i name="PARAM3">      0.00000000</i>
  </separator>
  <separator name="model GW" >
   <i type="int" name="MODEL_GW">     0</i>
   <i name="MODEL_EPS0">     37.63423484</i>
   <i name="MODEL_ALPHA">      1.00000000</i>
  </separator>
  <separator name="linear response parameters" >
   <i type="logical" name="LEPSILON"> F  </i>
   <i type="logical" name="LRPA"> F  </i>
   <i type="logical" name="LNABLA"> F  </i>
   <i type="logical" name="LVEL"> F  </i>
   <i type="int" name="KINTER">     0</i>
   <i name="CSHIFT">      0.10000000</i>
   <i name="OMEGAMAX">     -1.00000000</i>
   <i name="DEG_THRESHOLD">      0.00200000</i>
   <i name="RTIME">     -0.10000000</i>
   <i name="WPLASMAI">      0.00000000</i>
   <v name="DFIELD">      0.00000000      0.00000000      0.00000000</v>
   <v name="WPLASMA">      0.00000000      0.00000000      0.00000000      0.00000000      0.00000000      0.00000000      0.00000000      0.00000000      0.00000000</v>
  </separator>
  <separator name="orbital magnetization" >
   <i type="logical" name="NUCIND"> F  </i>
   <v name="MAGPOS">      0.00000000      0.00000000      0.00000000</v>
   <i type="logical" name="LNICSALL"> T  </i>
   <i type="logical" name="ORBITALMAG"> F  </i>
   <i type="logical" name="LMAGBLOCH"> F  </i>
   <i type="logical" name="LCHIMAG"> F  </i>
   <i type="logical" name="LGAUGE"> T  </i>
   <i type="int" name="MAGATOM">     0</i>
   <v name="MAGDIPOL">      0.00000000      0.00000000      0.00000000</v>
   <v name="AVECCONST">      0.00000000      0.00000000      0.00000000</v>
  </separator>
  <separator name="response functions" >
   <i type="logical" name="LFINITE_TEMPERATURE"> F  </i>
   <i type="logical" name="LADDER"> F  </i>
   <i type="logical" name="LRPAFORCE"> F  </i>
   <i type="logical" name="LFXC"> F  </i>
   <i type="logical" name="LHARTREE"> T  </i>
   <i type="int" name="IBSE">     0</i>
   <v type="int" name="KPOINT">    -1     0     0     0</v>
   <i type="logical" name="LTCTC"> F  </i>
   <i type="logical" name="LTCTE"> F  </i>
   <i type="logical" name="LTETE"> F  </i>
   <i type="logical" name="LTRIPLET"> F  </i>
   <i type="logical" name="LFXCEPS"> F  </i>
   <i type="logical" name="LFXHEG"> F  </i>
   <i type="int" name="NATURALO">     2</i>
   <i type="logical" name="LHOLEGF"> F  </i>
   <i type="logical" name="L2ORDER"> F  </i>
   <i type="logical" name="LDMP1"> F  </i>
   <i type="logical" name="LMP2LT"> F  </i>
   <i type="logical" name="LSMP2LT"> F  </i>
   <i type="logical" name="LGWLF"> F  </i>
   <i name="ENCUTGW">     -2.00000000</i>
   <i name="ENCUTGWSOFT">     -2.00000000</i>
   <i name="ENCUTLF">     -1.00000000</i>
   <i type="logical" name="LESF_SPLINES"> F  </i>
   <i type="int" name="LMAXMP2">    -1</i>
   <i name="SCISSOR">      0.00000000</i>
   <i type="int" name="NOMEGA">     0</i>
   <i type="int" name="NOMEGAR">     0</i>
   <i type="int" name="NBANDSGW">    -1</i>
   <i type="int" name="NBANDSO">    -1</i>
   <i type="int" name="NBANDSV">    -1</i>
   <i type="int" name="NELM">   600</i>
   <i type="int" name="NELMHF">     1</i>
   <i type="int" name="DIM">     3</i>
   <i type="int" name="IESPILON">     4</i>
   <i type="int" name="ANTIRES">     0</i>
   <i name="OMEGAMAX">    -30.00000000</i>
   <i name="OMEGAMIN">    -30.00000000</i>
   <i name="OMEGATL">   -200.00000000</i>
   <i type="int" name="OMEGAGRID">     0</i>
   <i name="CSHIFT">     -0.10000000</i>
   <i type="logical" name="LSELFENERGY"> F  </i>
   <i type="logical" name="LSPECTRAL"> F  </i>
   <i type="logical" name="LSPECTRALGW"> F  </i>
   <i type="logical" name="LSINGLES"> F  </i>
   <i type="logical" name="LFERMIGW"> F  </i>
   <i type="logical" name="ODDONLYGW"> F  </i>
   <i type="logical" name="EVENONLYGW"> F  </i>
   <i type="int" name="NKREDLFX">     1</i>
   <i type="int" name="NKREDLFY">     1</i>
   <i type="int" name="NKREDLFZ">     1</i>
   <i type="int" name="MAXMEM">  2800</i>
   <i type="int" name="TELESCOPE">     0</i>
   <i type="int" name="NTAUPAR">    -1</i>
   <i type="int" name="NOMEGAPAR">    -1</i>
   <i name="DAMP_NEWTON">      0.80000001</i>
   <i name="LAMBDA">      1.00000000</i>
  </separator>
  <separator name="External order field" >
   <i name="OFIELD_KAPPA">      0.00000000</i>
   <v name="OFIELD_K">      0.00000000      0.00000000      0.00000000</v>
   <i name="OFIELD_Q6_NEAR">      0.00000000</i>
   <i name="OFIELD_Q6_FAR">      0.00000000</i>
   <i name="OFIELD_A">      0.00000000</i>
  </separator>
 </parameters>
 <atominfo>
  <atoms>     325 </atoms>
  <types>       5 </types>
  <array name="atoms" >
   <dimension dim="1">ion</dimension>
   <field type="string">element</field>
   <field type="int">atomtype</field>
   <set>
    <rc><c>H </c><c>   1</c></rc>
    <rc><c>H </c><c>   1</c></rc>
    <rc><c>H </c><c>   1</c></rc>
    <rc><c>H </c><c>   1</c></rc>
    <rc><c>H </c><c>   1</c></rc>
    <rc><c>H </c><c>   1</c></rc>
    <rc><c>H </c><c>   1</c></rc>
    <rc><c>H </c><c>   1</c></rc>
    <rc><c>H </c><c>   1</c></rc>
    <rc><c>H </c><c>   1</c></rc>
    <rc><c>H </c><c>   1</c></rc>
    <rc><c>H </c><c>   1</c></rc>
    <rc><c>H </c><c>   1</c></rc>
    <rc><c>H </c><c>   1</c></rc>
    <rc><c>H </c><c>   1</c></rc>
    <rc><c>H </c><c>   1</c></rc>
    <rc><c>H </c><c>   1</c></rc>
    <rc><c>H </c><c>   1</c></rc>
    <rc><c>H </c><c>   1</c></rc>
    <rc><c>H </c><c>   1</c></rc>
    <rc><c>H </c><c>   1</c></rc>
    <rc><c>H </c><c>   1</c></rc>
    <rc><c>H </c><c>   1</c></rc>
    <rc><c>H </c><c>   1</c></rc>
    <rc><c>H </c><c>   1</c></rc>
    <rc><c>H </c><c>   1</c></rc>
    <rc><c>H </c><c>   1</c></rc>
    <rc><c>H </c><c>   1</c></rc>
    <rc><c>H </c><c>   1</c></rc>
    <rc><c>H </c><c>   1</c></rc>
    <rc><c>H </c><c>   1</c></rc>
    <rc><c>H </c><c>   1</c></rc>
    <rc><c>H </c><c>   1</c></rc>
    <rc><c>H </c><c>   1</c></rc>
    <rc><c>H </c><c>   1</c></rc>
    <rc><c>H </c><c>   1</c></rc>
    <rc><c>H </c><c>   1</c></rc>
    <rc><c>H </c><c>   1</c></rc>
    <rc><c>H </c><c>   1</c></rc>
    <rc><c>H </c><c>   1</c></rc>
    <rc><c>H </c><c>   1</c></rc>
    <rc><c>H </c><c>   1</c></rc>
    <rc><c>H </c><c>   1</c></rc>
    <rc><c>H </c><c>   1</c></rc>
    <rc><c>H </c><c>   1</c></rc>
    <rc><c>H </c><c>   1</c></rc>
    <rc><c>H </c><c>   1</c></rc>
    <rc><c>H </c><c>   1</c></rc>
    <rc><c>H </c><c>   1</c></rc>
    <rc><c>H </c><c>   1</c></rc>
    <rc><c>H </c><c>   1</c></rc>
    <rc><c>H </c><c>   1</c></rc>
    <rc><c>H </c><c>   1</c></rc>
    <rc><c>H </c><c>   1</c></rc>
    <rc><c>H </c><c>   1</c></rc>
    <rc><c>H </c><c>   1</c></rc>
    <rc><c>H </c><c>   1</c></rc>
    <rc><c>H </c><c>   1</c></rc>
    <rc><c>H </c><c>   1</c></rc>
    <rc><c>H </c><c>   1</c></rc>
    <rc><c>H </c><c>   1</c></rc>
    <rc><c>H </c><c>   1</c></rc>
    <rc><c>H </c><c>   1</c></rc>
    <rc><c>H </c><c>   1</c></rc>
    <rc><c>H </c><c>   1</c></rc>
    <rc><c>H </c><c>   1</c></rc>
    <rc><c>H </c><c>   1</c></rc>
    <rc><c>H </c><c>   1</c></rc>
    <rc><c>H </c><c>   1</c></rc>
    <rc><c>H </c><c>   1</c></rc>
    <rc><c>H </c><c>   1</c></rc>
    <rc><c>H </c><c>   1</c></rc>
    <rc><c>H </c><c>   1</c></rc>
    <rc><c>H </c><c>   1</c></rc>
    <rc><c>H </c><c>   1</c></rc>
    <rc><c>H </c><c>   1</c></rc>
    <rc><c>H </c><c>   1</c></rc>
    <rc><c>H </c><c>   1</c></rc>
    <rc><c>H </c><c>   1</c></rc>
    <rc><c>H </c><c>   1</c></rc>
    <rc><c>H </c><c>   1</c></rc>
    <rc><c>H </c><c>   1</c></rc>
    <rc><c>H </c><c>   1</c></rc>
    <rc><c>H </c><c>   1</c></rc>
    <rc><c>H </c><c>   1</c></rc>
    <rc><c>H </c><c>   1</c></rc>
    <rc><c>H </c><c>   1</c></rc>
    <rc><c>H </c><c>   1</c></rc>
    <rc><c>H </c><c>   1</c></rc>
    <rc><c>H </c><c>   1</c></rc>
    <rc><c>H </c><c>   1</c></rc>
    <rc><c>H </c><c>   1</c></rc>
    <rc><c>H </c><c>   1</c></rc>
    <rc><c>H </c><c>   1</c></rc>
    <rc><c>H </c><c>   1</c></rc>
    <rc><c>H </c><c>   1</c></rc>
    <rc><c>H </c><c>   1</c></rc>
    <rc><c>H </c><c>   1</c></rc>
    <rc><c>H </c><c>   1</c></rc>
    <rc><c>H </c><c>   1</c></rc>
    <rc><c>H </c><c>   1</c></rc>
    <rc><c>H </c><c>   1</c></rc>
    <rc><c>H </c><c>   1</c></rc>
    <rc><c>H </c><c>   1</c></rc>
    <rc><c>H </c><c>   1</c></rc>
    <rc><c>H </c><c>   1</c></rc>
    <rc><c>H </c><c>   1</c></rc>
    <rc><c>H </c><c>   1</c></rc>
    <rc><c>H </c><c>   1</c></rc>
    <rc><c>H </c><c>   1</c></rc>
    <rc><c>H </c><c>   1</c></rc>
    <rc><c>H </c><c>   1</c></rc>
    <rc><c>H </c><c>   1</c></rc>
    <rc><c>H </c><c>   1</c></rc>
    <rc><c>H </c><c>   1</c></rc>
    <rc><c>H </c><c>   1</c></rc>
    <rc><c>H </c><c>   1</c></rc>
    <rc><c>H </c><c>   1</c></rc>
    <rc><c>H </c><c>   1</c></rc>
    <rc><c>H </c><c>   1</c></rc>
    <rc><c>H </c><c>   1</c></rc>
    <rc><c>H </c><c>   1</c></rc>
    <rc><c>H </c><c>   1</c></rc>
    <rc><c>H </c><c>   1</c></rc>
    <rc><c>H </c><c>   1</c></rc>
    <rc><c>H </c><c>   1</c></rc>
    <rc><c>H </c><c>   1</c></rc>
    <rc><c>H </c><c>   1</c></rc>
    <rc><c>H </c><c>   1</c></rc>
    <rc><c>H </c><c>   1</c></rc>
    <rc><c>H </c><c>   1</c></rc>
    <rc><c>H </c><c>   1</c></rc>
    <rc><c>H </c><c>   1</c></rc>
    <rc><c>H </c><c>   1</c></rc>
    <rc><c>H </c><c>   1</c></rc>
    <rc><c>H </c><c>   1</c></rc>
    <rc><c>H </c><c>   1</c></rc>
    <rc><c>H </c><c>   1</c></rc>
    <rc><c>H </c><c>   1</c></rc>
    <rc><c>H </c><c>   1</c></rc>
    <rc><c>H </c><c>   1</c></rc>
    <rc><c>H </c><c>   1</c></rc>
    <rc><c>H </c><c>   1</c></rc>
    <rc><c>C </c><c>   2</c></rc>
    <rc><c>C </c><c>   2</c></rc>
    <rc><c>C </c><c>   2</c></rc>
    <rc><c>C </c><c>   2</c></rc>
    <rc><c>C </c><c>   2</c></rc>
    <rc><c>C </c><c>   2</c></rc>
    <rc><c>C </c><c>   2</c></rc>
    <rc><c>C </c><c>   2</c></rc>
    <rc><c>C </c><c>   2</c></rc>
    <rc><c>C </c><c>   2</c></rc>
    <rc><c>C </c><c>   2</c></rc>
    <rc><c>C </c><c>   2</c></rc>
    <rc><c>C </c><c>   2</c></rc>
    <rc><c>C </c><c>   2</c></rc>
    <rc><c>C </c><c>   2</c></rc>
    <rc><c>C </c><c>   2</c></rc>
    <rc><c>C </c><c>   2</c></rc>
    <rc><c>C </c><c>   2</c></rc>
    <rc><c>C </c><c>   2</c></rc>
    <rc><c>C </c><c>   2</c></rc>
    <rc><c>C </c><c>   2</c></rc>
    <rc><c>C </c><c>   2</c></rc>
    <rc><c>C </c><c>   2</c></rc>
    <rc><c>C </c><c>   2</c></rc>
    <rc><c>C </c><c>   2</c></rc>
    <rc><c>C </c><c>   2</c></rc>
    <rc><c>C </c><c>   2</c></rc>
    <rc><c>C </c><c>   2</c></rc>
    <rc><c>C </c><c>   2</c></rc>
    <rc><c>C </c><c>   2</c></rc>
    <rc><c>C </c><c>   2</c></rc>
    <rc><c>C </c><c>   2</c></rc>
    <rc><c>C </c><c>   2</c></rc>
    <rc><c>C </c><c>   2</c></rc>
    <rc><c>C </c><c>   2</c></rc>
    <rc><c>C </c><c>   2</c></rc>
    <rc><c>C </c><c>   2</c></rc>
    <rc><c>C </c><c>   2</c></rc>
    <rc><c>C </c><c>   2</c></rc>
    <rc><c>N </c><c>   3</c></rc>
    <rc><c>N </c><c>   3</c></rc>
    <rc><c>N </c><c>   3</c></rc>
    <rc><c>N </c><c>   3</c></rc>
    <rc><c>N </c><c>   3</c></rc>
    <rc><c>N </c><c>   3</c></rc>
    <rc><c>N </c><c>   3</c></rc>
    <rc><c>N </c><c>   3</c></rc>
    <rc><c>N </c><c>   3</c></rc>
    <rc><c>N </c><c>   3</c></rc>
    <rc><c>N </c><c>   3</c></rc>
    <rc><c>N </c><c>   3</c></rc>
    <rc><c>N </c><c>   3</c></rc>
    <rc><c>N </c><c>   3</c></rc>
    <rc><c>N </c><c>   3</c></rc>
    <rc><c>N </c><c>   3</c></rc>
    <rc><c>N </c><c>   3</c></rc>
    <rc><c>N </c><c>   3</c></rc>
    <rc><c>N </c><c>   3</c></rc>
    <rc><c>N </c><c>   3</c></rc>
    <rc><c>N </c><c>   3</c></rc>
    <rc><c>N </c><c>   3</c></rc>
    <rc><c>N </c><c>   3</c></rc>
    <rc><c>N </c><c>   3</c></rc>
    <rc><c>N </c><c>   3</c></rc>
    <rc><c>N </c><c>   3</c></rc>
    <rc><c>N </c><c>   3</c></rc>
    <rc><c>N </c><c>   3</c></rc>
    <rc><c>N </c><c>   3</c></rc>
    <rc><c>N </c><c>   3</c></rc>
    <rc><c>N </c><c>   3</c></rc>
    <rc><c>N </c><c>   3</c></rc>
    <rc><c>N </c><c>   3</c></rc>
    <rc><c>N </c><c>   3</c></rc>
    <rc><c>N </c><c>   3</c></rc>
    <rc><c>N </c><c>   3</c></rc>
    <rc><c>N </c><c>   3</c></rc>
    <rc><c>N </c><c>   3</c></rc>
    <rc><c>N </c><c>   3</c></rc>
    <rc><c>N </c><c>   3</c></rc>
    <rc><c>N </c><c>   3</c></rc>
    <rc><c>N </c><c>   3</c></rc>
    <rc><c>N </c><c>   3</c></rc>
    <rc><c>N </c><c>   3</c></rc>
    <rc><c>N </c><c>   3</c></rc>
    <rc><c>N </c><c>   3</c></rc>
    <rc><c>N </c><c>   3</c></rc>
    <rc><c>I </c><c>   4</c></rc>
    <rc><c>I </c><c>   4</c></rc>
    <rc><c>I </c><c>   4</c></rc>
    <rc><c>I </c><c>   4</c></rc>
    <rc><c>I </c><c>   4</c></rc>
    <rc><c>I </c><c>   4</c></rc>
    <rc><c>I </c><c>   4</c></rc>
    <rc><c>I </c><c>   4</c></rc>
    <rc><c>I </c><c>   4</c></rc>
    <rc><c>I </c><c>   4</c></rc>
    <rc><c>I </c><c>   4</c></rc>
    <rc><c>I </c><c>   4</c></rc>
    <rc><c>I </c><c>   4</c></rc>
    <rc><c>I </c><c>   4</c></rc>
    <rc><c>I </c><c>   4</c></rc>
    <rc><c>I </c><c>   4</c></rc>
    <rc><c>I </c><c>   4</c></rc>
    <rc><c>I </c><c>   4</c></rc>
    <rc><c>I </c><c>   4</c></rc>
    <rc><c>I </c><c>   4</c></rc>
    <rc><c>I </c><c>   4</c></rc>
    <rc><c>I </c><c>   4</c></rc>
    <rc><c>I </c><c>   4</c></rc>
    <rc><c>I </c><c>   4</c></rc>
    <rc><c>I </c><c>   4</c></rc>
    <rc><c>I </c><c>   4</c></rc>
    <rc><c>I </c><c>   4</c></rc>
    <rc><c>I </c><c>   4</c></rc>
    <rc><c>I </c><c>   4</c></rc>
    <rc><c>I </c><c>   4</c></rc>
    <rc><c>I </c><c>   4</c></rc>
    <rc><c>I </c><c>   4</c></rc>
    <rc><c>I </c><c>   4</c></rc>
    <rc><c>I </c><c>   4</c></rc>
    <rc><c>I </c><c>   4</c></rc>
    <rc><c>I </c><c>   4</c></rc>
    <rc><c>I </c><c>   4</c></rc>
    <rc><c>I </c><c>   4</c></rc>
    <rc><c>I </c><c>   4</c></rc>
    <rc><c>I </c><c>   4</c></rc>
    <rc><c>I </c><c>   4</c></rc>
    <rc><c>I </c><c>   4</c></rc>
    <rc><c>I </c><c>   4</c></rc>
    <rc><c>I </c><c>   4</c></rc>
    <rc><c>I </c><c>   4</c></rc>
    <rc><c>I </c><c>   4</c></rc>
    <rc><c>I </c><c>   4</c></rc>
    <rc><c>I </c><c>   4</c></rc>
    <rc><c>I </c><c>   4</c></rc>
    <rc><c>I </c><c>   4</c></rc>
    <rc><c>I </c><c>   4</c></rc>
    <rc><c>I </c><c>   4</c></rc>
    <rc><c>I </c><c>   4</c></rc>
    <rc><c>I </c><c>   4</c></rc>
    <rc><c>I </c><c>   4</c></rc>
    <rc><c>I </c><c>   4</c></rc>
    <rc><c>I </c><c>   4</c></rc>
    <rc><c>I </c><c>   4</c></rc>
    <rc><c>I </c><c>   4</c></rc>
    <rc><c>I </c><c>   4</c></rc>
    <rc><c>I </c><c>   4</c></rc>
    <rc><c>I </c><c>   4</c></rc>
    <rc><c>I </c><c>   4</c></rc>
    <rc><c>I </c><c>   4</c></rc>
    <rc><c>I </c><c>   4</c></rc>
    <rc><c>I </c><c>   4</c></rc>
    <rc><c>I </c><c>   4</c></rc>
    <rc><c>I </c><c>   4</c></rc>
    <rc><c>I </c><c>   4</c></rc>
    <rc><c>I </c><c>   4</c></rc>
    <rc><c>I </c><c>   4</c></rc>
    <rc><c>I </c><c>   4</c></rc>
    <rc><c>Pb</c><c>   5</c></rc>
    <rc><c>Pb</c><c>   5</c></rc>
    <rc><c>Pb</c><c>   5</c></rc>
    <rc><c>Pb</c><c>   5</c></rc>
    <rc><c>Pb</c><c>   5</c></rc>
    <rc><c>Pb</c><c>   5</c></rc>
    <rc><c>Pb</c><c>   5</c></rc>
    <rc><c>Pb</c><c>   5</c></rc>
    <rc><c>Pb</c><c>   5</c></rc>
    <rc><c>Pb</c><c>   5</c></rc>
    <rc><c>Pb</c><c>   5</c></rc>
    <rc><c>Pb</c><c>   5</c></rc>
    <rc><c>Pb</c><c>   5</c></rc>
    <rc><c>Pb</c><c>   5</c></rc>
    <rc><c>Pb</c><c>   5</c></rc>
    <rc><c>Pb</c><c>   5</c></rc>
    <rc><c>Pb</c><c>   5</c></rc>
    <rc><c>Pb</c><c>   5</c></rc>
    <rc><c>Pb</c><c>   5</c></rc>
    <rc><c>Pb</c><c>   5</c></rc>
    <rc><c>Pb</c><c>   5</c></rc>
    <rc><c>Pb</c><c>   5</c></rc>
    <rc><c>Pb</c><c>   5</c></rc>
    <rc><c>Pb</c><c>   5</c></rc>
   </set>
  </array>
  <array name="atomtypes" >
   <dimension dim="1">type</dimension>
   <field type="int">atomspertype</field>
   <field type="string">element</field>
   <field>mass</field>
   <field>valence</field>
   <field type="string">pseudopotential</field>
   <set>
    <rc><c> 143</c><c>H </c><c>      1.00000000</c><c>      1.00000000</c><c>  PAW_PBE H 15Jun2001                   </c></rc>
    <rc><c>  39</c><c>C </c><c>     12.01100000</c><c>      4.00000000</c><c>  PAW_PBE C 08Apr2002                   </c></rc>
    <rc><c>  47</c><c>N </c><c>     14.00100000</c><c>      5.00000000</c><c>  PAW_PBE N 08Apr2002                   </c></rc>
    <rc><c>  72</c><c>I </c><c>    126.90400000</c><c>      7.00000000</c><c>  PAW_PBE I 08Apr2002                   </c></rc>
    <rc><c>  24</c><c>Pb</c><c>    207.20000000</c><c>      4.00000000</c><c>  PAW_PBE Pb 08Apr2002                  </c></rc>
   </set>
  </array>
 </atominfo>
 <structure name="initialpos" >
  <crystal>
   <varray name="basis" >
    <v>      18.06080055       0.00000000       0.00000000 </v>
    <v>      -0.00491865      18.06279945       0.00000000 </v>
    <v>       0.00000000       0.00000000      62.48749924 </v>
   </varray>
   <i name="volume">  20385.21054034 </i>
   <varray name="rec_basis" >
    <v>       0.05536853       0.00001508      -0.00000000 </v>
    <v>       0.00000000       0.05536240       0.00000000 </v>
    <v>       0.00000000      -0.00000000       0.01600320 </v>
   </varray>
  </crystal>
  <varray name="positions" >
   <v>       0.45315550       0.33624605       0.56351255 </v>
   <v>       0.44285156       0.82905925       0.57229855 </v>
   <v>       0.96246658       0.32756872       0.57525965 </v>
   <v>       0.94058458       0.81811044       0.57256942 </v>
   <v>       0.33640982       0.95146367       0.57207896 </v>
   <v>       0.35168019       0.54878724       0.55768808 </v>
   <v>       0.80727571       0.08860055       0.56122743 </v>
   <v>       0.01341544       0.14257056       0.55880415 </v>
   <v>       0.07440620       0.66846374       0.57061975 </v>
   <v>       0.55161130       0.15978207       0.55967249 </v>
   <v>       0.49570550       0.64122393       0.55839513 </v>
   <v>       0.36979074       0.02629590       0.55761666 </v>
   <v>       0.29634902       0.62749658       0.55256847 </v>
   <v>       0.87940446       0.02751301       0.55427077 </v>
   <v>       0.95675511       0.19021502       0.57667803 </v>
   <v>       0.99023248       0.69325438       0.58215861 </v>
   <v>       0.56611774       0.25222951       0.56744589 </v>
   <v>       0.44159300       0.69124310       0.57601084 </v>
   <v>       0.27899345       0.43741769       0.57181933 </v>
   <v>       0.20188328       0.92934749       0.57257522 </v>
   <v>       0.68651597       0.02853951       0.57105532 </v>
   <v>       0.37215809       0.28971990       0.55554056 </v>
   <v>       0.50490921       0.86674451       0.55418976 </v>
   <v>       0.02185142       0.36778774       0.55644638 </v>
   <v>       0.99149019       0.86865489       0.55394270 </v>
   <v>       0.18324474       0.44568384       0.56931059 </v>
   <v>       0.14670350       0.99384918       0.55970277 </v>
   <v>       0.68243914       0.93267374       0.56629942 </v>
   <v>       0.42979336       0.17848556       0.55102336 </v>
   <v>       0.54530930       0.74958673       0.54251684 </v>
   <v>       0.06425088       0.25068716       0.54453042 </v>
   <v>       0.08260321       0.77742695       0.55056697 </v>
   <v>       0.18662132       0.56448337       0.55700972 </v>
   <v>       0.24780756       0.06578565       0.54866870 </v>
   <v>       0.80248105       0.92302701       0.55616629 </v>
   <v>       0.48652750       0.33912939       0.65818542 </v>
   <v>       0.44749290       0.80796652       0.67401378 </v>
   <v>       0.96315723       0.28752623       0.67560315 </v>
   <v>       0.92832139       0.72484820       0.67251012 </v>
   <v>       0.30505645       0.05705993       0.66994631 </v>
   <v>       0.29765063       0.54939119       0.67485190 </v>
   <v>       0.80197461       0.05817976       0.67390823 </v>
   <v>       0.77205151       0.59634477       0.65558358 </v>
   <v>       0.08572163       0.16329922       0.64511469 </v>
   <v>       0.11752406       0.72257204       0.65243237 </v>
   <v>       0.56330300       0.15160878       0.65541320 </v>
   <v>       0.56791050       0.66838835       0.64945448 </v>
   <v>       0.17581948       0.41575580       0.64765932 </v>
   <v>       0.17077253       0.91973364       0.65049479 </v>
   <v>       0.69219844       0.40997255       0.65645472 </v>
   <v>       0.67448065       0.92144759       0.65102279 </v>
   <v>       0.06326426       0.18369204       0.67167041 </v>
   <v>       0.05863410       0.67663609       0.66991774 </v>
   <v>       0.59263455       0.24301930       0.65869638 </v>
   <v>       0.53944985       0.69683522       0.67467571 </v>
   <v>       0.19878809       0.44431611       0.67358162 </v>
   <v>       0.20405563       0.95471912       0.67455441 </v>
   <v>       0.66489757       0.50261106       0.65663365 </v>
   <v>       0.69881849       0.95886112       0.67577341 </v>
   <v>       0.39795037       0.30027698       0.65585371 </v>
   <v>       0.42835272       0.84128615       0.64844165 </v>
   <v>       0.93462449       0.32532004       0.65128676 </v>
   <v>       0.90562006       0.79690968       0.65517151 </v>
   <v>       0.32604372       0.07701937       0.64324658 </v>
   <v>       0.32771860       0.57823400       0.64971632 </v>
   <v>       0.83429219       0.07625218       0.64810827 </v>
   <v>       0.86035967       0.55634729       0.65419090 </v>
   <v>       0.00720670       0.25129143       0.63061582 </v>
   <v>       0.02406078       0.80325665       0.64048766 </v>
   <v>       0.44003809       0.18088713       0.65340376 </v>
   <v>       0.50196827       0.75584632       0.63120785 </v>
   <v>       0.24401586       0.99284996       0.62931532 </v>
   <v>       0.25513946       0.49602644       0.63105981 </v>
   <v>       0.75792673       0.99126823       0.63190495 </v>
   <v>       0.81669059       0.43624081       0.65476524 </v>
   <v>       0.44874502       0.30128397       0.76888902 </v>
   <v>       0.44874501       0.80128391       0.76888902 </v>
   <v>       0.94874497       0.30128397       0.76888902 </v>
   <v>       0.94874501       0.80128391       0.76888902 </v>
   <v>       0.30127600       0.05129450       0.76887296 </v>
   <v>       0.30127601       0.55129450       0.76887296 </v>
   <v>       0.80127594       0.05129450       0.76887296 </v>
   <v>       0.80127598       0.55129450       0.76887296 </v>
   <v>       0.07877100       0.17118050       0.74344197 </v>
   <v>       0.07877101       0.67118045       0.74344197 </v>
   <v>       0.57877100       0.17118050       0.74344197 </v>
   <v>       0.57877099       0.67118045       0.74344197 </v>
   <v>       0.17119950       0.42117448       0.74342103 </v>
   <v>       0.17119950       0.92117451       0.74342103 </v>
   <v>       0.67119951       0.42117448       0.74342103 </v>
   <v>       0.67119950       0.92117451       0.74342103 </v>
   <v>       0.05125600       0.19871499       0.76888902 </v>
   <v>       0.05125600       0.69871493       0.76888902 </v>
   <v>       0.55125603       0.19871499       0.76888902 </v>
   <v>       0.55125602       0.69871493       0.76888902 </v>
   <v>       0.19872349       0.44870397       0.76887205 </v>
   <v>       0.19872349       0.94870397       0.76887205 </v>
   <v>       0.69872352       0.44870397       0.76887205 </v>
   <v>       0.69872351       0.94870397       0.76887205 </v>
   <v>       0.42123152       0.32881747       0.74344197 </v>
   <v>       0.42123151       0.82881744       0.74344197 </v>
   <v>       0.92123147       0.32881747       0.74344197 </v>
   <v>       0.92123151       0.82881744       0.74344197 </v>
   <v>       0.32880050       0.07882500       0.74342103 </v>
   <v>       0.32880049       0.57882496       0.74342103 </v>
   <v>       0.82880048       0.07882500       0.74342103 </v>
   <v>       0.82880052       0.57882496       0.74342103 </v>
   <v>       0.00000350       0.25000148       0.72582199 </v>
   <v>       0.00000350       0.75000145       0.72582199 </v>
   <v>       0.50000351       0.25000148       0.72582199 </v>
   <v>       0.50000350       0.75000145       0.72582199 </v>
   <v>       0.25000050       0.00000000       0.72580398 </v>
   <v>       0.25000052       0.50000000       0.72580398 </v>
   <v>       0.75000050       0.00000000       0.72580398 </v>
   <v>       0.75000049       0.50000000       0.72580398 </v>
   <v>       0.77495484       0.55634069       0.51806132 </v>
   <v>       0.71881177       0.47888995       0.52407217 </v>
   <v>       0.86850120       0.50173124       0.53748488 </v>
   <v>       0.86077057       0.48513148       0.56515814 </v>
   <v>       0.74355646       0.64176521       0.55896928 </v>
   <v>       0.81325787       0.59867194       0.57456176 </v>
   <v>       0.66653410       0.54698409       0.56791559 </v>
   <v>       0.68174687       0.45513410       0.55945778 </v>
   <v>       0.61667354       0.56127427       0.53629153 </v>
   <v>       0.67418730       0.64011127       0.53361692 </v>
   <v>       0.60534825       0.64525968       0.50218464 </v>
   <v>       0.68707655       0.60155031       0.49346210 </v>
   <v>       0.78961631       0.39010076       0.52926113 </v>
   <v>       0.77691346       0.37360330       0.55706619 </v>
   <v>       0.86568428       0.36731966       0.54576309 </v>
   <v>       0.86132402       0.69711040       0.55139019 </v>
   <v>       0.83573499       0.65072445       0.52793610 </v>
   <v>       0.90507496       0.61192226       0.54529064 </v>
   <v>       0.77078701       0.53132878       0.59593804 </v>
   <v>       0.77563071       0.43682758       0.58832403 </v>
   <v>       0.69384051       0.47295147       0.59940718 </v>
   <v>       0.53942436       0.52667240       0.50467626 </v>
   <v>       0.57282846       0.54372458       0.47858089 </v>
   <v>       0.70438444       0.47956349       0.46993176 </v>
   <v>       0.55627890       0.41040702       0.52013089 </v>
   <v>       0.76775294       0.35808276       0.47144253 </v>
   <v>       0.62127157       0.28865795       0.52191945 </v>
   <v>       0.72761912       0.26266123       0.49797509 </v>
   <v>       0.02082377       0.25458907       0.55665834 </v>
   <v>       0.03405111       0.76742580       0.56067922 </v>
   <v>       0.46307111       0.22552037       0.55639315 </v>
   <v>       0.50211425       0.75363805       0.55467698 </v>
   <v>       0.23878502       0.53578950       0.55975063 </v>
   <v>       0.25702473       0.01459671       0.55762716 </v>
   <v>       0.78114513       0.97784316       0.56019731 </v>
   <v>       0.00992412       0.24430640       0.64798965 </v>
   <v>       0.01197426       0.76193331       0.65275464 </v>
   <v>       0.48009464       0.22528070       0.65564957 </v>
   <v>       0.49818103       0.75443297       0.64875744 </v>
   <v>       0.25213066       0.49648415       0.64851484 </v>
   <v>       0.24843668       0.99809434       0.64670815 </v>
   <v>       0.77718493       0.48200095       0.65526577 </v>
   <v>       0.75473035       0.99833439       0.64927971 </v>
   <v>       0.49998898       0.24999498       0.74327702 </v>
   <v>       0.49998903       0.74999496       0.74327702 </v>
   <v>       0.99998898       0.24999498       0.74327702 </v>
   <v>       0.99998903       0.74999496       0.74327702 </v>
   <v>       0.25000050       0.00000100       0.74325596 </v>
   <v>       0.25000052       0.50000100       0.74325596 </v>
   <v>       0.75000050       0.00000100       0.74325596 </v>
   <v>       0.75000049       0.50000100       0.74325596 </v>
   <v>       0.62649872       0.45412096       0.49509365 </v>
   <v>       0.68587206       0.43814519       0.48130568 </v>
   <v>       0.60294511       0.39883290       0.50946555 </v>
   <v>       0.72167182       0.36936470       0.48222841 </v>
   <v>       0.63896615       0.33057410       0.51042662 </v>
   <v>       0.69887298       0.31580157       0.49692025 </v>
   <v>       0.73112392       0.53592002       0.52880615 </v>
   <v>       0.83185879       0.47896941       0.54980052 </v>
   <v>       0.79265467       0.60624999       0.55823965 </v>
   <v>       0.70856176       0.50335118       0.56684299 </v>
   <v>       0.66282198       0.58507743       0.52711611 </v>
   <v>       0.63780307       0.59375404       0.50369752 </v>
   <v>       0.81368176       0.39872416       0.54518918 </v>
   <v>       0.85215082       0.64182281       0.54464721 </v>
   <v>       0.73996414       0.48531844       0.58862164 </v>
   <v>       0.58997056       0.52961523       0.49498899 </v>
   <v>       0.99449389       0.19246479       0.56447777 </v>
   <v>       0.03220707       0.70563581       0.57155811 </v>
   <v>       0.53315285       0.21323213       0.56042331 </v>
   <v>       0.47681320       0.69210376       0.56311037 </v>
   <v>       0.42871491       0.28960892       0.55779461 </v>
   <v>       0.48005535       0.82011897       0.56012705 </v>
   <v>       0.99825776       0.32054589       0.56252242 </v>
   <v>       0.98180565       0.81844586       0.56120172 </v>
   <v>       0.23441033       0.46667562       0.56611714 </v>
   <v>       0.19894834       0.97594229       0.56331482 </v>
   <v>       0.71105857       0.98117872       0.56572564 </v>
   <v>       0.32539415       0.99596184       0.56230803 </v>
   <v>       0.30010283       0.57235080       0.55602192 </v>
   <v>       0.82588998       0.03492330       0.55913539 </v>
   <v>       0.05493500       0.19423892       0.65561606 </v>
   <v>       0.06445421       0.71574097       0.65814836 </v>
   <v>       0.54986786       0.20641874       0.65681484 </v>
   <v>       0.53673784       0.70316239       0.65853900 </v>
   <v>       0.20580539       0.44992354       0.65747086 </v>
   <v>       0.20521339       0.95518666       0.65820337 </v>
   <v>       0.70667493       0.46474444       0.65566618 </v>
   <v>       0.70676343       0.95697539       0.65959061 </v>
   <v>       0.45413532       0.29316476       0.65670667 </v>
   <v>       0.45595532       0.80434951       0.65786119 </v>
   <v>       0.96677902       0.28807242       0.65929044 </v>
   <v>       0.94482514       0.76160839       0.66083976 </v>
   <v>       0.29625665       0.04666221       0.65408389 </v>
   <v>       0.29539061       0.54374063       0.65857844 </v>
   <v>       0.79935120       0.04740792       0.65793598 </v>
   <v>       0.80413276       0.54936131       0.65545367 </v>
   <v>       0.04586250       0.20411950       0.75272599 </v>
   <v>       0.04586250       0.70411946       0.75272599 </v>
   <v>       0.54586251       0.20411950       0.75272599 </v>
   <v>       0.54586250       0.70411946       0.75272599 </v>
   <v>       0.20411900       0.45410100       0.75270499 </v>
   <v>       0.20411899       0.95410095       0.75270499 </v>
   <v>       0.70411898       0.45410100       0.75270499 </v>
   <v>       0.70411896       0.95410095       0.75270499 </v>
   <v>       0.45414002       0.29588849       0.75272697 </v>
   <v>       0.45414001       0.79588852       0.75272697 </v>
   <v>       0.95414002       0.29588849       0.75272697 </v>
[...]
   <v>       0.55161130       0.15978207       0.55967249 </v>
   <v>       0.49570550       0.64122393       0.55839513 </v>
   <v>       0.36979074       0.02629590       0.55761666 </v>
   <v>       0.29634902       0.62749658       0.55256847 </v>
   <v>       0.87940446       0.02751301       0.55427077 </v>
   <v>       0.95675511       0.19021502       0.57667803 </v>
   <v>       0.99023248       0.69325438       0.58215861 </v>
   <v>       0.56611774       0.25222951       0.56744589 </v>
   <v>       0.44159300       0.69124310       0.57601084 </v>
   <v>       0.27899345       0.43741769       0.57181933 </v>
   <v>       0.20188328       0.92934749       0.57257522 </v>
   <v>       0.68651597       0.02853951       0.57105532 </v>
   <v>       0.37215809       0.28971990       0.55554056 </v>
   <v>       0.50490921       0.86674451       0.55418976 </v>
   <v>       0.02185142       0.36778774       0.55644638 </v>
   <v>       0.99149019       0.86865489       0.55394270 </v>
   <v>       0.18324474       0.44568384       0.56931059 </v>
   <v>       0.14670350       0.99384918       0.55970277 </v>
   <v>       0.68243914       0.93267374       0.56629942 </v>
   <v>       0.42979336       0.17848556       0.55102336 </v>
   <v>       0.54530930       0.74958673       0.54251684 </v>
   <v>       0.06425088       0.25068716       0.54453042 </v>
   <v>       0.08260321       0.77742695       0.55056697 </v>
   <v>       0.18662132       0.56448337       0.55700972 </v>
   <v>       0.24780756       0.06578565       0.54866870 </v>
   <v>       0.80248105       0.92302701       0.55616629 </v>
   <v>       0.48652750       0.33912939       0.65818542 </v>
   <v>       0.44749290       0.80796652       0.67401378 </v>
   <v>       0.96315723       0.28752623       0.67560315 </v>
   <v>       0.92832139       0.72484820       0.67251012 </v>
   <v>       0.30505645       0.05705993       0.66994631 </v>
   <v>       0.29765063       0.54939119       0.67485190 </v>
   <v>       0.80197461       0.05817976       0.67390823 </v>
   <v>       0.77205151       0.59634477       0.65558358 </v>
   <v>       0.08572163       0.16329922       0.64511469 </v>
   <v>       0.11752406       0.72257204       0.65243237 </v>
   <v>       0.56330300       0.15160878       0.65541320 </v>
   <v>       0.56791050       0.66838835       0.64945448 </v>
   <v>       0.17581948       0.41575580       0.64765932 </v>
   <v>       0.17077253       0.91973364       0.65049479 </v>
   <v>       0.69219844       0.40997255       0.65645472 </v>
   <v>       0.67448065       0.92144759       0.65102279 </v>
   <v>       0.06326426       0.18369204       0.67167041 </v>
   <v>       0.05863410       0.67663609       0.66991774 </v>
   <v>       0.59263455       0.24301930       0.65869638 </v>
   <v>       0.53944985       0.69683522       0.67467571 </v>
   <v>       0.19878809       0.44431611       0.67358162 </v>
   <v>       0.20405563       0.95471912       0.67455441 </v>
   <v>       0.66489757       0.50261106       0.65663365 </v>
   <v>       0.69881849       0.95886112       0.67577341 </v>
   <v>       0.39795037       0.30027698       0.65585371 </v>
   <v>       0.42835272       0.84128615       0.64844165 </v>
   <v>       0.93462449       0.32532004       0.65128676 </v>
   <v>       0.90562006       0.79690968       0.65517151 </v>
   <v>       0.32604372       0.07701937       0.64324658 </v>
   <v>       0.32771860       0.57823400       0.64971632 </v>
   <v>       0.83429219       0.07625218       0.64810827 </v>
   <v>       0.86035967       0.55634729       0.65419090 </v>
   <v>       0.00720670       0.25129143       0.63061582 </v>
   <v>       0.02406078       0.80325665       0.64048766 </v>
   <v>       0.44003809       0.18088713       0.65340376 </v>
   <v>       0.50196827       0.75584632       0.63120785 </v>
   <v>       0.24401586       0.99284996       0.62931532 </v>
   <v>       0.25513946       0.49602644       0.63105981 </v>
   <v>       0.75792673       0.99126823       0.63190495 </v>
   <v>       0.81669059       0.43624081       0.65476524 </v>
   <v>       0.44874502       0.30128397       0.76888902 </v>
   <v>       0.44874501       0.80128391       0.76888902 </v>
   <v>       0.94874497       0.30128397       0.76888902 </v>
   <v>       0.94874501       0.80128391       0.76888902 </v>
   <v>       0.30127600       0.05129450       0.76887296 </v>
   <v>       0.30127601       0.55129450       0.76887296 </v>
   <v>       0.80127594       0.05129450       0.76887296 </v>
   <v>       0.80127598       0.55129450       0.76887296 </v>
   <v>       0.07877100       0.17118050       0.74344197 </v>
   <v>       0.07877101       0.67118045       0.74344197 </v>
   <v>       0.57877100       0.17118050       0.74344197 </v>
   <v>       0.57877099       0.67118045       0.74344197 </v>
   <v>       0.17119950       0.42117448       0.74342103 </v>
   <v>       0.17119950       0.92117451       0.74342103 </v>
   <v>       0.67119951       0.42117448       0.74342103 </v>
   <v>       0.67119950       0.92117451       0.74342103 </v>
   <v>       0.05125600       0.19871499       0.76888902 </v>
   <v>       0.05125600       0.69871493       0.76888902 </v>
   <v>       0.55125603       0.19871499       0.76888902 </v>
   <v>       0.55125602       0.69871493       0.76888902 </v>
   <v>       0.19872349       0.44870397       0.76887205 </v>
   <v>       0.19872349       0.94870397       0.76887205 </v>
   <v>       0.69872352       0.44870397       0.76887205 </v>
   <v>       0.69872351       0.94870397       0.76887205 </v>
   <v>       0.42123152       0.32881747       0.74344197 </v>
   <v>       0.42123151       0.82881744       0.74344197 </v>
   <v>       0.92123147       0.32881747       0.74344197 </v>
   <v>       0.92123151       0.82881744       0.74344197 </v>
   <v>       0.32880050       0.07882500       0.74342103 </v>
   <v>       0.32880049       0.57882496       0.74342103 </v>
   <v>       0.82880048       0.07882500       0.74342103 </v>
   <v>       0.82880052       0.57882496       0.74342103 </v>
   <v>       0.00000350       0.25000148       0.72582199 </v>
   <v>       0.00000350       0.75000145       0.72582199 </v>
   <v>       0.50000351       0.25000148       0.72582199 </v>
   <v>       0.50000350       0.75000145       0.72582199 </v>
   <v>       0.25000050       0.00000000       0.72580398 </v>
   <v>       0.25000052       0.50000000       0.72580398 </v>
   <v>       0.75000050       0.00000000       0.72580398 </v>
   <v>       0.75000049       0.50000000       0.72580398 </v>
   <v>       0.77495484       0.55634069       0.51806132 </v>
   <v>       0.71881177       0.47888995       0.52407217 </v>
   <v>       0.86850120       0.50173124       0.53748488 </v>
   <v>       0.86077057       0.48513148       0.56515814 </v>
   <v>       0.74355646       0.64176521       0.55896928 </v>
   <v>       0.81325787       0.59867194       0.57456176 </v>
   <v>       0.66653410       0.54698409       0.56791559 </v>
   <v>       0.68174687       0.45513410       0.55945778 </v>
   <v>       0.61667354       0.56127427       0.53629153 </v>
   <v>       0.67418730       0.64011127       0.53361692 </v>
   <v>       0.60534825       0.64525968       0.50218464 </v>
   <v>       0.68707655       0.60155031       0.49346210 </v>
   <v>       0.78961631       0.39010076       0.52926113 </v>
   <v>       0.77691346       0.37360330       0.55706619 </v>
   <v>       0.86568428       0.36731966       0.54576309 </v>
   <v>       0.86132402       0.69711040       0.55139019 </v>
   <v>       0.83573499       0.65072445       0.52793610 </v>
   <v>       0.90507496       0.61192226       0.54529064 </v>
   <v>       0.77078701       0.53132878       0.59593804 </v>
   <v>       0.77563071       0.43682758       0.58832403 </v>
   <v>       0.69384051       0.47295147       0.59940718 </v>
   <v>       0.53942436       0.52667240       0.50467626 </v>
   <v>       0.57282846       0.54372458       0.47858089 </v>
   <v>       0.70438444       0.47956349       0.46993176 </v>
   <v>       0.55627890       0.41040702       0.52013089 </v>
   <v>       0.76775294       0.35808276       0.47144253 </v>
   <v>       0.62127157       0.28865795       0.52191945 </v>
   <v>       0.72761912       0.26266123       0.49797509 </v>
   <v>       0.02082377       0.25458907       0.55665834 </v>
   <v>       0.03405111       0.76742580       0.56067922 </v>
   <v>       0.46307111       0.22552037       0.55639315 </v>
   <v>       0.50211425       0.75363805       0.55467698 </v>
   <v>       0.23878502       0.53578950       0.55975063 </v>
   <v>       0.25702473       0.01459671       0.55762716 </v>
   <v>       0.78114513       0.97784316       0.56019731 </v>
   <v>       0.00992412       0.24430640       0.64798965 </v>
   <v>       0.01197426       0.76193331       0.65275464 </v>
   <v>       0.48009464       0.22528070       0.65564957 </v>
   <v>       0.49818103       0.75443297       0.64875744 </v>
   <v>       0.25213066       0.49648415       0.64851484 </v>
   <v>       0.24843668       0.99809434       0.64670815 </v>
   <v>       0.77718493       0.48200095       0.65526577 </v>
   <v>       0.75473035       0.99833439       0.64927971 </v>
   <v>       0.49998898       0.24999498       0.74327702 </v>
   <v>       0.49998903       0.74999496       0.74327702 </v>
   <v>       0.99998898       0.24999498       0.74327702 </v>
   <v>       0.99998903       0.74999496       0.74327702 </v>
   <v>       0.25000050       0.00000100       0.74325596 </v>
   <v>       0.25000052       0.50000100       0.74325596 </v>
   <v>       0.75000050       0.00000100       0.74325596 </v>
   <v>       0.75000049       0.50000100       0.74325596 </v>
   <v>       0.62649872       0.45412096       0.49509365 </v>
   <v>       0.68587206       0.43814519       0.48130568 </v>
   <v>       0.60294511       0.39883290       0.50946555 </v>
   <v>       0.72167182       0.36936470       0.48222841 </v>
   <v>       0.63896615       0.33057410       0.51042662 </v>
   <v>       0.69887298       0.31580157       0.49692025 </v>
   <v>       0.73112392       0.53592002       0.52880615 </v>
   <v>       0.83185879       0.47896941       0.54980052 </v>
   <v>       0.79265467       0.60624999       0.55823965 </v>
   <v>       0.70856176       0.50335118       0.56684299 </v>
   <v>       0.66282198       0.58507743       0.52711611 </v>
   <v>       0.63780307       0.59375404       0.50369752 </v>
   <v>       0.81368176       0.39872416       0.54518918 </v>
   <v>       0.85215082       0.64182281       0.54464721 </v>
   <v>       0.73996414       0.48531844       0.58862164 </v>
   <v>       0.58997056       0.52961523       0.49498899 </v>
   <v>       0.99449389       0.19246479       0.56447777 </v>
   <v>       0.03220707       0.70563581       0.57155811 </v>
   <v>       0.53315285       0.21323213       0.56042331 </v>
   <v>       0.47681320       0.69210376       0.56311037 </v>
   <v>       0.42871491       0.28960892       0.55779461 </v>
   <v>       0.48005535       0.82011897       0.56012705 </v>
   <v>       0.99825776       0.32054589       0.56252242 </v>
   <v>       0.98180565       0.81844586       0.56120172 </v>
   <v>       0.23441033       0.46667562       0.56611714 </v>
   <v>       0.19894834       0.97594229       0.56331482 </v>
   <v>       0.71105857       0.98117872       0.56572564 </v>
   <v>       0.32539415       0.99596184       0.56230803 </v>
   <v>       0.30010283       0.57235080       0.55602192 </v>
   <v>       0.82588998       0.03492330       0.55913539 </v>
   <v>       0.05493500       0.19423892       0.65561606 </v>
   <v>       0.06445421       0.71574097       0.65814836 </v>
   <v>       0.54986786       0.20641874       0.65681484 </v>
   <v>       0.53673784       0.70316239       0.65853900 </v>
   <v>       0.20580539       0.44992354       0.65747086 </v>
   <v>       0.20521339       0.95518666       0.65820337 </v>
   <v>       0.70667493       0.46474444       0.65566618 </v>
   <v>       0.70676343       0.95697539       0.65959061 </v>
   <v>       0.45413532       0.29316476       0.65670667 </v>
   <v>       0.45595532       0.80434951       0.65786119 </v>
   <v>       0.96677902       0.28807242       0.65929044 </v>
   <v>       0.94482514       0.76160839       0.66083976 </v>
   <v>       0.29625665       0.04666221       0.65408389 </v>
   <v>       0.29539061       0.54374063       0.65857844 </v>
   <v>       0.79935120       0.04740792       0.65793598 </v>
   <v>       0.80413276       0.54936131       0.65545367 </v>
   <v>       0.04586250       0.20411950       0.75272599 </v>
   <v>       0.04586250       0.70411946       0.75272599 </v>
   <v>       0.54586251       0.20411950       0.75272599 </v>
   <v>       0.54586250       0.70411946       0.75272599 </v>
   <v>       0.20411900       0.45410100       0.75270499 </v>
   <v>       0.20411899       0.95410095       0.75270499 </v>
   <v>       0.70411898       0.45410100       0.75270499 </v>
   <v>       0.70411896       0.95410095       0.75270499 </v>
   <v>       0.45414002       0.29588849       0.75272697 </v>
   <v>       0.45414001       0.79588852       0.75272697 </v>
   <v>       0.95414002       0.29588849       0.75272697 </v>
   <v>       0.95414006       0.79588852       0.75272697 </v>
   <v>       0.29588249       0.04590050       0.75270499 </v>
   <v>       0.29588248       0.54590053       0.75270499 </v>
   <v>       0.79588244       0.04590050       0.75270499 </v>
   <v>       0.79588248       0.54590053       0.75270499 </v>
   <v>       0.76602236       0.53105915       0.55088606 </v>
   <v>       0.51711814       0.01464156       0.55243166 </v>
   <v>       0.48342243       0.49519419       0.55401895 </v>
   <v>       0.01590057       0.00617858       0.54841993 </v>
   <v>       0.03664181       0.50920644       0.55321545 </v>
   <v>       0.23682913       0.24080979       0.55217227 </v>
   <v>       0.25398032       0.76639957       0.55330647 </v>
   <v>       0.73889955       0.20703320       0.55404429 </v>
   <v>       0.70059154       0.79107036       0.55399313 </v>
   <v>       0.00063911       0.98489398       0.65361663 </v>
   <v>       0.99796191       0.50611920       0.65466903 </v>
   <v>       0.49575679       0.01020120       0.65456366 </v>
   <v>       0.50690780       0.48873635       0.65473160 </v>
   <v>       0.25866146       0.24716632       0.65423120 </v>
   <v>       0.25919760       0.75380938       0.65447978 </v>
   <v>       0.74433726       0.26616885       0.65410684 </v>
   <v>       0.74451491       0.74206216       0.65412406 </v>
   <v>       0.13400461       0.11191476       0.60735738 </v>
   <v>       0.14625043       0.60866649       0.60838829 </v>
   <v>       0.64756353       0.10568712       0.61002637 </v>
   <v>       0.61636344       0.62800143       0.60827871 </v>
   <v>       0.35741608       0.38774551       0.60506182 </v>
   <v>       0.37486915       0.87981691       0.60646896 </v>
   <v>       0.88990924       0.36446460       0.60853907 </v>
   <v>       0.86694420       0.87928962       0.60478668 </v>
   <v>       0.11978362       0.36742106       0.60902538 </v>
   <v>       0.12386657       0.86807517       0.60767641 </v>
   <v>       0.59417264       0.33930074       0.60135478 </v>
   <v>       0.61639002       0.87083570       0.61299571 </v>
   <v>       0.38601764       0.13476929       0.60559226 </v>
   <v>       0.38449928       0.62904339       0.60984085 </v>
   <v>       0.88597594       0.13269380       0.61061426 </v>
   <v>       0.89472064       0.64616864       0.60932683 </v>
   <v>       0.00000000       0.00000000       0.75492797 </v>
   <v>       0.00000000       0.50000000       0.75492797 </v>
   <v>       0.50000000       0.00000000       0.75492797 </v>
   <v>       0.49999999       0.50000000       0.75492797 </v>
   <v>       0.25000050       0.25000000       0.75493902 </v>
   <v>       0.25000051       0.74999997       0.75493902 </v>
   <v>       0.75000047       0.25000000       0.75493902 </v>
   <v>       0.75000046       0.74999997       0.75493902 </v>
   <v>       0.13579050       0.11421000       0.70478299 </v>
   <v>       0.13579050       0.61420998       0.70478299 </v>
   <v>       0.63579045       0.11421000       0.70478299 </v>
   <v>       0.63579049       0.61420998       0.70478299 </v>
   <v>       0.36420952       0.38578999       0.70478299 </v>
   <v>       0.36420950       0.88578996       0.70478299 </v>
   <v>       0.86420954       0.38578999       0.70478299 </v>
   <v>       0.86420953       0.88578996       0.70478299 </v>
   <v>       0.11421799       0.36421899       0.70478098 </v>
   <v>       0.11421799       0.86421899       0.70478098 </v>
   <v>       0.61421800       0.36421899       0.70478098 </v>
   <v>       0.61421799       0.86421899       0.70478098 </v>
   <v>       0.38578201       0.13578149       0.70478202 </v>
   <v>       0.38578200       0.63578149       0.70478202 </v>
   <v>       0.88578199       0.13578149       0.70478202 </v>
   <v>       0.88578203       0.63578149       0.70478202 </v>
   <v>       0.13466700       0.11533200       0.80125603 </v>
   <v>       0.13466699       0.61533199       0.80125603 </v>
   <v>       0.63466699       0.11533200       0.80125603 </v>
   <v>       0.63466698       0.61533199       0.80125603 </v>
   <v>       0.36533300       0.38466799       0.80125603 </v>
   <v>       0.36533299       0.88466796       0.80125603 </v>
   <v>       0.86533295       0.38466799       0.80125603 </v>
   <v>       0.86533294       0.88466796       0.80125603 </v>
   <v>       0.11532850       0.36533700       0.80126500 </v>
   <v>       0.11532850       0.86533698       0.80126500 </v>
   <v>       0.61532850       0.36533700       0.80126500 </v>
   <v>       0.61532849       0.86533698       0.80126500 </v>
   <v>       0.38467151       0.13466300       0.80126500 </v>
   <v>       0.38467150       0.63466297       0.80126500 </v>
   <v>       0.88467149       0.13466300       0.80126500 </v>
   <v>       0.88467153       0.63466297       0.80126500 </v>
   <v>       0.99959819       0.99876149       0.60470603 </v>
   <v>       0.00414196       0.50456716       0.60411619 </v>
   <v>       0.50568713       0.00727697       0.60384746 </v>
   <v>       0.49924259       0.49131932       0.60413689 </v>
   <v>       0.24777870       0.24686984       0.60250534 </v>
   <v>       0.25246611       0.74657266       0.60344485 </v>
   <v>       0.74589259       0.24582761       0.60238568 </v>
   <v>       0.73816866       0.75503909       0.60253061 </v>
   <v>       0.00000050       0.00000050       0.70482896 </v>
   <v>       0.00000050       0.50000048       0.70482896 </v>
   <v>       0.50000048       0.00000050       0.70482896 </v>
   <v>       0.50000046       0.50000048       0.70482896 </v>
   <v>       0.24999999       0.24999947       0.70482499 </v>
   <v>       0.25000001       0.74999950       0.70482499 </v>
   <v>       0.74999999       0.24999947       0.70482499 </v>
   <v>       0.74999998       0.74999950       0.70482499 </v>
   <v>       0.00000000       0.00000000       0.80731797 </v>
   <v>       0.00000000       0.50000000       0.80731797 </v>
   <v>       0.50000000       0.00000000       0.80731797 </v>
   <v>       0.49999999       0.50000000       0.80731797 </v>
   <v>       0.24999999       0.25000000       0.80731797 </v>
   <v>       0.25000001       0.74999997       0.80731797 </v>
   <v>       0.74999999       0.25000000       0.80731797 </v>
   <v>       0.74999998       0.74999997       0.80731797 </v>
  </varray>
 </structure>
</modeling>
