 vasp.6.2.1 16May21 (build Nov 15 2021 14:57:28) complex                         
 executed on             LinuxPGI date 2023.07.30  16:32:14
 running on    4 total cores
 distrk:  each k-point on    4 cores,    1 groups
 distr:  one band on NCORE=   1 cores,    4 groups


--------------------------------------------------------------------------------------------------------


 INCAR:
   SYSTEM = PSC
   ISTART = 1
   ICHARG = 1
   PREC = Normal
   ENCUT = 500
   GGA_COMPAT = F
   NELM = 600
   ISYM = 0
   LREAL = Auto
   ISMEAR = 0
   SIGMA = 0.05
   AMIN = 0.01
   BMIX = 0.01
   LVTOT = T
   LWAVE = F
   LDIPOL = T
   IDIPOL = 3
   LVDW = T
   IVDW = 12

 POTCAR:    PAW_PBE H 15Jun2001                   
 POTCAR:    PAW_PBE C 08Apr2002                   
 POTCAR:    PAW_PBE N 08Apr2002                   
 POTCAR:    PAW_PBE I 08Apr2002                   
 POTCAR:    PAW_PBE Pb 08Apr2002                  
 WARNING: For LVTOT=.TRUE., VASP.5.x writes the TOTAL local potential to the
     file LOCPOT. If you want only the Hartree contributions, use LVHAR=.TRUE.
     instead. 

 POTCAR:    PAW_PBE H 15Jun2001                   
   SHA256 =  030f79b5d3ab3cf0e668861823c8fb652ff669f3e15e46930bd03bfd63a607b6 H/POTCAR              
   COPYR  = (c) Copyright 15Jun2001 Georg Kresse                                                    
   COPYR  = This file is part of the software VASP. Any use, copying, and all other rights are regul
   COPYR  = If you do not have a valid VASP license, you may not use, copy or distribute this file. 
   VRHFIN =H: ultrasoft test                                                                        
   LEXCH  = PE                                                                                      
   EATOM  =    12.4884 eV,    0.9179 Ry                                                             
                                                                                                    
   TITEL  = PAW_PBE H 15Jun2001                                                                     
   LULTRA =        F    use ultrasoft PP ?                                                          
   IUNSCR =        0    unscreen: 0-lin 1-nonlin 2-no                                               
   RPACOR =    0.000    partial core radius                                                         
   POMASS =    1.000; ZVAL   =    1.000    mass and valenz                                          
   RCORE  =    1.100    outmost cutoff radius                                                       
   RWIGS  =    0.700; RWIGS  =    0.370    wigner-seitz radius (au A)                               
   ENMAX  =  250.000; ENMIN  =  200.000 eV                                                          
   RCLOC  =    0.701    cutoff for local pot                                                        
   LCOR   =        T    correct aug charges                                                         
   LPAW   =        T    paw PP                                                                      
   EAUG   =  400.000                                                                                
   RMAX   =    1.123    core radius for proj-oper                                                   
   RAUG   =    1.200    factor for augmentation sphere                                              
   RDEP   =    1.112    radius for radial grids                                                     
   RDEPT  =    0.926    core radius for aug-charge                                                  
                                                                                                    
   Atomic configuration                                                                             
    2 entries                                                                                       
     n  l   j            E        occ.                                                              
     1  0  0.50        -6.4927   1.0000                                                             
     2  1  0.50        -3.4015   0.0000                                                             
   Description                                                                                      
     l       E           TYP  RCUT    TYP  RCUT                                                     
     0     -6.4927494     23  1.100                                                                 
     0      6.8029130     23  1.100                                                                 
     1     -4.0817478     23  1.100                                                                 
  local pseudopotential read in
  atomic valenz-charges read in
  non local Contribution for L=            0  read in
    real space projection operators read in
  non local Contribution for L=            0  read in
    real space projection operators read in
  non local Contribution for L=            1  read in
    real space projection operators read in
    PAW grid and wavefunctions read in
 
   number of l-projection  operators is LMAX  =            3
   number of lm-projection operators is LMMAX =            5
 
 POTCAR:    PAW_PBE C 08Apr2002                   
   SHA256 =  253f7b50bb8d59471dbedb8285d89021f4a42ed1a2c5d38a03a736e69125dd95 C/POTCAR              
   COPYR  = (c) Copyright 08Apr2002 Georg Kresse                                                    
   COPYR  = This file is part of the software VASP. Any use, copying, and all other rights are regul
   COPYR  = If you do not have a valid VASP license, you may not use, copy or distribute this file. 
   VRHFIN =C: s2p2                                                                                  
   LEXCH  = PE                                                                                      
   EATOM  =   147.1560 eV,   10.8157 Ry                                                             
                                                                                                    
   TITEL  = PAW_PBE C 08Apr2002                                                                     
   LULTRA =        F    use ultrasoft PP ?                                                          
   IUNSCR =        1    unscreen: 0-lin 1-nonlin 2-no                                               
   RPACOR =    1.200    partial core radius                                                         
   POMASS =   12.011; ZVAL   =    4.000    mass and valenz                                          
   RCORE  =    1.500    outmost cutoff radius                                                       
   RWIGS  =    1.630; RWIGS  =    0.863    wigner-seitz radius (au A)                               
   ENMAX  =  400.000; ENMIN  =  300.000 eV                                                          
   ICORE  =        2    local potential                                                             
   LCOR   =        T    correct aug charges                                                         
   LPAW   =        T    paw PP                                                                      
   EAUG   =  644.873                                                                                
   DEXC   =    0.000                                                                                
   RMAX   =    1.529    core radius for proj-oper                                                   
   RAUG   =    1.300    factor for augmentation sphere                                              
   RDEP   =    1.501    radius for radial grids                                                     
   RDEPT  =    1.300    core radius for aug-charge                                                  
                                                                                                    
   Atomic configuration                                                                             
    4 entries                                                                                       
     n  l   j            E        occ.                                                              
     1  0  0.50      -273.3789   2.0000                                                             
     2  0  0.50       -13.7508   2.0000                                                             
     2  1  0.50        -5.2854   2.0000                                                             
     3  2  1.50        -5.4423   0.0000                                                             
   Description                                                                                      
     l       E           TYP  RCUT    TYP  RCUT                                                     
     0    -13.7508458     23  1.200                                                                 
     0     -8.2022199     23  1.200                                                                 
     1     -5.2854383     23  1.500                                                                 
     1     34.0145650     23  1.500                                                                 
     2     -5.4423304      7  1.500                                                                 
  local pseudopotential read in
  partial core-charges read in
  partial kinetic energy density read in
  atomic valenz-charges read in
  non local Contribution for L=            0  read in
    real space projection operators read in
  non local Contribution for L=            0  read in
    real space projection operators read in
  non local Contribution for L=            1  read in
    real space projection operators read in
  non local Contribution for L=            1  read in
    real space projection operators read in
    PAW grid and wavefunctions read in
 
   number of l-projection  operators is LMAX  =            4
   number of lm-projection operators is LMMAX =            8
 
 POTCAR:    PAW_PBE N 08Apr2002                   
   SHA256 =  e053789ff3a61a86a1b75d8a110fcc91f86041011e7b0817c7c99e4e8a6349d7 N/POTCAR              
   COPYR  = (c) Copyright 08Apr2002 Georg Kresse                                                    
   COPYR  = This file is part of the software VASP. Any use, copying, and all other rights are regul
   COPYR  = If you do not have a valid VASP license, you may not use, copy or distribute this file. 
   VRHFIN =N: s2p3                                                                                  
   LEXCH  = PE                                                                                      
   EATOM  =   264.5486 eV,   19.4438 Ry                                                             
                                                                                                    
   TITEL  = PAW_PBE N 08Apr2002                                                                     
   LULTRA =        F    use ultrasoft PP ?                                                          
   IUNSCR =        1    unscreen: 0-lin 1-nonlin 2-no                                               
   RPACOR =    1.200    partial core radius                                                         
   POMASS =   14.001; ZVAL   =    5.000    mass and valenz                                          
   RCORE  =    1.500    outmost cutoff radius                                                       
   RWIGS  =    1.400; RWIGS  =    0.741    wigner-seitz radius (au A)                               
   ENMAX  =  400.000; ENMIN  =  300.000 eV                                                          
   ICORE  =        2    local potential                                                             
   LCOR   =        T    correct aug charges                                                         
   LPAW   =        T    paw PP                                                                      
   EAUG   =  627.112                                                                                
   DEXC   =    0.000                                                                                
   RMAX   =    1.529    core radius for proj-oper                                                   
   RAUG   =    1.300    factor for augmentation sphere                                              
   RDEP   =    1.514    radius for radial grids                                                     
   RDEPT  =    1.338    core radius for aug-charge                                                  
                                                                                                    
   Atomic configuration                                                                             
    4 entries                                                                                       
     n  l   j            E        occ.                                                              
     1  0  0.50      -384.7179   2.0000                                                             
     2  0  0.50       -18.5828   2.0000                                                             
     2  1  0.50        -7.0898   3.0000                                                             
     3  2  1.50        -6.8029   0.0000                                                             
   Description                                                                                      
     l       E           TYP  RCUT    TYP  RCUT                                                     
     0    -18.5828119     23  1.200                                                                 
     0    -13.5018863     23  1.200                                                                 
     1     -7.0897853     23  1.500                                                                 
     1      9.5240782     23  1.500                                                                 
     2     -6.8029130      7  1.500                                                                 
  local pseudopotential read in
  partial core-charges read in
  partial kinetic energy density read in
  atomic valenz-charges read in
  non local Contribution for L=            0  read in
    real space projection operators read in
  non local Contribution for L=            0  read in
    real space projection operators read in
  non local Contribution for L=            1  read in
    real space projection operators read in
  non local Contribution for L=            1  read in
    real space projection operators read in
    PAW grid and wavefunctions read in
 
   number of l-projection  operators is LMAX  =            4
   number of lm-projection operators is LMMAX =            8
 
 POTCAR:    PAW_PBE I 08Apr2002                   
   SHA256 =  e40f3f59b681c1fc3e3091736183c4589116986673d2b852a5012aec72758799 I/POTCAR              
   COPYR  = (c) Copyright 08Apr2002 Georg Kresse                                                    
   COPYR  = This file is part of the software VASP. Any use, copying, and all other rights are regul
   COPYR  = If you do not have a valid VASP license, you may not use, copy or distribute this file. 
   VRHFIN =I : s2p5                                                                                 
   LEXCH  = PE                                                                                      
   EATOM  =   315.8678 eV,   23.2156 Ry                                                             
                                                                                                    
   TITEL  = PAW_PBE I 08Apr2002                                                                     
   LULTRA =        F    use ultrasoft PP ?                                                          
   IUNSCR =        1    unscreen: 0-lin 1-nonlin 2-no                                               
   RPACOR =    2.200    partial core radius                                                         
   POMASS =  126.904; ZVAL   =    7.000    mass and valenz                                          
   RCORE  =    2.300    outmost cutoff radius                                                       
   RWIGS  =    2.810; RWIGS  =    1.487    wigner-seitz radius (au A)                               
   ENMAX  =  175.647; ENMIN  =  131.735 eV                                                          
   ICORE  =        3    local potential                                                             
   LCOR   =        T    correct aug charges                                                         
   LPAW   =        T    paw PP                                                                      
   EAUG   =  370.139                                                                                
   DEXC   =    0.000                                                                                
   RMAX   =    2.359    core radius for proj-oper                                                   
   RAUG   =    1.300    factor for augmentation sphere                                              
   RDEP   =    2.392    radius for radial grids                                                     
   RDEPT  =    2.170    core radius for aug-charge                                                  
                                                                                                    
   Atomic configuration                                                                             
   13 entries                                                                                       
     n  l   j            E        occ.                                                              
     1  0  0.50    -32976.3739   2.0000                                                             
     2  0  0.50     -5094.5933   2.0000                                                             
     2  1  1.50     -4572.0131   6.0000                                                             
     3  0  0.50     -1028.2813   2.0000                                                             
     3  1  1.50      -859.0250   6.0000                                                             
     3  2  2.50      -605.7620  10.0000                                                             
     4  0  0.50      -180.5540   2.0000                                                             
     4  1  1.50      -127.5306   6.0000                                                             
     4  2  2.50       -50.2720  10.0000                                                             
     5  0  0.50       -17.4058   2.0000                                                             
     5  1  0.50        -7.0851   5.0000                                                             
     5  2  1.50        -7.0750   0.0000                                                             
     4  3  2.50        -7.0750   0.0000                                                             
   Description                                                                                      
     l       E           TYP  RCUT    TYP  RCUT                                                     
     0    -17.4058016     23  2.300                                                                 
     0    -18.7663842     23  2.300                                                                 
     1     -7.0850686     23  2.300                                                                 
     1     -4.2150896     23  2.300                                                                 
     2     -7.0750295     23  2.300                                                                 
     3     -1.3605826     23  2.300                                                                 
  local pseudopotential read in
  partial core-charges read in
  partial kinetic energy density read in
  atomic valenz-charges read in
  non local Contribution for L=            0  read in
    real space projection operators read in
  non local Contribution for L=            0  read in
    real space projection operators read in
  non local Contribution for L=            1  read in
    real space projection operators read in
  non local Contribution for L=            1  read in
    real space projection operators read in
  non local Contribution for L=            2  read in
    real space projection operators read in
    PAW grid and wavefunctions read in
 
   number of l-projection  operators is LMAX  =            5
   number of lm-projection operators is LMMAX =           13
 
 POTCAR:    PAW_PBE Pb 08Apr2002                  
   SHA256 =  797118a27cf1bcd06b9881c67a26cdde129e3cd1a551dd4a281f9681ce847303 Pb/POTCAR             
   COPYR  = (c) Copyright 08Apr2002 Georg Kresse                                                    
   COPYR  = This file is part of the software VASP. Any use, copying, and all other rights are regul
   COPYR  = If you do not have a valid VASP license, you may not use, copy or distribute this file. 
   VRHFIN =Pb:                                                                                      
   LEXCH  = PE                                                                                      
   EATOM  =    96.9868 eV,    7.1283 Ry                                                             
                                                                                                    
   TITEL  = PAW_PBE Pb 08Apr2002                                                                    
   LULTRA =        F    use ultrasoft PP ?                                                          
   IUNSCR =        1    unscreen: 0-lin 1-nonlin 2-no                                               
   RPACOR =    2.200    partial core radius                                                         
   POMASS =  207.200; ZVAL   =    4.000    mass and valenz                                          
   RCORE  =    3.100    outmost cutoff radius                                                       
   RWIGS  =    3.260; RWIGS  =    1.725    wigner-seitz radius (au A)                               
   ENMAX  =   97.973; ENMIN  =   73.480 eV                                                          
   ICORE  =        3    local potential                                                             
   LCOR   =        T    correct aug charges                                                         
   LPAW   =        T    paw PP                                                                      
   EAUG   =  234.873                                                                                
   DEXC   =    0.000                                                                                
   RMAX   =    3.158    core radius for proj-oper                                                   
   RAUG   =    1.300    factor for augmentation sphere                                              
   RDEP   =    3.202    radius for radial grids                                                     
   RDEPT  =    2.659    core radius for aug-charge                                                  
                                                                                                    
   Atomic configuration                                                                             
   17 entries                                                                                       
     n  l   j            E        occ.                                                              
     1  0  0.50    -88091.8466   2.0000                                                             
     2  0  0.50    -15753.4197   2.0000                                                             
     2  1  1.50    -13508.1797   6.0000                                                             
     3  0  0.50     -3781.7194   2.0000                                                             
     3  1  1.50     -3138.2529   6.0000                                                             
     3  2  2.50     -2483.2977  10.0000                                                             
     4  0  0.50      -856.2895   2.0000                                                             
     4  1  1.50      -645.4943   6.0000                                                             
     4  2  2.50      -401.8768  10.0000                                                             
     4  3  3.50      -132.9059  14.0000                                                             
     5  0  0.50      -144.0950   2.0000                                                             
     5  1  1.50       -85.7879   6.0000                                                             
     5  2  2.50       -21.1769  10.0000                                                             
     6  0  0.50       -12.0372   2.0000                                                             
     6  1  1.50        -3.4971   2.0000                                                             
     6  2  2.50        -1.3606   0.0000                                                             
     5  3  2.50        -2.7212   0.0000                                                             
   Description                                                                                      
     l       E           TYP  RCUT    TYP  RCUT                                                     
     0    -12.0371566     23  3.100                                                                 
     0    -13.3977392     23  3.100                                                                 
     1     -3.4971341     23  3.100                                                                 
     1     -5.4423304     23  3.100                                                                 
     2     -1.3605826     23  3.100                                                                 
     3     -1.3605826     23  3.100                                                                 
  local pseudopotential read in
  partial core-charges read in
  partial kinetic energy density read in
  atomic valenz-charges read in
  non local Contribution for L=            0  read in
    real space projection operators read in
  non local Contribution for L=            0  read in
    real space projection operators read in
  non local Contribution for L=            1  read in
    real space projection operators read in
  non local Contribution for L=            1  read in
    real space projection operators read in
  non local Contribution for L=            2  read in
    real space projection operators read in
    PAW grid and wavefunctions read in
 
   number of l-projection  operators is LMAX  =            5
   number of lm-projection operators is LMMAX =           13
 
 Optimization of the real space projectors (new method)

 maximal supplied QI-value         = 34.20
 optimisation between [QCUT,QGAM] = [ 11.29, 22.57] = [ 35.68,142.71] Ry 
 Optimized for a Real-space Cutoff    1.16 Angstroem

   l    n(q)    QCUT    max X(q) W(low)/X(q) W(high)/X(q)  e(spline) 
   0      8    11.287    19.460    0.40E-03    0.73E-03    0.16E-06
   0      8    11.287    12.209    0.38E-03    0.70E-03    0.15E-06
   1      7    11.287     4.655    0.22E-03    0.25E-04    0.22E-06
 Optimization of the real space projectors (new method)

 maximal supplied QI-value         = 25.13
 optimisation between [QCUT,QGAM] = [ 11.31, 22.87] = [ 35.82,146.48] Ry 
 Optimized for a Real-space Cutoff    1.00 Angstroem

   l    n(q)    QCUT    max X(q) W(low)/X(q) W(high)/X(q)  e(spline) 
   0      7    11.310   115.676    0.43E-03    0.13E-02    0.19E-06
   0      7    11.310    87.132    0.43E-03    0.13E-02    0.18E-06
   1      6    11.310     4.429    0.42E-03    0.74E-03    0.11E-06
   1      6    11.310     2.733    0.34E-03    0.55E-03    0.92E-07
 Optimization of the real space projectors (new method)

 maximal supplied QI-value         = 25.13
 optimisation between [QCUT,QGAM] = [ 11.31, 22.87] = [ 35.82,146.48] Ry 
 Optimized for a Real-space Cutoff    1.27 Angstroem

   l    n(q)    QCUT    max X(q) W(low)/X(q) W(high)/X(q)  e(spline) 
   0      9    11.310    79.467    0.75E-04    0.16E-03    0.36E-06
   0      9    11.310    66.151    0.74E-04    0.16E-03    0.36E-06
   1      8    11.310    17.416    0.35E-03    0.12E-03    0.95E-06
   1      8    11.310    12.382    0.37E-03    0.13E-03    0.98E-06
 Optimization of the real space projectors (new method)

 maximal supplied QI-value         = 16.25
 optimisation between [QCUT,QGAM] = [ 11.38, 22.75] = [ 36.24,144.96] Ry 
 Optimized for a Real-space Cutoff    1.31 Angstroem

   l    n(q)    QCUT    max X(q) W(low)/X(q) W(high)/X(q)  e(spline) 
   0      9    11.376   194.483    0.24E-03    0.23E-03    0.67E-07
   0      9    11.376   190.334    0.23E-03    0.22E-03    0.65E-07
   1      8    11.376   116.687    0.25E-03    0.63E-04    0.16E-06
   1      8    11.376    88.696    0.25E-03    0.61E-04    0.16E-06
   2      8    11.376     4.877    0.17E-03    0.14E-03    0.29E-07
 Optimization of the real space projectors (new method)

 maximal supplied QI-value         = 12.09
 optimisation between [QCUT,QGAM] = [ 11.37, 22.86] = [ 36.19,146.31] Ry 
 Optimized for a Real-space Cutoff    1.66 Angstroem

   l    n(q)    QCUT    max X(q) W(low)/X(q) W(high)/X(q)  e(spline) 
   0     11    11.369   135.111    0.12E-03    0.69E-04    0.19E-05
   0     11    11.369   146.850    0.11E-03    0.65E-04    0.18E-05
   1     11    11.369   148.016    0.17E-03    0.32E-03    0.89E-06
   1     11    11.369   122.989    0.17E-03    0.32E-03    0.91E-06
   2     10    11.369     8.916    0.12E-03    0.45E-04    0.33E-06
  PAW_PBE H 15Jun2001                   :
 energy of atom  1       EATOM=  -12.4884
 kinetic energy error for atom=    0.0020 (will be added to EATOM!!)
  PAW_PBE C 08Apr2002                   :
 energy of atom  2       EATOM= -147.1560
 kinetic energy error for atom=    0.0076 (will be added to EATOM!!)
  PAW_PBE N 08Apr2002                   :
 energy of atom  3       EATOM= -264.5486
 kinetic energy error for atom=    0.0138 (will be added to EATOM!!)
  PAW_PBE I 08Apr2002                   :
 energy of atom  4       EATOM= -315.8678
 kinetic energy error for atom=    0.0009 (will be added to EATOM!!)
  PAW_PBE Pb 08Apr2002                  :
 energy of atom  5       EATOM=  -96.9868
 kinetic energy error for atom=    0.0000 (will be added to EATOM!!)
 
 
 POSCAR:  H  C  N  I Pb
  positions in cartesian coordinates
  No initial velocities read in
 exchange correlation table for  LEXCH =        8
   RHO(1)=    0.500       N(1)  =     2000
   RHO(2)=  100.500       N(2)  =     4000
 


--------------------------------------------------------------------------------------------------------


 ion  position               nearest neighbor table
   1  0.448  0.298  0.582- 187 1.03
   2  0.444  0.818  0.580- 188 0.99
   3  0.957  0.276  0.587- 189 1.03
   4  0.970  0.805  0.585- 190 1.01
   5  0.300  0.046  0.583- 194 1.05
   6  0.299  0.549  0.583- 195 1.06
   7  0.788  0.061  0.581- 196 1.06
   8  0.091  0.179  0.554- 183 1.01
   9  0.076  0.673  0.555- 184 1.02
  10  0.589  0.181  0.555- 185 1.03
  11  0.558  0.664  0.564- 186 1.03
  12  0.336  0.068  0.558- 194 0.98
  13  0.324  0.585  0.558- 195 0.98
  14  0.827  0.081  0.557- 196 0.97
  15  0.068  0.195  0.580- 183 1.02
  16  0.052  0.698  0.581- 184 0.99
  17  0.562  0.214  0.581- 185 1.05
  18  0.526  0.711  0.587- 186 1.04
  19  0.200  0.443  0.581- 191 1.06
  20  0.187  0.954  0.581- 192 1.06
  21  0.700  0.946  0.581- 193 1.05
  22  0.404  0.311  0.557- 187 1.03
  23  0.428  0.842  0.553- 188 1.01
  24  0.911  0.313  0.565- 189 1.02
  25  0.940  0.852  0.562- 190 1.03
  26  0.173  0.422  0.555- 191 0.98
  27  0.163  0.928  0.556- 192 0.98
  28  0.691  0.904  0.556- 193 0.99
  29  0.490  0.240  0.538- 146 1.09
  30  0.504  0.742  0.541- 147 1.06
  31  0.992  0.254  0.541- 144 1.07
  32  0.004  0.771  0.540- 145 1.06
  33  0.247  0.509  0.538- 148 1.11
  34  0.253  0.996  0.539- 149 1.11
  35  0.771  0.986  0.538- 150 1.11
  36  0.451  0.305  0.675- 205 0.98
  37  0.448  0.794  0.676- 206 0.98
  38  0.943  0.305  0.672- 207 0.99
  39  0.946  0.805  0.675- 208 1.06
  40  0.299  0.047  0.675- 209 0.98
  41  0.296  0.552  0.675- 210 0.98
  42  0.804  0.057  0.674- 211 0.98
  43  0.819  0.541  0.675- 212 0.99
  44  0.079  0.168  0.651- 197 1.07
  45  0.082  0.674  0.651- 198 1.07
  46  0.575  0.168  0.649- 199 1.08
  47  0.575  0.674  0.648- 200 0.98
  48  0.175  0.417  0.649- 201 1.04
  49  0.169  0.922  0.647- 202 1.11
  50  0.663  0.443  0.651- 203 0.98
  51  0.671  0.922  0.651- 204 1.11
  52  0.044  0.203  0.675- 197 1.01
  53  0.048  0.703  0.676- 198 1.06
  54  0.549  0.201  0.675- 199 1.01
  55  0.550  0.697  0.674- 200 0.99
  56  0.204  0.448  0.675- 201 0.98
  57  0.196  0.949  0.673- 202 0.99
  58  0.700  0.452  0.676- 203 1.00
  59  0.704  0.957  0.676- 204 0.98
  60  0.420  0.333  0.649- 205 1.04
  61  0.414  0.828  0.652- 206 1.04
  62  0.922  0.327  0.646- 207 1.00
  63  0.920  0.829  0.649- 208 0.99
  64  0.334  0.078  0.650- 209 1.04
  65  0.324  0.585  0.650- 210 1.05
  66  0.829  0.083  0.647- 211 1.04
  67  0.838  0.575  0.650- 212 0.99
  68  0.004  0.244  0.631- 151 1.13
  69  0.001  0.750  0.632- 152 1.14
  70  0.496  0.248  0.631- 153 1.13
  71  0.493  0.753  0.632- 154 1.13
  72  0.253  0.002  0.631- 156 1.12
  73  0.250  0.503  0.631- 155 1.12
  74  0.748  1.000  0.632- 158 1.12
  75  0.741  0.519  0.633- 157 1.10
  76  0.449  0.301  0.769- 221 1.02
  77  0.449  0.801  0.769- 222 1.02
  78  0.949  0.301  0.769- 223 1.02
  79  0.949  0.801  0.769- 224 1.02
  80  0.301  0.051  0.769- 225 1.02
  81  0.301  0.551  0.769- 226 1.02
  82  0.801  0.051  0.769- 227 1.02
  83  0.801  0.551  0.769- 228 1.02
  84  0.079  0.171  0.743- 213 1.02
  85  0.079  0.671  0.743- 214 1.02
  86  0.579  0.171  0.743- 215 1.02
  87  0.579  0.671  0.743- 216 1.02
  88  0.171  0.421  0.743- 217 1.02
  89  0.171  0.921  0.743- 218 1.02
  90  0.671  0.421  0.743- 219 1.02
  91  0.671  0.921  0.743- 220 1.02
  92  0.051  0.199  0.769- 213 1.02
  93  0.051  0.699  0.769- 214 1.02
  94  0.551  0.199  0.769- 215 1.02
  95  0.551  0.699  0.769- 216 1.02
  96  0.199  0.449  0.769- 217 1.02
  97  0.199  0.949  0.769- 218 1.02
  98  0.699  0.449  0.769- 219 1.02
  99  0.699  0.949  0.769- 220 1.02
 100  0.421  0.329  0.743- 221 1.02
 101  0.421  0.829  0.743- 222 1.02
 102  0.921  0.329  0.743- 223 1.02
 103  0.921  0.829  0.743- 224 1.02
 104  0.329  0.079  0.743- 225 1.02
 105  0.329  0.579  0.743- 226 1.02
 106  0.829  0.079  0.743- 227 1.02
 107  0.829  0.579  0.743- 228 1.02
 108  0.000  0.250  0.726- 161 1.09
 109  0.000  0.750  0.726- 162 1.09
 110  0.500  0.250  0.726- 159 1.09
 111  0.500  0.750  0.726- 160 1.09
 112  0.250  0.000  0.726- 163 1.09
 113  0.250  0.500  0.726- 164 1.09
 114  0.750  0.000  0.726- 165 1.09
 115  0.750  0.500  0.726- 166 1.09
 116  0.719  0.460  0.549- 173 1.10
 117  0.743  0.518  0.527- 173 1.12
 118  0.658  0.557  0.564- 174 1.09
 119  0.693  0.647  0.565- 174 1.10
 120  0.839  0.521  0.581- 175 1.09
 121  0.776  0.591  0.590- 175 1.10
 122  0.877  0.561  0.546- 176 1.08
 123  0.821  0.624  0.532- 176 1.06
 124  0.878  0.488  0.531- 177 1.10
 125  0.862  0.455  0.557- 177 1.10
 126  0.886  0.353  0.534- 178 1.09
 127  0.795  0.345  0.543- 178 1.07
 128  0.624  0.566  0.527- 179 1.11
 129  0.707  0.617  0.521- 179 1.10
 130  0.635  0.664  0.533- 179 1.11
 131  0.727  0.479  0.604- 180 1.10
 132  0.744  0.423  0.580- 180 1.11
 133  0.671  0.491  0.581- 180 1.11
 134  0.840  0.680  0.575- 181 1.10
 135  0.876  0.716  0.552- 181 1.10
 136  0.928  0.643  0.567- 181 1.12
 137  0.843  0.399  0.499- 182 1.07
 138  0.804  0.313  0.506- 182 1.08
 139  0.676  0.324  0.528- 168 1.12
 140  0.760  0.482  0.482- 169 1.07
 141  0.550  0.376  0.524- 170 1.09
 142  0.634  0.534  0.478- 171 1.05
 143  0.531  0.485  0.499- 172 1.05
 144  0.003  0.245  0.557-  31 1.07 183 1.29 189 1.37
 145  0.009  0.763  0.557-  32 1.06 184 1.34 190 1.34
 146  0.498  0.245  0.555-  29 1.09 185 1.31 187 1.38
 147  0.497  0.751  0.557-  30 1.06 186 1.29 188 1.38
 148  0.249  0.505  0.556-  33 1.11 195 1.29 191 1.35
 149  0.248  0.997  0.556-  34 1.11 192 1.29 194 1.35
 150  0.760  0.993  0.556-  35 1.11 196 1.29 193 1.35
 151  0.000  0.248  0.649-  68 1.13 197 1.27 207 1.34
 152  0.001  0.752  0.650-  69 1.14 198 1.26 208 1.32
 153  0.498  0.250  0.649-  70 1.13 199 1.27 205 1.37
 154  0.497  0.749  0.650-  71 1.13 200 1.30 206 1.37
 155  0.251  0.502  0.649-  73 1.12 210 1.31 201 1.35
 156  0.250  0.999  0.649-  72 1.12 202 1.27 209 1.37
 157  0.748  0.508  0.650-  75 1.10 203 1.28 212 1.38
 158  0.750  0.002  0.650-  74 1.12 204 1.27 211 1.37
 159  0.500  0.250  0.743- 110 1.09 221 1.31 215 1.31
 160  0.500  0.750  0.743- 111 1.09 222 1.31 216 1.31
 161  1.000  0.250  0.743- 108 1.09 223 1.31 213 1.31
 162  1.000  0.750  0.743- 109 1.09 224 1.31 214 1.31
 163  0.250  0.000  0.743- 112 1.09 225 1.31 218 1.31
 164  0.250  0.500  0.743- 113 1.09 226 1.31 217 1.31
 165  0.750  0.000  0.743- 114 1.09 227 1.31 220 1.31
 166  0.750  0.500  0.743- 115 1.09 228 1.31 219 1.31
 167  0.728  0.399  0.505- 169 1.38 168 1.39 182 1.47
 168  0.668  0.370  0.516- 139 1.12 167 1.39 170 1.42
 169  0.715  0.457  0.491- 140 1.07 167 1.38 171 1.40
 170  0.595  0.400  0.514- 141 1.09 172 1.38 168 1.42
 171  0.645  0.489  0.488- 142 1.05 169 1.40 172 1.46
 172  0.583  0.459  0.501- 143 1.05 170 1.38 171 1.46
 173  0.762  0.498  0.543- 116 1.10 117 1.12 229 1.42 177 1.59
 174  0.693  0.596  0.555- 118 1.09 119 1.10 179 1.54 229 1.54
 175  0.782  0.541  0.580- 120 1.09 121 1.10 229 1.52 180 1.54
 176  0.836  0.604  0.548- 123 1.06 122 1.08 181 1.51 229 1.52
 177  0.839  0.457  0.541- 124 1.10 125 1.10 178 1.56 173 1.59
 178  0.830  0.376  0.533- 127 1.07 126 1.09 177 1.56 182 1.56
 179  0.663  0.609  0.532- 129 1.10 128 1.11 130 1.11 174 1.54
 180  0.728  0.478  0.586- 131 1.10 133 1.11 132 1.11 175 1.54
 181  0.872  0.664  0.561- 134 1.10 135 1.10 136 1.12 176 1.51
 182  0.803  0.372  0.509- 137 1.07 138 1.08 167 1.47 178 1.56
 183  0.056  0.205  0.564-   8 1.01  15 1.02 144 1.29
 184  0.047  0.706  0.565-  16 0.99   9 1.02 145 1.34
 185  0.552  0.210  0.564-  10 1.03  17 1.05 146 1.31
 186  0.529  0.708  0.571-  11 1.03  18 1.04 147 1.29
 187  0.446  0.288  0.565-   1 1.03  22 1.03 146 1.38
 188  0.453  0.809  0.564-   2 0.99  23 1.01 147 1.38
 189  0.954  0.281  0.571-  24 1.02   3 1.03 144 1.37
 190  0.973  0.812  0.569-   4 1.01  25 1.03 145 1.34
 191  0.204  0.453  0.564-  26 0.98  19 1.06 148 1.35
 192  0.196  0.957  0.565-  27 0.98  20 1.06 149 1.29
 193  0.713  0.944  0.565-  28 0.99  21 1.05 150 1.35
 194  0.298  0.040  0.566-  12 0.98   5 1.05 149 1.35
 195  0.293  0.549  0.566-  13 0.98   6 1.06 148 1.29
 196  0.794  0.048  0.565-  14 0.97   7 1.06 150 1.29
 197  0.042  0.205  0.659-  52 1.01  44 1.07 151 1.27
 198  0.045  0.709  0.659-  53 1.06  45 1.07 152 1.26
 199  0.542  0.205  0.659-  54 1.01  46 1.08 153 1.27
 200  0.545  0.704  0.658-  47 0.98  55 0.99 154 1.30
 201  0.208  0.450  0.659-  56 0.98  48 1.04 155 1.35
 202  0.204  0.956  0.658-  57 0.99  49 1.11 156 1.27
 203  0.702  0.465  0.660-  50 0.98  58 1.00 157 1.28
 204  0.708  0.960  0.660-  59 0.98  51 1.11 158 1.27
 205  0.452  0.300  0.659-  36 0.98  60 1.04 153 1.37
 206  0.449  0.794  0.661-  37 0.98  61 1.04 154 1.37
 207  0.951  0.297  0.657-  38 0.99  62 1.00 151 1.34
 208  0.953  0.799  0.658-  63 0.99  39 1.06 152 1.32
 209  0.299  0.046  0.659-  40 0.98  64 1.04 156 1.37
 210  0.291  0.551  0.659-  41 0.98  65 1.05 155 1.31
 211  0.799  0.051  0.658-  42 0.98  66 1.04 158 1.37
 212  0.807  0.544  0.660-  43 0.99  67 0.99 157 1.38
 213  0.046  0.204  0.753-  92 1.02  84 1.02 161 1.31
 214  0.046  0.704  0.753-  93 1.02  85 1.02 162 1.31
 215  0.546  0.204  0.753-  94 1.02  86 1.02 159 1.31
 216  0.546  0.704  0.753-  95 1.02  87 1.02 160 1.31
 217  0.204  0.454  0.753-  96 1.02  88 1.02 164 1.31
 218  0.204  0.954  0.753-  97 1.02  89 1.02 163 1.31
 219  0.704  0.454  0.753-  98 1.02  90 1.02 166 1.31
 220  0.704  0.954  0.753-  99 1.02  91 1.02 165 1.31
 221  0.454  0.296  0.753-  76 1.02 100 1.02 159 1.31
 222  0.454  0.796  0.753-  77 1.02 101 1.02 160 1.31
 223  0.954  0.296  0.753-  78 1.02 102 1.02 161 1.31
 224  0.954  0.796  0.753-  79 1.02 103 1.02 162 1.31
 225  0.296  0.046  0.753-  80 1.02 104 1.02 163 1.31
 226  0.296  0.546  0.753-  81 1.02 105 1.02 164 1.31
 227  0.796  0.046  0.753-  82 1.02 106 1.02 165 1.31
 228  0.796  0.546  0.753-  83 1.02 107 1.02 166 1.31
 229  0.771  0.561  0.556- 173 1.42 176 1.52 175 1.52 174 1.54
 230  0.497  0.007  0.552- 304 3.12
 231  0.488  0.512  0.555- 305 3.11
 232  0.001  0.003  0.552- 302 3.20
 233  0.015  0.511  0.556- 303 3.09
 234  0.253  0.249  0.552- 306 3.18
 235  0.253  0.750  0.553- 307 3.06
 236  0.736  0.235  0.556- 308 3.04
 237  0.735  0.765  0.548- 309 3.60
 238  0.001  0.004  0.653- 302 3.15 310 3.21
 239  0.008  0.499  0.656- 311 3.06 303 3.16
 240  0.498  0.001  0.654- 312 3.16 304 3.25
 241  0.498  0.498  0.655- 313 3.12 305 3.16
 242  0.252  0.246  0.655- 314 3.13 306 3.25
 243  0.244  0.748  0.654- 315 3.16 307 3.28
 244  0.749  0.249  0.655- 316 3.09 308 3.16
 245  0.752  0.752  0.654- 309 3.08 317 3.15
 246  0.145  0.108  0.608- 306 3.24 302 3.33
 247  0.147  0.607  0.609- 307 3.17 303 3.24
 248  0.645  0.106  0.609- 308 3.18 304 3.26
 249  0.628  0.622  0.612- 305 3.22 309 3.29
 250  0.354  0.391  0.608- 306 3.15 305 3.31
 251  0.358  0.893  0.609- 304 3.24 307 3.32
 252  0.871  0.380  0.611- 303 3.27 308 3.28
 253  0.857  0.896  0.609- 302 3.17 309 3.18
 254  0.109  0.355  0.609- 306 3.26 303 3.35
 255  0.111  0.862  0.609- 302 3.22 307 3.22
 256  0.596  0.345  0.607- 308 3.23 305 3.30
 257  0.603  0.861  0.609- 309 3.12 304 3.18
 258  0.393  0.143  0.609- 306 3.18 304 3.22
 259  0.394  0.640  0.609- 305 3.19 307 3.35
 260  0.890  0.143  0.608- 308 3.23 302 3.27
 261  0.907  0.646  0.612- 303 3.09 309 3.65
 262  0.000  0.000  0.755- 310 3.13 318 3.27
 263  0.000  0.500  0.755- 311 3.13 319 3.27
 264  0.500  0.000  0.755- 312 3.13 320 3.27
 265  0.500  0.500  0.755- 313 3.13 321 3.27
 266  0.250  0.250  0.755- 314 3.13 322 3.27
 267  0.250  0.750  0.755- 315 3.13 323 3.27
 268  0.750  0.250  0.755- 316 3.13 324 3.27
 269  0.750  0.750  0.755- 317 3.13 325 3.27
 270  0.136  0.114  0.705- 310 3.20 314 3.20
 271  0.136  0.614  0.705- 311 3.20 315 3.20
 272  0.636  0.114  0.705- 312 3.20 316 3.20
 273  0.636  0.614  0.705- 313 3.20 317 3.20
 274  0.364  0.386  0.705- 313 3.20 314 3.20
 275  0.364  0.886  0.705- 312 3.20 315 3.20
 276  0.864  0.386  0.705- 311 3.20 316 3.20
 277  0.864  0.886  0.705- 310 3.20 317 3.20
 278  0.114  0.364  0.705- 314 3.21 311 3.21
 279  0.114  0.864  0.705- 315 3.21 310 3.21
 280  0.614  0.364  0.705- 316 3.21 313 3.21
 281  0.614  0.864  0.705- 317 3.21 312 3.21
 282  0.386  0.136  0.705- 314 3.21 312 3.21
 283  0.386  0.636  0.705- 315 3.21 313 3.21
 284  0.886  0.136  0.705- 316 3.21 310 3.21
 285  0.886  0.636  0.705- 317 3.21 311 3.21
 286  0.135  0.115  0.801- 318 3.22 322 3.22
 287  0.135  0.615  0.801- 319 3.22 323 3.22
 288  0.635  0.115  0.801- 320 3.22 324 3.22
 289  0.635  0.615  0.801- 321 3.22 325 3.22
 290  0.365  0.385  0.801- 321 3.22 322 3.22
 291  0.365  0.885  0.801- 320 3.22 323 3.22
 292  0.865  0.385  0.801- 319 3.22 324 3.22
 293  0.865  0.885  0.801- 318 3.22 325 3.22
 294  0.115  0.365  0.801- 319 3.23 322 3.23
 295  0.115  0.865  0.801- 318 3.23 323 3.23
 296  0.615  0.365  0.801- 321 3.23 324 3.23
 297  0.615  0.865  0.801- 320 3.23 325 3.23
 298  0.385  0.135  0.801- 320 3.23 322 3.23
 299  0.385  0.635  0.801- 321 3.23 323 3.23
 300  0.885  0.135  0.801- 318 3.23 324 3.23
 301  0.885  0.635  0.801- 319 3.23 325 3.23
 302  0.998  0.998  0.603- 238 3.15 253 3.17 232 3.20 255 3.22 260 3.27 246 3.33
 303  0.000  0.504  0.605- 261 3.09 233 3.09 239 3.16 247 3.24 252 3.27 254 3.35
 304  0.499  0.002  0.602- 230 3.12 257 3.18 258 3.22 251 3.24 240 3.25 248 3.26
 305  0.501  0.500  0.604- 231 3.11 241 3.16 259 3.19 249 3.22 256 3.30 250 3.31
 306  0.254  0.249  0.603- 250 3.15 258 3.18 234 3.18 246 3.24 242 3.25 254 3.26
 307  0.246  0.749  0.602- 235 3.06 247 3.17 255 3.22 243 3.28 251 3.32 259 3.35
 308  0.747  0.249  0.605- 236 3.04 244 3.16 248 3.18 260 3.23 256 3.23 252 3.28
 309  0.743  0.761  0.605- 245 3.08 257 3.12 253 3.18 249 3.29 237 3.60 261 3.65
 310  0.000  0.000  0.705- 262 3.13 270 3.20 277 3.20 279 3.21 284 3.21 238 3.21
 311  0.000  0.500  0.705- 239 3.06 263 3.13 271 3.20 276 3.20 278 3.21 285 3.21
 312  0.500  0.000  0.705- 264 3.13 240 3.16 272 3.20 275 3.20 281 3.21 282 3.21
 313  0.500  0.500  0.705- 241 3.12 265 3.13 273 3.20 274 3.20 280 3.21 283 3.21
 314  0.250  0.250  0.705- 242 3.13 266 3.13 270 3.20 274 3.20 282 3.21 278 3.21
 315  0.250  0.750  0.705- 267 3.13 243 3.16 271 3.20 275 3.20 283 3.21 279 3.21
 316  0.750  0.250  0.705- 244 3.09 268 3.13 272 3.20 276 3.20 284 3.21 280 3.21
 317  0.750  0.750  0.705- 269 3.13 245 3.15 273 3.20 277 3.20 285 3.21 281 3.21
 318  0.000  0.000  0.807- 286 3.22 293 3.22 300 3.23 295 3.23 262 3.27
 319  0.000  0.500  0.807- 287 3.22 292 3.22 301 3.23 294 3.23 263 3.27
 320  0.500  0.000  0.807- 288 3.22 291 3.22 298 3.23 297 3.23 264 3.27
 321  0.500  0.500  0.807- 289 3.22 290 3.22 299 3.23 296 3.23 265 3.27
 322  0.250  0.250  0.807- 290 3.22 286 3.22 294 3.23 298 3.23 266 3.27
 323  0.250  0.750  0.807- 291 3.22 287 3.22 299 3.23 295 3.23 267 3.27
 324  0.750  0.250  0.807- 292 3.22 288 3.22 296 3.23 300 3.23 268 3.27
 325  0.750  0.750  0.807- 293 3.22 289 3.22 297 3.23 301 3.23 269 3.27
 

IMPORTANT INFORMATION: All symmetrisations will be switched off!
NOSYMM: (Re-)initialisation of all symmetry stuff for point group C_1.


----------------------------------------------------------------------------------------

                                     Primitive cell                                     

  volume of cell :   20385.2105

  direct lattice vectors                    reciprocal lattice vectors
    18.060800552  0.000000000  0.000000000     0.055368531  0.000015077 -0.000000000
    -0.004918649 18.062799454  0.000000000     0.000000000  0.055362404  0.000000000
     0.000000000  0.000000000 62.487499237     0.000000000 -0.000000000  0.016003201

  length of vectors
    18.060800552 18.062800123 62.487499237     0.055368533  0.055362404  0.016003201

  position of ions in fractional coordinates (direct lattice)
     0.448061977  0.298084161  0.581740379
     0.444300791  0.817552417  0.579706830
     0.956678482  0.276448191  0.587044723
     0.969829575  0.804798973  0.585225451
     0.299997599  0.045589265  0.583074935
     0.298808300  0.549491405  0.582842711
     0.788327788  0.061042731  0.581215738
     0.091272623  0.178780677  0.554342198
     0.076369314  0.672678847  0.554884055
     0.588975236  0.181262816  0.555139538
     0.558315080  0.664283854  0.564407932
     0.335905032  0.067566098  0.558315222
     0.323965642  0.584935348  0.558243736
     0.826504579  0.080571598  0.556592710
     0.067850699  0.194824645  0.580143074
     0.051624141  0.697670322  0.580695553
     0.562394383  0.213750985  0.580928998
     0.525674288  0.710564208  0.587210345
     0.199826068  0.442882944  0.580892492
     0.186629661  0.953764768  0.581395400
     0.699855888  0.946330257  0.581114338
     0.403533024  0.310928707  0.556589657
     0.428285270  0.842487980  0.553383205
     0.911355721  0.312516413  0.565239947
     0.940224775  0.851851916  0.562246978
     0.172750962  0.421910482  0.555190879
     0.162515997  0.928070931  0.555774125
     0.690621795  0.903989364  0.556349924
     0.490016477  0.239613557  0.537775286
     0.504425736  0.741845210  0.540699699
     0.992246548  0.254030761  0.540715755
     0.003866027  0.771155485  0.540175424
     0.247351066  0.508603016  0.538250784
     0.252545536  0.995572464  0.538562370
     0.770698093  0.985944740  0.538378862
     0.450816255  0.304646335  0.674537931
     0.447868429  0.793966310  0.676217649
     0.943176986  0.304664260  0.672035355
     0.945704649  0.804815974  0.674826013
     0.299211411  0.047154661  0.674975091
     0.296386416  0.552121945  0.674827662
     0.804448853  0.057493134  0.673548842
     0.818567111  0.541496196  0.675156219
     0.079083078  0.168122801  0.650953563
     0.082014941  0.673805286  0.650782081
     0.575020814  0.168165831  0.649282147
     0.575016047  0.673967903  0.648376876
     0.175365239  0.417209955  0.649200466
     0.169264382  0.922109159  0.646900140
     0.662882948  0.443453449  0.651169610
     0.670891800  0.922395310  0.651355132
     0.044193122  0.203229657  0.675210917
     0.048342605  0.702949618  0.676352869
     0.549264197  0.201136175  0.675022830
     0.550185145  0.697302111  0.673881733
     0.204218200  0.447873198  0.674610699
     0.196299975  0.948790205  0.672986046
     0.700250282  0.451816605  0.675515666
     0.703997863  0.956651472  0.676040368
     0.419761023  0.333096166  0.649043025
     0.414309337  0.828347382  0.651633386
     0.921847363  0.326766197  0.646224223
     0.919755274  0.828605246  0.648767274
     0.333637159  0.078469305  0.650132842
     0.324214457  0.585436028  0.649725351
     0.828959448  0.083402914  0.647231383
     0.838386170  0.575187994  0.650355055
     0.004325148  0.244180426  0.630503550
     0.001086047  0.750184343  0.631634452
     0.495725059  0.248109974  0.631395635
     0.493157311  0.753323695  0.631783408
     0.253305464  0.001798448  0.630749021
     0.250470116  0.502585240  0.631397405
     0.747555907  0.999605403  0.631614551
     0.741005086  0.518989327  0.633216251
     0.448745018  0.301283966  0.768889017
     0.448745007  0.801283913  0.768889017
     0.948744965  0.301283966  0.768889017
     0.948745007  0.801283913  0.768889017
     0.301275995  0.051294496  0.768872961
     0.301276011  0.551294499  0.768872961
     0.801275943  0.051294496  0.768872961
     0.801275984  0.551294499  0.768872961
     0.078771004  0.171180501  0.743441971
     0.078771006  0.671180448  0.743441971
     0.578771004  0.171180501  0.743441971
     0.578770992  0.671180448  0.743441971
     0.171199499  0.421174482  0.743421032
     0.171199501  0.921174508  0.743421032
     0.671199512  0.421174482  0.743421032
     0.671199501  0.921174508  0.743421032
     0.051256000  0.198714991  0.768889017
     0.051256002  0.698714925  0.768889017
     0.551256027  0.198714991  0.768889017
     0.551256016  0.698714925  0.768889017
     0.198723491  0.448703970  0.768872046
     0.198723493  0.948703970  0.768872046
     0.698723518  0.448703970  0.768872046
     0.698723507  0.948703970  0.768872046
     0.421231519  0.328817467  0.743441971
     0.421231508  0.828817440  0.743441971
     0.921231466  0.328817467  0.743441971
     0.921231508  0.828817440  0.743441971
     0.328800503  0.078824997  0.743421032
     0.328800492  0.578824964  0.743421032
     0.828800477  0.078824997  0.743421032
     0.828800519  0.578824964  0.743421032
     0.000003500  0.250001478  0.725821992
     0.000003500  0.750001452  0.725821992
     0.500003506  0.250001478  0.725821992
     0.500003495  0.750001452  0.725821992
     0.250000502  0.000000000  0.725803983
     0.250000517  0.500000000  0.725803983
     0.750000502  0.000000000  0.725803983
     0.750000490  0.500000000  0.725803983
     0.719032838  0.459830188  0.549027842
     0.742542799  0.518482786  0.527309753
     0.657837659  0.557402349  0.563991162
     0.693003391  0.646964254  0.564996002
     0.838677492  0.521495476  0.581278372
     0.776106272  0.591412939  0.589506641
     0.877471197  0.561036256  0.546454512
     0.820653649  0.623534903  0.532396525
     0.877899543  0.487565085  0.530844701
     0.862448055  0.455151150  0.557312641
     0.886213053  0.353444506  0.533782911
     0.795058118  0.345051361  0.543317960
     0.623899120  0.565507852  0.526812461
     0.706536437  0.617197014  0.520568598
     0.635330860  0.664138026  0.532889727
     0.727203520  0.478515084  0.603865470
     0.743790712  0.422725256  0.580263948
     0.670556873  0.490902164  0.581008848
     0.840352984  0.680421735  0.575166249
     0.876127632  0.716028928  0.551995965
     0.927527905  0.643446765  0.566843967
     0.842688758  0.398541083  0.498878651
     0.803593437  0.313237261  0.505584399
     0.675554897  0.324000943  0.527657479
     0.760048890  0.481931834  0.482391406
     0.550388962  0.376012145  0.523672307
     0.634402028  0.533973896  0.478320401
     0.531184691  0.485009676  0.499088807
     0.002636323  0.245271147  0.557312580
     0.008836371  0.762814557  0.556944098
     0.497538831  0.244703942  0.554988446
     0.496685245  0.751470020  0.557218079
     0.249213873  0.504836956  0.555939442
     0.248037993  0.996758034  0.556271967
     0.759760303  0.993467011  0.555718328
     0.000083888  0.247855384  0.648573937
     0.000708218  0.751583324  0.649852940
     0.498452533  0.249512149  0.649458086
     0.497111107  0.749149086  0.649806910
     0.250563667  0.501940685  0.649324514
     0.250485573  0.999484701  0.648703906
     0.748112898  0.507666596  0.650374162
     0.750064248  0.001792568  0.649569497
     0.499988984  0.249994984  0.743277021
     0.499989025  0.749994958  0.743277021
     0.999988984  0.249994984  0.743277021
     0.999989025  0.749994958  0.743277021
     0.250000502  0.000001000  0.743255960
     0.250000517  0.500001003  0.743255960
     0.750000502  0.000001000  0.743255960
     0.750000491  0.500001003  0.743255960
     0.727762924  0.398646019  0.504610144
     0.667981402  0.370188638  0.515848476
     0.715141887  0.457250862  0.490953849
     0.595122265  0.399811950  0.514093792
     0.644982276  0.488994055  0.488451578
     0.582913995  0.459391808  0.500670666
     0.762003856  0.497906465  0.543197880
     0.692955521  0.596443293  0.555248141
     0.781622445  0.540799900  0.579754996
     0.836386342  0.604078580  0.547686509
     0.839395926  0.456696486  0.541052065
     0.830273159  0.376024051  0.532730881
     0.662550640  0.608978946  0.532497986
     0.727986374  0.478473637  0.586305867
     0.872471793  0.663733754  0.561014065
     0.803371821  0.371987587  0.509002899
     0.056207410  0.204513961  0.564432290
     0.047221131  0.706055970  0.565087817
     0.551594667  0.209611896  0.564478869
     0.529187705  0.707951197  0.570672918
     0.446113757  0.288070813  0.565470035
     0.452847791  0.809238521  0.564324664
     0.954286313  0.281259487  0.570613153
     0.972829760  0.811753751  0.569249965
     0.204063777  0.452965325  0.564298047
     0.196086549  0.957052745  0.564674160
     0.713126986  0.944325548  0.564749981
     0.298321177  0.039812550  0.566283430
     0.293234059  0.549365060  0.565953652
     0.794052902  0.048031067  0.564761030
     0.042226948  0.205237553  0.659126584
     0.045104153  0.708959897  0.659456545
     0.541838375  0.205183832  0.658975370
     0.545441365  0.704227956  0.658145004
     0.208047721  0.450285155  0.658971341
     0.204476033  0.956290333  0.657551745
     0.701835736  0.465488887  0.660074711
     0.707857166  0.959936374  0.660366151
     0.452356501  0.300062993  0.658844362
     0.448786742  0.794379294  0.660507598
     0.951466238  0.296773907  0.656557772
     0.953003139  0.798902843  0.658069610
     0.298607131  0.045617011  0.659259546
     0.291370343  0.550762985  0.659254418
     0.799178239  0.051377025  0.657989150
     0.806835304  0.544328898  0.659750366
     0.045862501  0.204119496  0.752725994
     0.045862500  0.704119456  0.752725994
     0.545862507  0.204119496  0.752725994
     0.545862496  0.704119456  0.752725994
     0.204119002  0.454101003  0.752704994
     0.204118991  0.954100951  0.752704994
     0.704118976  0.454101003  0.752704994
     0.704118964  0.954100951  0.752704994
     0.454140018  0.295888490  0.752726971
     0.454140007  0.795888516  0.752726971
     0.954140018  0.295888490  0.752726971
     0.954140060  0.795888516  0.752726971
     0.295882492  0.045900498  0.752704994
     0.295882481  0.545900528  0.752704994
     0.795882439  0.045900498  0.752704994
     0.795882481  0.545900528  0.752704994
     0.770635841  0.561228651  0.556348032
     0.497336301  0.007084488  0.552235637
     0.487983319  0.511989672  0.554759091
     0.000979416  0.003076047  0.551828268
     0.015338806  0.511001246  0.556075822
     0.253266871  0.249324612  0.551907324
     0.252750731  0.750386347  0.552808200
     0.736258226  0.234626761  0.556382218
     0.734541316  0.765485065  0.547746397
     0.000740517  0.003998958  0.653441609
     0.007602462  0.499031109  0.655863114
     0.498022896  0.000844322  0.654224237
     0.498442654  0.497869032  0.654899298
     0.251909174  0.246466012  0.654805774
     0.244291953  0.748472219  0.654235408
     0.749227710  0.249300562  0.655309903
     0.752377565  0.751730629  0.654428318
     0.144839687  0.107932852  0.607876221
     0.147019984  0.606563874  0.608793214
     0.644835255  0.106004482  0.608980873
     0.628050966  0.622155405  0.611840027
     0.353803799  0.390979423  0.608458491
     0.358253877  0.893272189  0.609121527
     0.870581802  0.379708275  0.611415076
     0.856541507  0.895685044  0.608820929
     0.109169621  0.355029995  0.608630217
     0.110555341  0.862162199  0.608875261
     0.595558227  0.344804241  0.606969912
     0.602845332  0.860760103  0.608660253
     0.393059299  0.142695480  0.608555251
     0.394491375  0.640278164  0.609285256
     0.889827093  0.142712362  0.607902289
     0.907459561  0.646016799  0.611955712
     0.000000000  0.000000000  0.754927972
     0.000000000  0.500000000  0.754927972
     0.500000000  0.000000000  0.754927972
     0.499999989  0.500000000  0.754927972
     0.250000496  0.250000000  0.754939022
     0.250000511  0.749999974  0.754939022
     0.750000470  0.250000000  0.754939022
     0.750000458  0.749999974  0.754939022
     0.135790500  0.114209997  0.704782994
     0.135790502  0.614209984  0.704782994
     0.635790447  0.114209997  0.704782994
     0.635790488  0.614209984  0.704782994
     0.364209516  0.385789989  0.704782994
     0.364209505  0.885789963  0.704782994
     0.864209542  0.385789989  0.704782994
     0.864209531  0.885789963  0.704782994
     0.114217990  0.364218986  0.704780979
     0.114217992  0.864218986  0.704780979
     0.614218004  0.364218986  0.704780979
     0.614217992  0.864218986  0.704780979
     0.385782012  0.135781489  0.704782017
     0.385782001  0.635781489  0.704782017
     0.885781985  0.135781489  0.704782017
     0.885782027  0.635781489  0.704782017
     0.134667000  0.115332001  0.801256025
     0.134666989  0.615331988  0.801256025
     0.634666987  0.115332001  0.801256025
     0.634666976  0.615331988  0.801256025
     0.365333002  0.384667985  0.801256025
     0.365332990  0.884667959  0.801256025
     0.865332949  0.384667985  0.801256025
     0.865332938  0.884667959  0.801256025
     0.115328503  0.365337004  0.801264999
     0.115328505  0.865336978  0.801264999
     0.615328503  0.365337004  0.801264999
     0.615328492  0.865336978  0.801264999
     0.384671513  0.134662996  0.801264999
     0.384671501  0.634662970  0.801264999
     0.884671486  0.134662996  0.801264999
     0.884671528  0.634662970  0.801264999
     0.997636755  0.998349090  0.603054395
     0.000237459  0.504362727  0.605329447
     0.499449047  0.001546519  0.602195214
     0.500530584  0.500287536  0.604272717
     0.254158411  0.249245310  0.602859776
     0.246432867  0.749323899  0.601792058
     0.746537724  0.248855742  0.604757556
     0.743267066  0.761283793  0.605241844
     0.000000500  0.000000500  0.704828963
     0.000000500  0.500000475  0.704828963
     0.500000475  0.000000500  0.704828963
     0.500000464  0.500000475  0.704828963
     0.249999994  0.249999472  0.704824995
     0.250000010  0.749999498  0.704824995
     0.749999994  0.249999472  0.704824995
     0.749999983  0.749999498  0.704824995
     0.000000000  0.000000000  0.807317968
     0.000000000  0.500000000  0.807317968
     0.500000000  0.000000000  0.807317968
     0.499999989  0.500000000  0.807317968
     0.249999994  0.250000000  0.807317968
     0.250000010  0.749999974  0.807317968
     0.749999994  0.250000000  0.807317968
     0.749999983  0.749999974  0.807317968

  ion indices of the primitive-cell ions
   primitive index   ion index
                 1           1
                 2           2
                 3           3
                 4           4
                 5           5
                 6           6
                 7           7
                 8           8
                 9           9
                10          10
                11          11
                12          12
                13          13
                14          14
                15          15
                16          16
                17          17
                18          18
                19          19
                20          20
                21          21
                22          22
                23          23
                24          24
                25          25
                26          26
                27          27
                28          28
                29          29
                30          30
                31          31
                32          32
                33          33
                34          34
                35          35
                36          36
                37          37
                38          38
                39          39
                40          40
                41          41
                42          42
                43          43
                44          44
                45          45
                46          46
                47          47
                48          48
                49          49
                50          50
                51          51
                52          52
                53          53
                54          54
                55          55
                56          56
                57          57
                58          58
                59          59
                60          60
                61          61
                62          62
                63          63
                64          64
                65          65
                66          66
                67          67
                68          68
                69          69
                70          70
                71          71
                72          72
                73          73
                74          74
                75          75
                76          76
                77          77
                78          78
                79          79
                80          80
                81          81
                82          82
                83          83
                84          84
                85          85
                86          86
                87          87
                88          88
                89          89
                90          90
                91          91
                92          92
                93          93
                94          94
                95          95
                96          96
                97          97
                98          98
                99          99
               100         100
               101         101
               102         102
               103         103
               104         104
               105         105
               106         106
               107         107
               108         108
               109         109
               110         110
               111         111
               112         112
               113         113
               114         114
               115         115
               116         116
               117         117
               118         118
               119         119
               120         120
               121         121
               122         122
               123         123
               124         124
               125         125
               126         126
               127         127
               128         128
               129         129
               130         130
               131         131
               132         132
               133         133
               134         134
               135         135
               136         136
               137         137
               138         138
               139         139
               140         140
               141         141
               142         142
               143         143
               144         144
               145         145
               146         146
               147         147
               148         148
               149         149
               150         150
               151         151
               152         152
               153         153
               154         154
               155         155
               156         156
               157         157
               158         158
               159         159
               160         160
               161         161
               162         162
               163         163
               164         164
               165         165
               166         166
               167         167
               168         168
               169         169
               170         170
               171         171
               172         172
               173         173
               174         174
               175         175
               176         176
               177         177
               178         178
               179         179
               180         180
               181         181
               182         182
               183         183
               184         184
               185         185
               186         186
               187         187
               188         188
               189         189
               190         190
               191         191
               192         192
               193         193
               194         194
               195         195
               196         196
               197         197
               198         198
               199         199
               200         200
               201         201
               202         202
               203         203
               204         204
               205         205
               206         206
               207         207
               208         208
               209         209
               210         210
               211         211
               212         212
               213         213
               214         214
               215         215
               216         216
               217         217
               218         218
               219         219
               220         220
               221         221
               222         222
               223         223
               224         224
               225         225
               226         226
               227         227
               228         228
               229         229
               230         230
               231         231
               232         232
               233         233
               234         234
               235         235
               236         236
               237         237
               238         238
               239         239
               240         240
               241         241
               242         242
               243         243
               244         244
               245         245
               246         246
               247         247
               248         248
               249         249
               250         250
               251         251
               252         252
               253         253
               254         254
               255         255
               256         256
               257         257
               258         258
               259         259
               260         260
               261         261
               262         262
               263         263
               264         264
               265         265
               266         266
               267         267
               268         268
               269         269
               270         270
               271         271
               272         272
               273         273
               274         274
               275         275
               276         276
               277         277
               278         278
               279         279
               280         280
               281         281
               282         282
               283         283
               284         284
               285         285
               286         286
               287         287
               288         288
               289         289
               290         290
               291         291
               292         292
               293         293
               294         294
               295         295
               296         296
               297         297
               298         298
               299         299
               300         300
               301         301
               302         302
               303         303
               304         304
               305         305
               306         306
               307         307
               308         308
               309         309
               310         310
               311         311
               312         312
               313         313
               314         314
               315         315
               316         316
               317         317
               318         318
               319         319
               320         320
               321         321
               322         322
               323         323
               324         324
               325         325

----------------------------------------------------------------------------------------

 
 
 KPOINTS: Automatic Mesh                          

Automatic generation of k-mesh.
 Grid dimensions read from file:
 generate k-points for:    3    3    1

 Generating k-lattice:

  Cartesian coordinates                     Fractional coordinates (reciprocal lattice)
     0.018456177  0.000005026 -0.000000000     0.333333333  0.000000000  0.000000000
     0.000000000  0.018454135  0.000000000     0.000000000  0.333333333  0.000000000
     0.000000000 -0.000000000  0.016003201     0.000000000  0.000000000  1.000000000

  Length of vectors
     0.018456178  0.018454135  0.016003201

  Shift w.r.t. Gamma in fractional coordinates (k-lattice)
     0.000000000  0.000000000  0.000000000

 
 Subroutine IBZKPT returns following result:
 ===========================================
 
 Found      5 irreducible k-points:
 
 Following reciprocal coordinates:
            Coordinates               Weight
  0.000000  0.000000  0.000000      1.000000
  0.333333  0.000000  0.000000      2.000000
  0.000000  0.333333  0.000000      2.000000
  0.333333  0.333333  0.000000      2.000000
 -0.333333  0.333333  0.000000      2.000000
 
 Following cartesian coordinates:
            Coordinates               Weight
  0.000000  0.000000  0.000000      1.000000
  0.018456  0.000005  0.000000      2.000000
  0.000000  0.018454  0.000000      2.000000
  0.018456  0.018459  0.000000      2.000000
 -0.018456  0.018449  0.000000      2.000000
 


--------------------------------------------------------------------------------------------------------




 Dimension of arrays:
   k-points           NKPTS =      5   k-points in BZ     NKDIM =      5   number of bands    NBANDS=    732
   number of dos      NEDOS =    301   number of ions     NIONS =    325
   non local maximal  LDIM  =      5   non local SUM 2l+1 LMDIM =     13
   total plane-waves  NPLWV = ******
   max r-space proj   IRMAX =   3336   max aug-charges    IRDMAX=  19845
   dimension x,y,z NGX =   100 NGY =  100 NGZ =  350
   dimension x,y,z NGXF=   200 NGYF=  200 NGZF=  700
   support grid    NGXF=   200 NGYF=  200 NGZF=  700
   ions per type =             143  39  47  72  24
   NGX,Y,Z   is equivalent  to a cutoff of   9.20,  9.20,  9.31 a.u.
   NGXF,Y,Z  is equivalent  to a cutoff of  18.41, 18.41, 18.62 a.u.

 SYSTEM =  PSC                                     
 POSCAR =   H  C  N  I Pb                          

 Startparameter for this run:
   NWRITE =      2    write-flag & timer
   PREC   = normal    normal or accurate (medium, high low for compatibility)
   ISTART =      0    job   : 0-new  1-cont  2-samecut
   ICHARG =      1    charge: 1-file 2-atom 10-const
   ISPIN  =      1    spin polarized calculation?
   LNONCOLLINEAR =      F non collinear calculations
   LSORBIT =      F    spin-orbit coupling
   INIWAV =      1    electr: 0-lowe 1-rand  2-diag
   LASPH  =      F    aspherical Exc in radial PAW
 Electronic Relaxation 1
   ENCUT  =  500.0 eV  36.75 Ry    6.06 a.u.  32.93 32.93113.93*2*pi/ulx,y,z
   ENINI  =  500.0     initial cutoff
   ENAUG  =  644.9 eV  augmentation charge cutoff
   NELM   =    600;   NELMIN=  2; NELMDL=  0     # of ELM steps 
   EDIFF  = 0.1E-03   stopping-criterion for ELM
   LREAL  =      T    real-space projection
   NLSPLINE    = F    spline interpolate recip. space projectors
   LCOMPAT=      F    compatible to vasp.4.4
   GGA_COMPAT  = F    GGA compatible to vasp.4.4-vasp.4.6
   LMAXPAW     = -100 max onsite density
   LMAXMIX     =    2 max onsite mixed and CHGCAR
   VOSKOWN=      0    Vosko Wilk Nusair interpolation
   ROPT   =   -0.00050  -0.00050  -0.00050  -0.00050
   ROPT   =   -0.00050
 Ionic relaxation
   EDIFFG = 0.1E-02   stopping-criterion for IOM
   NSW    =      0    number of steps for IOM
   NBLOCK =      1;   KBLOCK =      1    inner block; outer block 
   IBRION =     -1    ionic relax: 0-MD 1-quasi-New 2-CG
   NFREE  =      0    steps in history (QN), initial steepest desc. (CG)
   ISIF   =      2    stress and relaxation
   IWAVPR =     10    prediction:  0-non 1-charg 2-wave 3-comb
   ISYM   =      0    0-nonsym 1-usesym 2-fastsym
   LCORR  =      T    Harris-Foulkes like correction to forces

   POTIM  = 0.5000    time-step for ionic-motion
   TEIN   =    0.0    initial temperature
   TEBEG  =    0.0;   TEEND  =   0.0 temperature during run
   SMASS  =  -3.00    Nose mass-parameter (am)
   estimated Nose-frequenzy (Omega)   =  0.10E-29 period in steps = 0.13E+47 mass=  -0.745E-26a.u.
   SCALEE = 1.0000    scale energy and forces
   NPACO  =    256;   APACO  = 16.0  distance and # of slots for P.C.
   PSTRESS=    0.0 pullay stress

  Mass of Ions in am
   POMASS =   1.00 12.01 14.00126.90207.20
  Ionic Valenz
   ZVAL   =   1.00  4.00  5.00  7.00  4.00
  Atomic Wigner-Seitz radii
   RWIGS  =  -1.00 -1.00 -1.00 -1.00 -1.00
  virtual crystal weights 
   VCA    =   1.00  1.00  1.00  1.00  1.00
   NELECT =    1134.0000    total number of electrons
   NUPDOWN=      -1.0000    fix difference up-down

 DOS related values:
   EMIN   =  10.00;   EMAX   =-10.00  energy-range for DOS
   EFERMI =   0.00
   ISMEAR =     0;   SIGMA  =   0.05  broadening in eV -4-tet -1-fermi 0-gaus

 Electronic relaxation 2 (details)
   IALGO  =     38    algorithm
   LDIAG  =      T    sub-space diagonalisation (order eigenvalues)
   LSUBROT=      F    optimize rotation matrix (better conditioning)
   TURBO    =      0    0=normal 1=particle mesh
   IRESTART =      0    0=no restart 2=restart with 2 vectors
   NREBOOT  =      0    no. of reboots
   NMIN     =      0    reboot dimension
   EREF     =   0.00    reference energy to select bands
   IMIX   =      4    mixing-type and parameters
     AMIX     =   0.40;   BMIX     =  0.01
     AMIX_MAG =   1.60;   BMIX_MAG =  0.01
     AMIN     =   0.01
     WC   =   100.;   INIMIX=   1;  MIXPRE=   1;  MAXMIX= -45

 Intra band minimization:
   WEIMIN = 0.0000     energy-eigenvalue tresh-hold
   EBREAK =  0.34E-07  absolut break condition
   DEPER  =   0.30     relativ break condition  

   TIME   =   0.40     timestep for ELM

  volume/ion in A,a.u.               =      62.72       423.28
  Fermi-wavevector in a.u.,A,eV,Ry     =   0.624944  1.180972  5.313816  0.390554
  Thomas-Fermi vector in A             =   1.685677
 
 Write flags
   LWAVE        =      F    write WAVECAR
   LDOWNSAMPLE  =      F    k-point downsampling of WAVECAR
   LCHARG       =      T    write CHGCAR
   LVTOT        =      T    write LOCPOT, total local potential
   LVHAR        =      F    write LOCPOT, Hartree potential only
   LELF         =      F    write electronic localiz. function (ELF)
   LORBIT       =      0    0 simple, 1 ext, 2 COOP (PROOUT), +10 PAW based schemes


 Dipole corrections
   LMONO  =      F    monopole corrections only (constant potential shift)
   LDIPOL =      T    correct potential (dipole corrections)
   IDIPOL =      3    1-x, 2-y, 3-z, 4-all directions 
   EPSILON=  1.0000000 bulk dielectric constant

 Exchange correlation treatment:
   GGA     =    --    GGA type
   LEXCH   =     8    internal setting for exchange type
   VOSKOWN=      0    Vosko Wilk Nusair interpolation
   LHFCALC =     F    Hartree Fock is set to
   LHFONE  =     F    Hartree Fock one center treatment
   AEXX    =    0.0000 exact exchange contribution

 Linear response parameters
   LEPSILON=     F    determine dielectric tensor
   LRPA    =     F    only Hartree local field effects (RPA)
   LNABLA  =     F    use nabla operator in PAW spheres
   LVEL    =     F    velocity operator in full k-point grid
   LINTERFAST=   F  fast interpolation
   KINTER  =     0    interpolate to denser k-point grid
   CSHIFT  =0.1000    complex shift for real part using Kramers Kronig
   OMEGAMAX=  -1.0    maximum frequency
   DEG_THRESHOLD= 0.2000000E-02 threshold for treating states as degnerate
   RTIME   =   -0.100 relaxation time in fs
  (WPLASMAI=    0.000 imaginary part of plasma frequency in eV, 0.658/RTIME)
   DFIELD  = 0.0000000 0.0000000 0.0000000 field for delta impulse in time
 
 Orbital magnetization related:
   ORBITALMAG=     F  switch on orbital magnetization
   LCHIMAG   =     F  perturbation theory with respect to B field
   DQ        =  0.001000  dq finite difference perturbation B field
   LLRAUG    =     F  two centre corrections for induced B field



--------------------------------------------------------------------------------------------------------


 Static calculation
 charge density and potential will be updated during run
 non-spin polarized calculation
 Variant of blocked Davidson
 Davidson routine will perform the subspace rotation
 perform sub-space diagonalisation
    after iterative eigenvector-optimisation
 modified Broyden-mixing scheme, WC =      100.0
 initial mixing is a Kerker type mixing with AMIX =  0.4000 and BMIX =      0.0100
 Hartree-type preconditioning will be used
 using additional bands           165
 real space projection scheme for non local part
[...]
     13.54561      0.00000     45.35368        -0.000464      0.004844      0.012216
     13.54315      9.03140     45.35368         0.001413     -0.001060      0.012798
     12.98405      8.30582     34.30738         0.139427      0.251066      0.065085
     13.40837      9.36525     32.95027         0.390910     -0.516443      0.576565
     11.87833     10.06825     35.24240        -0.075900      0.002442     -0.359465
     12.51301     11.68599     35.30519         0.241199     -0.095869     -0.286494
     15.14462      9.41967     36.32263         0.142991      0.052959      0.097530
     14.01419     10.68257     36.83680        -0.147035     -0.308205     -0.271592
     15.84507     10.13389     34.14658         0.339865      0.082047     -0.257680
     14.81859     11.26279     33.26813        -0.404116      0.374469     -1.277222
     15.85317      8.80679     33.17116        -0.102809     -0.332590     -0.091175
     15.57426      8.22130     34.82507         0.245302     -0.156637     -0.151381
     16.00398      6.38420     33.35476         0.254769     -0.447744     -0.201695
     14.35769      6.23259     33.95058        -0.343114     -0.193392      0.188832
     11.26534     10.21465     32.91919         0.357485      0.271671      0.315743
     12.75758     11.14831     32.52903        -0.041424     -0.044338      0.032637
     11.47132     11.99619     33.29895        -0.094660     -0.442634     -0.102659
     13.13152      8.64332     37.73404        -0.046234     -0.337619     -0.180073
     13.43138      7.63560     36.25924        -0.024901      0.569188      0.304894
     12.10838      8.86707     36.30579         0.476595     -0.361471      0.356476
     15.17410     12.29032     35.94070         0.121104     -0.207449     -0.281358
     15.82004     12.93349     34.49285         0.179634     -0.404625     -0.066931
     16.74873     11.62245     35.42066        -0.788819      0.311632     -0.356525
     15.21767      7.19877     31.17368         0.801819      0.502994     -0.710288
     14.51200      5.65794     31.59270         0.219831     -0.685107     -0.413115
     12.19947      5.85236     32.97200         0.049314      0.649624     -0.694760
     13.72472      8.70504     30.14343         0.748833      0.243365     -0.437056
      9.93862      6.79183     32.72297         0.081781      0.112986     -0.034103
     11.45518      9.64506     29.88905        -0.053244      1.244483     -1.012224
      9.59124      8.76063     31.18681        -1.492545      0.606985     -0.081125
      0.04641      4.43028     34.82507        -2.383264      1.750136      2.591673
      0.15584     13.77857     34.80204        -0.064020      0.049667      2.682123
      8.98475      4.42004     34.67984        -2.097515      1.655493      1.827540
      8.96684     13.57365     34.81916        -2.294466      3.008144      2.537307
      4.49852      9.11877     34.73927        -1.712006     -1.810257     -0.866204
      4.47486     18.00424     34.76004         2.050331      1.561210     -0.713689
     13.71699     17.94480     34.72545        -1.302623     -1.962256     -0.758039
      0.00030      4.47696     40.52776        -2.170917      2.227014     -2.189802
      0.00909     13.57570     40.60769        -1.819891      1.930712     -3.212319
      9.00122      4.50689     40.58301        -3.157632      3.116537     -1.491490
      8.97454     13.53173     40.60481        -2.184005      2.174221     -0.605986
      4.52291      9.06645     40.57467        -1.162941     -1.428132     -0.255614
      4.51905     18.05349     40.53588         3.355944      3.235825     -0.762050
     13.50902      9.16988     40.64025         3.457213      2.573647      0.670013
     13.54675      0.03238     40.58997         3.004779      3.104395     -1.245174
      9.02897      4.51561     46.44552         0.007680      0.004146      0.039377
      9.02651     13.54701     46.44552        -0.000941      0.014706      0.045443
     18.05937      4.51561     46.44552         0.012576      0.004775      0.033232
     18.05691     13.54701     46.44552         0.033332     -0.018538      0.044481
      4.51521      0.00002     46.44421         0.013651      0.013008      0.044341
      4.51275      9.03142     46.44421        -0.014144     -0.013819      0.050804
     13.54561      0.00002     46.44421         0.005393      0.007963      0.056426
     13.54315      9.03142     46.44421        -0.006679     -0.008467      0.054004
     13.14202      7.20066     31.53183        -0.431772      0.072822      0.679685
     12.06246      6.68664     32.23408        -1.479490     -0.737852      0.944507
     12.91379      8.25923     30.67848        -1.112264      1.046298     -0.631238
     10.74642      7.22172     32.12444         1.031621     -0.498401      0.017023
     11.64649      8.83260     30.52212        -1.217641     -2.280843      2.104388
     10.52563      8.29790     31.28566         2.834438      0.263407     -1.173836
     13.75995      8.99358     33.94308         1.660701     -2.500372     -2.563122
     12.51240     10.77344     34.69607        -0.245676      0.179925     -0.250856
     14.11407      9.76836     36.22744        -0.272596     -0.816227     -0.237016
     15.10284     10.91135     34.22356         0.090982      0.202119      1.314447
     15.15792      8.24922     33.80899        -1.988962     -0.994917     -0.214674
     14.99355      6.79205     33.28902         0.455275      2.186274     -0.735140
     11.96320     10.99986     33.27447        -0.159666      0.450914      0.365750
     13.14566      8.64257     36.63679         0.009815      0.445402      0.045380
     15.75427     11.98889     35.05637         0.063037      0.179191      0.419644
     14.50771      6.71914     31.80632         0.261771     -1.044492      1.451492
      1.01414      3.69409     35.26996         0.366920     -0.315126     -0.226621
      0.84938     12.75335     35.31092        -0.503015      1.458859     -2.607132
      9.96121      3.78618     35.27287         0.161148     -0.102776      0.218352
      9.55407     12.78758     35.65992         0.834517     -1.039700      0.290920
      8.05575      5.20337     35.33481         1.612179     -1.208274     -1.463556
      8.17481     14.61711     35.26324         2.033764     -2.611084     -3.151410
     17.23379      5.08033     35.65619         1.490263     -1.121168     -0.844068
     17.56609     14.66255     35.57101         0.304186     -0.788276     -1.592634
      3.68333      8.18182     35.26157         2.199068      2.042333      2.019331
      3.53677     17.28705     35.28508         0.635635      0.674737      3.111111
     12.87500     17.05716     35.28981         1.474508      2.997457      1.658025
      5.38772      0.71913     35.38564        -2.692305     -1.934007      1.713350
      5.29334      9.92307     35.36503        -0.701332     -0.990895      3.009206
     14.34099      0.86758     35.29050        -1.160350     -0.490095      3.094176
      0.76164      3.70716     41.18717         2.681888     -2.676017     -0.002797
      0.81113     12.80580     41.20779         2.811148     -2.898004      2.149742
      9.78503      3.70619     41.17772         2.630659     -2.765543     -0.541533
      9.84764     12.72033     41.12584        -1.402444      1.337972      0.398383
      3.75529      8.13341     41.17747         0.912533      1.213352     -3.245449
      3.68830     17.27328     41.08876        -3.033645     -2.935750     -2.511476
     12.67343      8.40803     41.24642         0.106671     -0.036103     -0.069936
     12.77975     17.33914     41.26463        -3.171450     -3.280975     -2.171622
      8.16844      5.41998     41.16954         1.381076     -1.592880     -2.915417
      8.10154     14.34871     41.27347         1.758926     -1.603387     -3.182834
     17.18278      5.36057     41.02665         1.721790     -1.734194     -1.145624
     17.20807     14.43042     41.12112         0.694020     -0.723320      2.495209
      5.39286      0.82397     41.19548        -1.400578     -1.379682     -3.402208
      5.25967      9.94832     41.19516         0.513469      0.419964     -2.789142
     14.43355      0.92801     41.11610        -1.515708     -1.560418     -3.214726
     14.56941      9.83210     41.22615        -3.389440     -2.118848     -2.076489
      0.82731      3.68697     47.03596         0.016318     -0.027378     -0.083506
      0.82485     12.71837     47.03596         0.006554     -0.007673     -0.096421
      9.85771      3.68697     47.03596         0.023090     -0.022962     -0.088044
      9.85525     12.71837     47.03596         0.030572     -0.027097     -0.087973
      3.68432      8.20234     47.03465        -0.003458     -0.001371     -0.076657
      3.68186     17.23373     47.03465        -0.023482     -0.019835     -0.066903
     12.71472      8.20234     47.03465        -0.008572     -0.005569     -0.083570
     12.71226     17.23373     47.03465        -0.011375     -0.020609     -0.078447
      8.20068      5.34457     47.03603        -0.015095      0.019498     -0.089833
      8.19822     14.37597     47.03603        -0.011129      0.009443     -0.097026
     17.23108      5.34457     47.03603        -0.023165      0.017890     -0.090469
     17.22862     14.37597     47.03603        -0.035828      0.029782     -0.090210
      5.34365      0.82909     47.03465         0.001613     -0.000256     -0.070525
      5.34119      9.86049     47.03465         0.019230      0.019564     -0.072360
     14.37405      0.82909     47.03465         0.008336      0.001453     -0.077611
     14.37159      9.86049     47.03465         0.009737      0.019706     -0.078277
     13.91554     10.13736     34.76480        -1.285593      1.801729      1.509743
      8.98226      0.12797     34.50782        -0.027104      0.006268      0.002302
      8.81085      9.24797     34.66551         0.033404      0.058774      0.024251
      0.01767      0.05556     34.48237        -0.066516     -0.024014     -0.002947
      0.27452      9.23011     34.74779         0.436983     -0.057640     -0.180498
      4.57298      4.50350     34.48731        -0.044117     -0.000401      0.006802
      4.56119     13.55408     34.54360        -0.050943     -0.000490     -0.191454
     13.29626      4.23802     34.76693        -0.036068     -0.736905      0.034524
     13.26264     13.82680     34.22730        -0.205736      1.590443      0.085477
      0.01335      0.07223     40.83193         0.039675     -0.027131      0.119216
      0.13485      9.01390     40.98325         0.011614      0.014693     -0.071163
      8.99469      0.01525     40.88084         0.086775     -0.010373      0.020627
      8.99982      8.99291     40.92302         0.011247      0.012133      0.036872
      4.54847      4.45187     40.91718        -0.060013      0.001382     -0.081149
      4.40843     13.51950     40.88153         0.058576      0.056315      0.004084
     13.53043      4.50307     40.94868        -0.072616      0.067671      0.046969
     13.58484     13.57836     40.89359        -0.031183      0.039654     -0.199988
      2.61539      1.94957     37.98466        -0.187569     -0.112170     -0.055436
      2.65232     10.95624     38.04197        -0.070155      0.026662     -0.049135
     11.64572      1.91474     38.05369        -0.084384     -0.099052     -0.015744
     11.34004     11.23787     38.23235         0.052454      0.170460      0.132746
      6.38806      7.06218     38.02105         0.189954      0.228815     -0.032431
      6.46596     16.13500     38.06248        -0.010502     -0.090047     -0.047986
     15.72154      6.85859     38.20580         0.018371      0.130919     -0.090442
     15.46542     16.17858     38.04370        -0.106871     -0.095620     -0.025074
      1.96994      6.41284     38.03178         0.128448      0.045798     -0.073096
      1.99248     15.57306     38.04709         0.058359     -0.021301      0.058834
     10.75456      6.22813     37.92803        -0.009232      0.060672     -0.013801
     10.88364     15.54774     38.03366         0.256272     -0.147696      0.049035
      7.09826      2.57748     38.02710         0.093803     -0.120729     -0.032592
      7.12168     11.56522     38.07271        -0.290469      0.102352      0.037715
     16.07029      2.57778     37.98629         0.066910     -0.207232      0.010864
     16.38627     11.66887     38.23958        -0.115180      0.230784      0.786458
      0.00000      0.00000     47.17356        -0.004815     -0.004676      0.346383
     -0.00246      9.03140     47.17356        -0.003247      0.003630      0.519449
      9.03040      0.00000     47.17356         0.003676     -0.005617      0.445500
      9.02794      9.03140     47.17356         0.003235      0.002840      0.442413
      4.51398      4.51570     47.17425        -0.000147     -0.001346      0.487546
      4.51152     13.54710     47.17425        -0.001735     -0.000641      0.439701
     13.54438      4.51570     47.17425         0.000509     -0.000408      0.491904
     13.54192     13.54710     47.17425         0.002081     -0.000112      0.287808
      2.45192      2.06295     44.04013        -0.036589     -0.048082     -0.031369
      2.44946     11.09435     44.04013         0.003322      0.020836     -0.013555
     11.48232      2.06295     44.04013         0.000995     -0.006985     -0.039248
     11.47986     11.09435     44.04013         0.024610      0.037198     -0.051425
      6.57602      6.96845     44.04013        -0.014553      0.063428      0.016246
      6.57356     15.99985     44.04013        -0.054417      0.033106      0.029528
     15.60642      6.96845     44.04013        -0.018952      0.021783     -0.060774
     15.60396     15.99985     44.04013        -0.020241     -0.011356     -0.036703
      2.06108      6.57881     44.04000        -0.018384     -0.017771      0.002385
      2.05862     15.61021     44.04000        -0.018033      0.024242     -0.062270
     11.09148      6.57881     44.04000         0.002469      0.017758     -0.050618
     11.08902     15.61021     44.04000         0.033606     -0.047084     -0.046275
      6.96686      2.45259     44.04007         0.055390      0.005147      0.025559
      6.96440     11.48399     44.04007         0.029051      0.023368     -0.027947
     15.99726      2.45259     44.04007         0.039988      0.002509      0.001129
     15.99481     11.48399     44.04007         0.019161      0.082841      0.013566
      2.43163      2.08322     50.06849        -0.006087     -0.027683      0.021043
      2.42917     11.11462     50.06849         0.014895     -0.002265      0.019245
     11.46203      2.08322     50.06849         0.006729     -0.017185      0.020888
     11.45957     11.11462     50.06849         0.026820      0.005956      0.017712
      6.59631      6.94818     50.06849        -0.003759      0.017116      0.021158
      6.59385     15.97958     50.06849        -0.009525      0.009259      0.020767
     15.62671      6.94818     50.06849        -0.013572      0.008634      0.019965
     15.62425     15.97958     50.06849        -0.017896      0.002675      0.016468
      2.08113      6.59901     50.06905        -0.011664     -0.009110      0.021812
      2.07867     15.63041     50.06905        -0.019942     -0.003440      0.019634
     11.11153      6.59901     50.06905        -0.012609     -0.005570      0.020094
     11.10907     15.63041     50.06905         0.005565     -0.025542      0.018745
      6.94681      2.43239     50.06905         0.017896      0.000592      0.022743
      6.94435     11.46379     50.06905         0.009757      0.011802      0.020370
     15.97721      2.43239     50.06905         0.020993     -0.004554      0.019213
     15.97475     11.46379     50.06905        -0.011998      0.032360      0.017696
     18.01321     18.03298     37.68336         0.102078      0.369278     -0.000499
      0.00181      9.11020     37.82552         0.176219     -0.296145      0.105879
      9.02044      0.02793     37.62967        -0.153226      0.245870      0.015026
      9.03752      9.03659     37.75949        -0.141454     -0.240627     -0.085269
      4.58908      4.50207     37.67120        -0.208778      0.048669      0.049435
      4.44709     13.53489     37.60448         0.253256      0.016129      0.275261
     13.48184      4.49503     37.78979        -0.038690      0.145592      0.282027
     13.42025     13.75092     37.82005         0.053392     -0.098016     -0.176280
      0.00001      0.00001     44.04300         0.040349      0.047109      0.015522
     -0.00245      9.03141     44.04300         0.063877     -0.055329      0.173144
      9.03041      0.00001     44.04300        -0.061501      0.044830     -0.036704
      9.02795      9.03141     44.04300        -0.049810     -0.035140      0.128210
      4.51397      4.51569     44.04275         0.011720      0.004846     -0.019879
      4.51151     13.54709     44.04275         0.000366      0.008742     -0.024797
     13.54437      4.51569     44.04275         0.005158     -0.010409      0.088754
     13.54191     13.54709     44.04275        -0.024620     -0.014257      0.274414
      0.00000      0.00000     50.44728         0.013165      0.015808     -0.610743
     -0.00246      9.03140     50.44728         0.010588     -0.018177     -0.657975
      9.03040      0.00000     50.44728        -0.011467      0.017201     -0.638883
      9.02794      9.03140     50.44728        -0.013239     -0.016388     -0.636456
      4.51397      4.51570     50.44728         0.000503      0.008120     -0.653523
      4.51151     13.54710     50.44728         0.001769     -0.008887     -0.637225
     13.54437      4.51570     50.44728        -0.002332      0.008424     -0.649764
     13.54191     13.54710     50.44728        -0.001157     -0.009467     -0.591024
 -----------------------------------------------------------------------------------
    total drift:                                0.091915      0.132275      0.302596


--------------------------------------------------------------------------------------------------------



  FREE ENERGIE OF THE ION-ELECTRON SYSTEM (eV)
  ---------------------------------------------------
  free  energy   TOTEN  =     -1567.60205485 eV

  energy  without entropy=    -1567.60205485  energy(sigma->0) =    -1567.60205485
 


--------------------------------------------------------------------------------------------------------


    POTLOK:  cpu time    0.5051: real time    0.5050


--------------------------------------------------------------------------------------------------------


     LOOP+:  cpu time  326.7571: real time  327.3754
 vacuum level on the upper side and lower side of the slab         2.426         1.405
    4ORBIT:  cpu time    0.0000: real time    0.0000

 total amount of memory used by VASP MPI-rank0  8653580. kBytes
=======================================================================

   base      :      30000. kBytes
   nonlr-proj:      53618. kBytes
   fftplans  :     249280. kBytes
   grid      :     701440. kBytes
   one-center:       2636. kBytes
   wavefun   :    7616606. kBytes
 
  
  
 General timing and accounting informations for this job:
 ========================================================
  
                  Total CPU time used (sec):      538.525
                            User time (sec):      431.269
                          System time (sec):      107.256
                         Elapsed time (sec):      541.236
  
                   Maximum memory used (kb):    10313920.
                   Average memory used (kb):          N/A
  
                          Minor page faults:      3816678
                          Major page faults:           12
                 Voluntary context switches:        11254
