<?xml version="1.0" encoding="ISO-8859-1"?>
<modeling>
 <generator>
  <i name="program" type="string">vasp </i>
  <i name="version" type="string">6.2.1  </i>
  <i name="subversion" type="string">16May21 (build Nov 15 2021 14:57:28) complex                          parallel </i>
  <i name="platform" type="string">LinuxPGI </i>
  <i name="date" type="string">2023 07 30 </i>
  <i name="time" type="string">16:32:14 </i>
 </generator>
 <incar>
  <i type="string" name="SYSTEM">PSC</i>
  <i type="int" name="ISTART">     1</i>
  <i type="string" name="PREC">Normal</i>
  <i name="BMIX">      0.01000000</i>
  <i name="AMIN">      0.01000000</i>
  <i type="int" name="ICHARG">     1</i>
  <i type="int" name="NELM">   600</i>
  <i type="int" name="ISYM">     0</i>
  <i name="ENCUT">    500.00000000</i>
  <i type="string" name="LREAL">Auto</i>
  <i type="int" name="ISMEAR">     0</i>
  <i name="SIGMA">      0.05000000</i>
  <i type="logical" name="LWAVE"> F  </i>
  <i type="logical" name="LVTOT"> T  </i>
  <i type="logical" name="GGA_COMPAT"> F  </i>
  <i type="logical" name="LDIPOL"> T  </i>
  <i type="int" name="IDIPOL">     3</i>
  <i type="int" name="IVDW">    12</i>
 </incar>
 <primitive_cell>
  <structure name="primitive_cell" >
   <crystal>
    <varray name="basis" >
     <v>      18.06080055       0.00000000       0.00000000 </v>
     <v>      -0.00491865      18.06279945       0.00000000 </v>
     <v>       0.00000000       0.00000000      62.48749924 </v>
    </varray>
    <i name="volume">  20385.21054034 </i>
    <varray name="rec_basis" >
     <v>       0.05536853       0.00001508      -0.00000000 </v>
     <v>       0.00000000       0.05536240       0.00000000 </v>
     <v>       0.00000000      -0.00000000       0.01600320 </v>
    </varray>
   </crystal>
   <varray name="positions" >
    <v>       0.44806198       0.29808416       0.58174038 </v>
    <v>       0.44430079       0.81755242       0.57970683 </v>
    <v>       0.95667848       0.27644819       0.58704472 </v>
    <v>       0.96982958       0.80479897       0.58522545 </v>
    <v>       0.29999760       0.04558927       0.58307494 </v>
    <v>       0.29880830       0.54949141       0.58284271 </v>
    <v>       0.78832779       0.06104273       0.58121574 </v>
    <v>       0.09127262       0.17878068       0.55434220 </v>
    <v>       0.07636931       0.67267885       0.55488405 </v>
    <v>       0.58897524       0.18126282       0.55513954 </v>
    <v>       0.55831508       0.66428385       0.56440793 </v>
    <v>       0.33590503       0.06756610       0.55831522 </v>
    <v>       0.32396564       0.58493535       0.55824374 </v>
    <v>       0.82650458       0.08057160       0.55659271 </v>
    <v>       0.06785070       0.19482465       0.58014307 </v>
    <v>       0.05162414       0.69767032       0.58069555 </v>
    <v>       0.56239438       0.21375098       0.58092900 </v>
    <v>       0.52567429       0.71056421       0.58721034 </v>
    <v>       0.19982607       0.44288294       0.58089249 </v>
    <v>       0.18662966       0.95376477       0.58139540 </v>
    <v>       0.69985589       0.94633026       0.58111434 </v>
    <v>       0.40353302       0.31092871       0.55658966 </v>
    <v>       0.42828527       0.84248798       0.55338321 </v>
    <v>       0.91135572       0.31251641       0.56523995 </v>
    <v>       0.94022477       0.85185192       0.56224698 </v>
    <v>       0.17275096       0.42191048       0.55519088 </v>
    <v>       0.16251600       0.92807093       0.55577413 </v>
    <v>       0.69062180       0.90398936       0.55634992 </v>
    <v>       0.49001648       0.23961356       0.53777529 </v>
    <v>       0.50442574       0.74184521       0.54069970 </v>
    <v>       0.99224655       0.25403076       0.54071575 </v>
    <v>       0.00386603       0.77115549       0.54017542 </v>
    <v>       0.24735107       0.50860302       0.53825078 </v>
    <v>       0.25254554       0.99557246       0.53856237 </v>
    <v>       0.77069809       0.98594474       0.53837886 </v>
    <v>       0.45081626       0.30464634       0.67453793 </v>
    <v>       0.44786843       0.79396631       0.67621765 </v>
    <v>       0.94317699       0.30466426       0.67203536 </v>
    <v>       0.94570465       0.80481597       0.67482601 </v>
    <v>       0.29921141       0.04715466       0.67497509 </v>
    <v>       0.29638642       0.55212194       0.67482766 </v>
    <v>       0.80444885       0.05749313       0.67354884 </v>
    <v>       0.81856711       0.54149620       0.67515622 </v>
    <v>       0.07908308       0.16812280       0.65095356 </v>
    <v>       0.08201494       0.67380529       0.65078208 </v>
    <v>       0.57502081       0.16816583       0.64928215 </v>
    <v>       0.57501605       0.67396790       0.64837688 </v>
    <v>       0.17536524       0.41720996       0.64920047 </v>
    <v>       0.16926438       0.92210916       0.64690014 </v>
    <v>       0.66288295       0.44345345       0.65116961 </v>
    <v>       0.67089180       0.92239531       0.65135513 </v>
    <v>       0.04419312       0.20322966       0.67521092 </v>
    <v>       0.04834260       0.70294962       0.67635287 </v>
    <v>       0.54926420       0.20113617       0.67502283 </v>
    <v>       0.55018514       0.69730211       0.67388173 </v>
    <v>       0.20421820       0.44787320       0.67461070 </v>
    <v>       0.19629998       0.94879020       0.67298605 </v>
    <v>       0.70025028       0.45181661       0.67551567 </v>
    <v>       0.70399786       0.95665147       0.67604037 </v>
    <v>       0.41976102       0.33309617       0.64904302 </v>
    <v>       0.41430934       0.82834738       0.65163339 </v>
    <v>       0.92184736       0.32676620       0.64622422 </v>
    <v>       0.91975527       0.82860525       0.64876727 </v>
    <v>       0.33363716       0.07846931       0.65013284 </v>
    <v>       0.32421446       0.58543603       0.64972535 </v>
    <v>       0.82895945       0.08340291       0.64723138 </v>
    <v>       0.83838617       0.57518799       0.65035505 </v>
    <v>       0.00432515       0.24418043       0.63050355 </v>
    <v>       0.00108605       0.75018434       0.63163445 </v>
    <v>       0.49572506       0.24810997       0.63139563 </v>
    <v>       0.49315731       0.75332369       0.63178341 </v>
    <v>       0.25330546       0.00179845       0.63074902 </v>
    <v>       0.25047012       0.50258524       0.63139741 </v>
    <v>       0.74755591       0.99960540       0.63161455 </v>
    <v>       0.74100509       0.51898933       0.63321625 </v>
    <v>       0.44874502       0.30128397       0.76888902 </v>
    <v>       0.44874501       0.80128391       0.76888902 </v>
    <v>       0.94874497       0.30128397       0.76888902 </v>
    <v>       0.94874501       0.80128391       0.76888902 </v>
    <v>       0.30127600       0.05129450       0.76887296 </v>
    <v>       0.30127601       0.55129450       0.76887296 </v>
    <v>       0.80127594       0.05129450       0.76887296 </v>
    <v>       0.80127598       0.55129450       0.76887296 </v>
    <v>       0.07877100       0.17118050       0.74344197 </v>
    <v>       0.07877101       0.67118045       0.74344197 </v>
    <v>       0.57877100       0.17118050       0.74344197 </v>
    <v>       0.57877099       0.67118045       0.74344197 </v>
    <v>       0.17119950       0.42117448       0.74342103 </v>
    <v>       0.17119950       0.92117451       0.74342103 </v>
    <v>       0.67119951       0.42117448       0.74342103 </v>
    <v>       0.67119950       0.92117451       0.74342103 </v>
    <v>       0.05125600       0.19871499       0.76888902 </v>
    <v>       0.05125600       0.69871493       0.76888902 </v>
    <v>       0.55125603       0.19871499       0.76888902 </v>
    <v>       0.55125602       0.69871493       0.76888902 </v>
    <v>       0.19872349       0.44870397       0.76887205 </v>
    <v>       0.19872349       0.94870397       0.76887205 </v>
    <v>       0.69872352       0.44870397       0.76887205 </v>
    <v>       0.69872351       0.94870397       0.76887205 </v>
    <v>       0.42123152       0.32881747       0.74344197 </v>
    <v>       0.42123151       0.82881744       0.74344197 </v>
    <v>       0.92123147       0.32881747       0.74344197 </v>
    <v>       0.92123151       0.82881744       0.74344197 </v>
    <v>       0.32880050       0.07882500       0.74342103 </v>
    <v>       0.32880049       0.57882496       0.74342103 </v>
    <v>       0.82880048       0.07882500       0.74342103 </v>
    <v>       0.82880052       0.57882496       0.74342103 </v>
    <v>       0.00000350       0.25000148       0.72582199 </v>
    <v>       0.00000350       0.75000145       0.72582199 </v>
    <v>       0.50000351       0.25000148       0.72582199 </v>
    <v>       0.50000350       0.75000145       0.72582199 </v>
    <v>       0.25000050       0.00000000       0.72580398 </v>
    <v>       0.25000052       0.50000000       0.72580398 </v>
    <v>       0.75000050       0.00000000       0.72580398 </v>
    <v>       0.75000049       0.50000000       0.72580398 </v>
    <v>       0.71903284       0.45983019       0.54902784 </v>
    <v>       0.74254280       0.51848279       0.52730975 </v>
    <v>       0.65783766       0.55740235       0.56399116 </v>
    <v>       0.69300339       0.64696425       0.56499600 </v>
    <v>       0.83867749       0.52149548       0.58127837 </v>
    <v>       0.77610627       0.59141294       0.58950664 </v>
    <v>       0.87747120       0.56103626       0.54645451 </v>
    <v>       0.82065365       0.62353490       0.53239652 </v>
    <v>       0.87789954       0.48756509       0.53084470 </v>
    <v>       0.86244805       0.45515115       0.55731264 </v>
    <v>       0.88621305       0.35344451       0.53378291 </v>
    <v>       0.79505812       0.34505136       0.54331796 </v>
    <v>       0.62389912       0.56550785       0.52681246 </v>
    <v>       0.70653644       0.61719701       0.52056860 </v>
    <v>       0.63533086       0.66413803       0.53288973 </v>
    <v>       0.72720352       0.47851508       0.60386547 </v>
    <v>       0.74379071       0.42272526       0.58026395 </v>
    <v>       0.67055687       0.49090216       0.58100885 </v>
    <v>       0.84035298       0.68042174       0.57516625 </v>
    <v>       0.87612763       0.71602893       0.55199597 </v>
    <v>       0.92752791       0.64344676       0.56684397 </v>
    <v>       0.84268876       0.39854108       0.49887865 </v>
    <v>       0.80359344       0.31323726       0.50558440 </v>
    <v>       0.67555490       0.32400094       0.52765748 </v>
    <v>       0.76004889       0.48193183       0.48239141 </v>
    <v>       0.55038896       0.37601215       0.52367231 </v>
    <v>       0.63440203       0.53397390       0.47832040 </v>
    <v>       0.53118469       0.48500968       0.49908881 </v>
    <v>       0.00263632       0.24527115       0.55731258 </v>
    <v>       0.00883637       0.76281456       0.55694410 </v>
    <v>       0.49753883       0.24470394       0.55498845 </v>
    <v>       0.49668524       0.75147002       0.55721808 </v>
    <v>       0.24921387       0.50483696       0.55593944 </v>
    <v>       0.24803799       0.99675803       0.55627197 </v>
    <v>       0.75976030       0.99346701       0.55571833 </v>
    <v>       0.00008389       0.24785538       0.64857394 </v>
    <v>       0.00070822       0.75158332       0.64985294 </v>
    <v>       0.49845253       0.24951215       0.64945809 </v>
    <v>       0.49711111       0.74914909       0.64980691 </v>
    <v>       0.25056367       0.50194069       0.64932451 </v>
    <v>       0.25048557       0.99948470       0.64870391 </v>
    <v>       0.74811290       0.50766660       0.65037416 </v>
    <v>       0.75006425       0.00179257       0.64956950 </v>
    <v>       0.49998898       0.24999498       0.74327702 </v>
    <v>       0.49998903       0.74999496       0.74327702 </v>
    <v>       0.99998898       0.24999498       0.74327702 </v>
    <v>       0.99998903       0.74999496       0.74327702 </v>
    <v>       0.25000050       0.00000100       0.74325596 </v>
    <v>       0.25000052       0.50000100       0.74325596 </v>
    <v>       0.75000050       0.00000100       0.74325596 </v>
    <v>       0.75000049       0.50000100       0.74325596 </v>
    <v>       0.72776292       0.39864602       0.50461014 </v>
    <v>       0.66798140       0.37018864       0.51584848 </v>
    <v>       0.71514189       0.45725086       0.49095385 </v>
    <v>       0.59512227       0.39981195       0.51409379 </v>
    <v>       0.64498228       0.48899405       0.48845158 </v>
    <v>       0.58291399       0.45939181       0.50067067 </v>
    <v>       0.76200386       0.49790647       0.54319788 </v>
    <v>       0.69295552       0.59644329       0.55524814 </v>
    <v>       0.78162244       0.54079990       0.57975500 </v>
    <v>       0.83638634       0.60407858       0.54768651 </v>
    <v>       0.83939593       0.45669649       0.54105206 </v>
    <v>       0.83027316       0.37602405       0.53273088 </v>
    <v>       0.66255064       0.60897895       0.53249799 </v>
    <v>       0.72798637       0.47847364       0.58630587 </v>
    <v>       0.87247179       0.66373375       0.56101407 </v>
    <v>       0.80337182       0.37198759       0.50900290 </v>
    <v>       0.05620741       0.20451396       0.56443229 </v>
    <v>       0.04722113       0.70605597       0.56508782 </v>
    <v>       0.55159467       0.20961190       0.56447887 </v>
    <v>       0.52918770       0.70795120       0.57067292 </v>
    <v>       0.44611376       0.28807081       0.56547003 </v>
    <v>       0.45284779       0.80923852       0.56432466 </v>
    <v>       0.95428631       0.28125949       0.57061315 </v>
    <v>       0.97282976       0.81175375       0.56924997 </v>
    <v>       0.20406378       0.45296532       0.56429805 </v>
    <v>       0.19608655       0.95705274       0.56467416 </v>
    <v>       0.71312699       0.94432555       0.56474998 </v>
    <v>       0.29832118       0.03981255       0.56628343 </v>
    <v>       0.29323406       0.54936506       0.56595365 </v>
    <v>       0.79405290       0.04803107       0.56476103 </v>
    <v>       0.04222695       0.20523755       0.65912658 </v>
    <v>       0.04510415       0.70895990       0.65945655 </v>
    <v>       0.54183838       0.20518383       0.65897537 </v>
    <v>       0.54544136       0.70422796       0.65814500 </v>
    <v>       0.20804772       0.45028516       0.65897134 </v>
    <v>       0.20447603       0.95629033       0.65755175 </v>
    <v>       0.70183574       0.46548889       0.66007471 </v>
    <v>       0.70785717       0.95993637       0.66036615 </v>
    <v>       0.45235650       0.30006299       0.65884436 </v>
    <v>       0.44878674       0.79437929       0.66050760 </v>
    <v>       0.95146624       0.29677391       0.65655777 </v>
    <v>       0.95300314       0.79890284       0.65806961 </v>
    <v>       0.29860713       0.04561701       0.65925955 </v>
    <v>       0.29137034       0.55076298       0.65925442 </v>
    <v>       0.79917824       0.05137703       0.65798915 </v>
    <v>       0.80683530       0.54432890       0.65975037 </v>
    <v>       0.04586250       0.20411950       0.75272599 </v>
    <v>       0.04586250       0.70411946       0.75272599 </v>
    <v>       0.54586251       0.20411950       0.75272599 </v>
    <v>       0.54586250       0.70411946       0.75272599 </v>
    <v>       0.20411900       0.45410100       0.75270499 </v>
    <v>       0.20411899       0.95410095       0.75270499 </v>
    <v>       0.70411898       0.45410100       0.75270499 </v>
    <v>       0.70411896       0.95410095       0.75270499 </v>
    <v>       0.45414002       0.29588849       0.75272697 </v>
    <v>       0.45414001       0.79588852       0.75272697 </v>
    <v>       0.95414002       0.29588849       0.75272697 </v>
    <v>       0.95414006       0.79588852       0.75272697 </v>
    <v>       0.29588249       0.04590050       0.75270499 </v>
    <v>       0.29588248       0.54590053       0.75270499 </v>
    <v>       0.79588244       0.04590050       0.75270499 </v>
    <v>       0.79588248       0.54590053       0.75270499 </v>
    <v>       0.77063584       0.56122865       0.55634803 </v>
    <v>       0.49733630       0.00708449       0.55223564 </v>
    <v>       0.48798332       0.51198967       0.55475909 </v>
    <v>       0.00097942       0.00307605       0.55182827 </v>
    <v>       0.01533881       0.51100125       0.55607582 </v>
    <v>       0.25326687       0.24932461       0.55190732 </v>
    <v>       0.25275073       0.75038635       0.55280820 </v>
    <v>       0.73625823       0.23462676       0.55638222 </v>
    <v>       0.73454132       0.76548506       0.54774640 </v>
    <v>       0.00074052       0.00399896       0.65344161 </v>
    <v>       0.00760246       0.49903111       0.65586311 </v>
    <v>       0.49802290       0.00084432       0.65422424 </v>
    <v>       0.49844265       0.49786903       0.65489930 </v>
    <v>       0.25190917       0.24646601       0.65480577 </v>
    <v>       0.24429195       0.74847222       0.65423541 </v>
    <v>       0.74922771       0.24930056       0.65530990 </v>
    <v>       0.75237756       0.75173063       0.65442832 </v>
    <v>       0.14483969       0.10793285       0.60787622 </v>
    <v>       0.14701998       0.60656387       0.60879321 </v>
    <v>       0.64483525       0.10600448       0.60898087 </v>
    <v>       0.62805097       0.62215540       0.61184003 </v>
    <v>       0.35380380       0.39097942       0.60845849 </v>
    <v>       0.35825388       0.89327219       0.60912153 </v>
    <v>       0.87058180       0.37970827       0.61141508 </v>
    <v>       0.85654151       0.89568504       0.60882093 </v>
    <v>       0.10916962       0.35502999       0.60863022 </v>
    <v>       0.11055534       0.86216220       0.60887526 </v>
    <v>       0.59555823       0.34480424       0.60696991 </v>
    <v>       0.60284533       0.86076010       0.60866025 </v>
    <v>       0.39305930       0.14269548       0.60855525 </v>
    <v>       0.39449137       0.64027816       0.60928526 </v>
    <v>       0.88982709       0.14271236       0.60790229 </v>
    <v>       0.90745956       0.64601680       0.61195571 </v>
    <v>       0.00000000       0.00000000       0.75492797 </v>
    <v>       0.00000000       0.50000000       0.75492797 </v>
    <v>       0.50000000       0.00000000       0.75492797 </v>
    <v>       0.49999999       0.50000000       0.75492797 </v>
    <v>       0.25000050       0.25000000       0.75493902 </v>
    <v>       0.25000051       0.74999997       0.75493902 </v>
    <v>       0.75000047       0.25000000       0.75493902 </v>
    <v>       0.75000046       0.74999997       0.75493902 </v>
    <v>       0.13579050       0.11421000       0.70478299 </v>
    <v>       0.13579050       0.61420998       0.70478299 </v>
    <v>       0.63579045       0.11421000       0.70478299 </v>
    <v>       0.63579049       0.61420998       0.70478299 </v>
    <v>       0.36420952       0.38578999       0.70478299 </v>
    <v>       0.36420950       0.88578996       0.70478299 </v>
    <v>       0.86420954       0.38578999       0.70478299 </v>
    <v>       0.86420953       0.88578996       0.70478299 </v>
    <v>       0.11421799       0.36421899       0.70478098 </v>
    <v>       0.11421799       0.86421899       0.70478098 </v>
    <v>       0.61421800       0.36421899       0.70478098 </v>
    <v>       0.61421799       0.86421899       0.70478098 </v>
    <v>       0.38578201       0.13578149       0.70478202 </v>
    <v>       0.38578200       0.63578149       0.70478202 </v>
    <v>       0.88578199       0.13578149       0.70478202 </v>
    <v>       0.88578203       0.63578149       0.70478202 </v>
    <v>       0.13466700       0.11533200       0.80125603 </v>
    <v>       0.13466699       0.61533199       0.80125603 </v>
    <v>       0.63466699       0.11533200       0.80125603 </v>
    <v>       0.63466698       0.61533199       0.80125603 </v>
    <v>       0.36533300       0.38466799       0.80125603 </v>
    <v>       0.36533299       0.88466796       0.80125603 </v>
    <v>       0.86533295       0.38466799       0.80125603 </v>
    <v>       0.86533294       0.88466796       0.80125603 </v>
    <v>       0.11532850       0.36533700       0.80126500 </v>
    <v>       0.11532850       0.86533698       0.80126500 </v>
    <v>       0.61532850       0.36533700       0.80126500 </v>
    <v>       0.61532849       0.86533698       0.80126500 </v>
    <v>       0.38467151       0.13466300       0.80126500 </v>
    <v>       0.38467150       0.63466297       0.80126500 </v>
    <v>       0.88467149       0.13466300       0.80126500 </v>
    <v>       0.88467153       0.63466297       0.80126500 </v>
    <v>       0.99763676       0.99834909       0.60305440 </v>
    <v>       0.00023746       0.50436273       0.60532945 </v>
    <v>       0.49944905       0.00154652       0.60219521 </v>
    <v>       0.50053058       0.50028754       0.60427272 </v>
    <v>       0.25415841       0.24924531       0.60285978 </v>
    <v>       0.24643287       0.74932390       0.60179206 </v>
    <v>       0.74653772       0.24885574       0.60475756 </v>
    <v>       0.74326707       0.76128379       0.60524184 </v>
    <v>       0.00000050       0.00000050       0.70482896 </v>
    <v>       0.00000050       0.50000048       0.70482896 </v>
    <v>       0.50000048       0.00000050       0.70482896 </v>
    <v>       0.50000046       0.50000048       0.70482896 </v>
    <v>       0.24999999       0.24999947       0.70482499 </v>
    <v>       0.25000001       0.74999950       0.70482499 </v>
    <v>       0.74999999       0.24999947       0.70482499 </v>
    <v>       0.74999998       0.74999950       0.70482499 </v>
    <v>       0.00000000       0.00000000       0.80731797 </v>
    <v>       0.00000000       0.50000000       0.80731797 </v>
    <v>       0.50000000       0.00000000       0.80731797 </v>
    <v>       0.49999999       0.50000000       0.80731797 </v>
    <v>       0.24999999       0.25000000       0.80731797 </v>
    <v>       0.25000001       0.74999997       0.80731797 </v>
    <v>       0.74999999       0.25000000       0.80731797 </v>
    <v>       0.74999998       0.74999997       0.80731797 </v>
   </varray>
  </structure>
  <varray name="primitive_index" >
   <v type="int" >        1 </v>
   <v type="int" >        2 </v>
   <v type="int" >        3 </v>
   <v type="int" >        4 </v>
   <v type="int" >        5 </v>
   <v type="int" >        6 </v>
   <v type="int" >        7 </v>
   <v type="int" >        8 </v>
   <v type="int" >        9 </v>
   <v type="int" >       10 </v>
   <v type="int" >       11 </v>
   <v type="int" >       12 </v>
   <v type="int" >       13 </v>
   <v type="int" >       14 </v>
   <v type="int" >       15 </v>
   <v type="int" >       16 </v>
   <v type="int" >       17 </v>
   <v type="int" >       18 </v>
   <v type="int" >       19 </v>
   <v type="int" >       20 </v>
   <v type="int" >       21 </v>
   <v type="int" >       22 </v>
   <v type="int" >       23 </v>
   <v type="int" >       24 </v>
   <v type="int" >       25 </v>
   <v type="int" >       26 </v>
   <v type="int" >       27 </v>
   <v type="int" >       28 </v>
   <v type="int" >       29 </v>
   <v type="int" >       30 </v>
   <v type="int" >       31 </v>
   <v type="int" >       32 </v>
   <v type="int" >       33 </v>
   <v type="int" >       34 </v>
   <v type="int" >       35 </v>
   <v type="int" >       36 </v>
   <v type="int" >       37 </v>
   <v type="int" >       38 </v>
   <v type="int" >       39 </v>
   <v type="int" >       40 </v>
   <v type="int" >       41 </v>
   <v type="int" >       42 </v>
   <v type="int" >       43 </v>
   <v type="int" >       44 </v>
   <v type="int" >       45 </v>
   <v type="int" >       46 </v>
   <v type="int" >       47 </v>
   <v type="int" >       48 </v>
   <v type="int" >       49 </v>
   <v type="int" >       50 </v>
   <v type="int" >       51 </v>
   <v type="int" >       52 </v>
   <v type="int" >       53 </v>
   <v type="int" >       54 </v>
   <v type="int" >       55 </v>
   <v type="int" >       56 </v>
   <v type="int" >       57 </v>
   <v type="int" >       58 </v>
   <v type="int" >       59 </v>
   <v type="int" >       60 </v>
   <v type="int" >       61 </v>
   <v type="int" >       62 </v>
   <v type="int" >       63 </v>
   <v type="int" >       64 </v>
   <v type="int" >       65 </v>
   <v type="int" >       66 </v>
   <v type="int" >       67 </v>
   <v type="int" >       68 </v>
   <v type="int" >       69 </v>
   <v type="int" >       70 </v>
   <v type="int" >       71 </v>
   <v type="int" >       72 </v>
   <v type="int" >       73 </v>
   <v type="int" >       74 </v>
   <v type="int" >       75 </v>
   <v type="int" >       76 </v>
   <v type="int" >       77 </v>
   <v type="int" >       78 </v>
   <v type="int" >       79 </v>
   <v type="int" >       80 </v>
   <v type="int" >       81 </v>
   <v type="int" >       82 </v>
   <v type="int" >       83 </v>
   <v type="int" >       84 </v>
   <v type="int" >       85 </v>
   <v type="int" >       86 </v>
   <v type="int" >       87 </v>
   <v type="int" >       88 </v>
   <v type="int" >       89 </v>
   <v type="int" >       90 </v>
   <v type="int" >       91 </v>
   <v type="int" >       92 </v>
   <v type="int" >       93 </v>
   <v type="int" >       94 </v>
   <v type="int" >       95 </v>
   <v type="int" >       96 </v>
   <v type="int" >       97 </v>
   <v type="int" >       98 </v>
   <v type="int" >       99 </v>
   <v type="int" >      100 </v>
   <v type="int" >      101 </v>
   <v type="int" >      102 </v>
   <v type="int" >      103 </v>
   <v type="int" >      104 </v>
   <v type="int" >      105 </v>
   <v type="int" >      106 </v>
   <v type="int" >      107 </v>
   <v type="int" >      108 </v>
   <v type="int" >      109 </v>
   <v type="int" >      110 </v>
   <v type="int" >      111 </v>
   <v type="int" >      112 </v>
   <v type="int" >      113 </v>
   <v type="int" >      114 </v>
   <v type="int" >      115 </v>
   <v type="int" >      116 </v>
   <v type="int" >      117 </v>
   <v type="int" >      118 </v>
   <v type="int" >      119 </v>
   <v type="int" >      120 </v>
   <v type="int" >      121 </v>
   <v type="int" >      122 </v>
   <v type="int" >      123 </v>
   <v type="int" >      124 </v>
   <v type="int" >      125 </v>
   <v type="int" >      126 </v>
   <v type="int" >      127 </v>
   <v type="int" >      128 </v>
   <v type="int" >      129 </v>
   <v type="int" >      130 </v>
   <v type="int" >      131 </v>
   <v type="int" >      132 </v>
   <v type="int" >      133 </v>
   <v type="int" >      134 </v>
   <v type="int" >      135 </v>
   <v type="int" >      136 </v>
   <v type="int" >      137 </v>
   <v type="int" >      138 </v>
   <v type="int" >      139 </v>
   <v type="int" >      140 </v>
   <v type="int" >      141 </v>
   <v type="int" >      142 </v>
   <v type="int" >      143 </v>
   <v type="int" >      144 </v>
   <v type="int" >      145 </v>
   <v type="int" >      146 </v>
   <v type="int" >      147 </v>
   <v type="int" >      148 </v>
   <v type="int" >      149 </v>
   <v type="int" >      150 </v>
   <v type="int" >      151 </v>
   <v type="int" >      152 </v>
   <v type="int" >      153 </v>
   <v type="int" >      154 </v>
   <v type="int" >      155 </v>
   <v type="int" >      156 </v>
   <v type="int" >      157 </v>
   <v type="int" >      158 </v>
   <v type="int" >      159 </v>
   <v type="int" >      160 </v>
   <v type="int" >      161 </v>
   <v type="int" >      162 </v>
   <v type="int" >      163 </v>
   <v type="int" >      164 </v>
   <v type="int" >      165 </v>
   <v type="int" >      166 </v>
   <v type="int" >      167 </v>
   <v type="int" >      168 </v>
   <v type="int" >      169 </v>
   <v type="int" >      170 </v>
   <v type="int" >      171 </v>
   <v type="int" >      172 </v>
   <v type="int" >      173 </v>
   <v type="int" >      174 </v>
   <v type="int" >      175 </v>
   <v type="int" >      176 </v>
   <v type="int" >      177 </v>
   <v type="int" >      178 </v>
   <v type="int" >      179 </v>
   <v type="int" >      180 </v>
   <v type="int" >      181 </v>
   <v type="int" >      182 </v>
   <v type="int" >      183 </v>
   <v type="int" >      184 </v>
   <v type="int" >      185 </v>
   <v type="int" >      186 </v>
   <v type="int" >      187 </v>
   <v type="int" >      188 </v>
   <v type="int" >      189 </v>
   <v type="int" >      190 </v>
   <v type="int" >      191 </v>
   <v type="int" >      192 </v>
   <v type="int" >      193 </v>
   <v type="int" >      194 </v>
   <v type="int" >      195 </v>
   <v type="int" >      196 </v>
   <v type="int" >      197 </v>
   <v type="int" >      198 </v>
   <v type="int" >      199 </v>
   <v type="int" >      200 </v>
   <v type="int" >      201 </v>
   <v type="int" >      202 </v>
   <v type="int" >      203 </v>
   <v type="int" >      204 </v>
   <v type="int" >      205 </v>
   <v type="int" >      206 </v>
   <v type="int" >      207 </v>
   <v type="int" >      208 </v>
   <v type="int" >      209 </v>
   <v type="int" >      210 </v>
   <v type="int" >      211 </v>
   <v type="int" >      212 </v>
   <v type="int" >      213 </v>
   <v type="int" >      214 </v>
   <v type="int" >      215 </v>
   <v type="int" >      216 </v>
   <v type="int" >      217 </v>
   <v type="int" >      218 </v>
   <v type="int" >      219 </v>
   <v type="int" >      220 </v>
   <v type="int" >      221 </v>
   <v type="int" >      222 </v>
   <v type="int" >      223 </v>
   <v type="int" >      224 </v>
   <v type="int" >      225 </v>
   <v type="int" >      226 </v>
   <v type="int" >      227 </v>
   <v type="int" >      228 </v>
   <v type="int" >      229 </v>
   <v type="int" >      230 </v>
   <v type="int" >      231 </v>
   <v type="int" >      232 </v>
   <v type="int" >      233 </v>
   <v type="int" >      234 </v>
   <v type="int" >      235 </v>
   <v type="int" >      236 </v>
   <v type="int" >      237 </v>
   <v type="int" >      238 </v>
   <v type="int" >      239 </v>
   <v type="int" >      240 </v>
   <v type="int" >      241 </v>
   <v type="int" >      242 </v>
   <v type="int" >      243 </v>
   <v type="int" >      244 </v>
   <v type="int" >      245 </v>
   <v type="int" >      246 </v>
   <v type="int" >      247 </v>
   <v type="int" >      248 </v>
   <v type="int" >      249 </v>
   <v type="int" >      250 </v>
   <v type="int" >      251 </v>
   <v type="int" >      252 </v>
   <v type="int" >      253 </v>
   <v type="int" >      254 </v>
   <v type="int" >      255 </v>
   <v type="int" >      256 </v>
   <v type="int" >      257 </v>
   <v type="int" >      258 </v>
   <v type="int" >      259 </v>
   <v type="int" >      260 </v>
   <v type="int" >      261 </v>
   <v type="int" >      262 </v>
   <v type="int" >      263 </v>
   <v type="int" >      264 </v>
   <v type="int" >      265 </v>
   <v type="int" >      266 </v>
   <v type="int" >      267 </v>
   <v type="int" >      268 </v>
   <v type="int" >      269 </v>
   <v type="int" >      270 </v>
   <v type="int" >      271 </v>
   <v type="int" >      272 </v>
   <v type="int" >      273 </v>
   <v type="int" >      274 </v>
   <v type="int" >      275 </v>
   <v type="int" >      276 </v>
   <v type="int" >      277 </v>
   <v type="int" >      278 </v>
   <v type="int" >      279 </v>
   <v type="int" >      280 </v>
   <v type="int" >      281 </v>
   <v type="int" >      282 </v>
   <v type="int" >      283 </v>
   <v type="int" >      284 </v>
   <v type="int" >      285 </v>
   <v type="int" >      286 </v>
   <v type="int" >      287 </v>
   <v type="int" >      288 </v>
   <v type="int" >      289 </v>
   <v type="int" >      290 </v>
   <v type="int" >      291 </v>
   <v type="int" >      292 </v>
   <v type="int" >      293 </v>
   <v type="int" >      294 </v>
   <v type="int" >      295 </v>
   <v type="int" >      296 </v>
   <v type="int" >      297 </v>
   <v type="int" >      298 </v>
   <v type="int" >      299 </v>
   <v type="int" >      300 </v>
   <v type="int" >      301 </v>
   <v type="int" >      302 </v>
   <v type="int" >      303 </v>
   <v type="int" >      304 </v>
   <v type="int" >      305 </v>
   <v type="int" >      306 </v>
   <v type="int" >      307 </v>
   <v type="int" >      308 </v>
   <v type="int" >      309 </v>
   <v type="int" >      310 </v>
   <v type="int" >      311 </v>
   <v type="int" >      312 </v>
   <v type="int" >      313 </v>
   <v type="int" >      314 </v>
   <v type="int" >      315 </v>
   <v type="int" >      316 </v>
   <v type="int" >      317 </v>
   <v type="int" >      318 </v>
   <v type="int" >      319 </v>
   <v type="int" >      320 </v>
   <v type="int" >      321 </v>
   <v type="int" >      322 </v>
   <v type="int" >      323 </v>
   <v type="int" >      324 </v>
   <v type="int" >      325 </v>
  </varray>
 </primitive_cell>
 <kpoints>
  <generation param="Gamma">
   <v type="int" name="divisions">       3        3        1 </v>
   <v name="usershift">      0.00000000       0.00000000       0.00000000 </v>
   <v name="genvec1">      0.33333333       0.00000000       0.00000000 </v>
   <v name="genvec2">      0.00000000       0.33333333       0.00000000 </v>
   <v name="genvec3">      0.00000000       0.00000000       1.00000000 </v>
   <v name="shift">      0.00000000       0.00000000       0.00000000 </v>
  </generation>
  <varray name="kpointlist" >
   <v>       0.00000000       0.00000000       0.00000000 </v>
   <v>       0.33333333       0.00000000       0.00000000 </v>
   <v>       0.00000000       0.33333333       0.00000000 </v>
   <v>       0.33333333       0.33333333       0.00000000 </v>
   <v>      -0.33333333       0.33333333       0.00000000 </v>
  </varray>
  <varray name="weights" >
   <v>       0.11111111 </v>
   <v>       0.22222222 </v>
   <v>       0.22222222 </v>
   <v>       0.22222222 </v>
   <v>       0.22222222 </v>
  </varray>
 </kpoints>
 <parameters>
  <separator name="general" >
   <i type="string" name="SYSTEM">PSC</i>
   <i type="logical" name="LCOMPAT"> F  </i>
  </separator>
  <separator name="electronic" >
   <i type="string" name="PREC">normal</i>
   <i name="ENMAX">    500.00000000</i>
   <i name="ENAUG">    644.87300000</i>
   <i name="EDIFF">      0.00010000</i>
   <i type="int" name="IALGO">    38</i>
   <i type="int" name="IWAVPR">    10</i>
   <i type="int" name="NBANDS">   732</i>
   <i type="int" name="NBANDSLOW">    -1</i>
   <i type="int" name="NBANDSHIGH">    -1</i>
   <i name="NELECT">   1134.00000000</i>
   <i type="int" name="TURBO">     0</i>
   <i type="int" name="IRESTART">     0</i>
   <i type="int" name="NREBOOT">     0</i>
   <i type="int" name="NMIN">     0</i>
   <i name="EREF">      0.00000000</i>
   <separator name="electronic smearing" >
    <i type="int" name="ISMEAR">     0</i>
    <i name="SIGMA">      0.05000000</i>
    <i name="KSPACING">      0.50000000</i>
    <i type="logical" name="KGAMMA"> T  </i>
    <i type="logical" name="KBLOWUP"> T  </i>
   </separator>
   <separator name="electronic projectors" >
    <i type="logical" name="LREAL"> T  </i>
    <v name="ROPT">     -0.00050000     -0.00050000     -0.00050000     -0.00050000     -0.00050000</v>
    <i type="int" name="LMAXPAW">  -100</i>
    <i type="int" name="LMAXMIX">     2</i>
    <i type="logical" name="NLSPLINE"> F  </i>
   </separator>
   <separator name="electronic startup" >
    <i type="int" name="ISTART">     0</i>
    <i type="int" name="ICHARG">     1</i>
    <i type="int" name="INIWAV">     1</i>
   </separator>
   <separator name="electronic spin" >
    <i type="int" name="ISPIN">     1</i>
    <i type="logical" name="LNONCOLLINEAR"> F  </i>
    <v name="MAGMOM">      1.00000000      1.00000000      1.00000000      1.00000000      1.00000000      1.00000000      1.00000000      1.00000000      1.00000000      1.00000000      1.00000000      1.00000000      1.00000000      1.00000000      1.00000000      1.00000000      1.00000000      1.00000000      1.00000000      1.00000000
      1.00000000      1.00000000      1.00000000      1.00000000      1.00000000      1.00000000      1.00000000      1.00000000      1.00000000      1.00000000      1.00000000      1.00000000      1.00000000      1.00000000      1.00000000      1.00000000      1.00000000      1.00000000      1.00000000      1.00000000
      1.00000000      1.00000000      1.00000000      1.00000000      1.00000000      1.00000000      1.00000000      1.00000000      1.00000000      1.00000000      1.00000000      1.00000000      1.00000000      1.00000000      1.00000000      1.00000000      1.00000000      1.00000000      1.00000000      1.00000000
      1.00000000      1.00000000      1.00000000      1.00000000      1.00000000      1.00000000      1.00000000      1.00000000      1.00000000      1.00000000      1.00000000      1.00000000      1.00000000      1.00000000      1.00000000      1.00000000      1.00000000      1.00000000      1.00000000      1.00000000
      1.00000000      1.00000000      1.00000000      1.00000000      1.00000000      1.00000000      1.00000000      1.00000000      1.00000000      1.00000000      1.00000000      1.00000000      1.00000000      1.00000000      1.00000000      1.00000000      1.00000000      1.00000000      1.00000000      1.00000000
      1.00000000      1.00000000      1.00000000      1.00000000      1.00000000      1.00000000      1.00000000      1.00000000      1.00000000      1.00000000      1.00000000      1.00000000      1.00000000      1.00000000      1.00000000      1.00000000      1.00000000      1.00000000      1.00000000      1.00000000
      1.00000000      1.00000000      1.00000000      1.00000000      1.00000000      1.00000000      1.00000000      1.00000000      1.00000000      1.00000000      1.00000000      1.00000000      1.00000000      1.00000000      1.00000000      1.00000000      1.00000000      1.00000000      1.00000000      1.00000000
      1.00000000      1.00000000      1.00000000      1.00000000      1.00000000      1.00000000      1.00000000      1.00000000      1.00000000      1.00000000      1.00000000      1.00000000      1.00000000      1.00000000      1.00000000      1.00000000      1.00000000      1.00000000      1.00000000      1.00000000
      1.00000000      1.00000000      1.00000000      1.00000000      1.00000000      1.00000000      1.00000000      1.00000000      1.00000000      1.00000000      1.00000000      1.00000000      1.00000000      1.00000000      1.00000000      1.00000000      1.00000000      1.00000000      1.00000000      1.00000000
      1.00000000      1.00000000      1.00000000      1.00000000      1.00000000      1.00000000      1.00000000      1.00000000      1.00000000      1.00000000      1.00000000      1.00000000      1.00000000      1.00000000      1.00000000      1.00000000      1.00000000      1.00000000      1.00000000      1.00000000
      1.00000000      1.00000000      1.00000000      1.00000000      1.00000000      1.00000000      1.00000000      1.00000000      1.00000000      1.00000000      1.00000000      1.00000000      1.00000000      1.00000000      1.00000000      1.00000000      1.00000000      1.00000000      1.00000000      1.00000000
      1.00000000      1.00000000      1.00000000      1.00000000      1.00000000      1.00000000      1.00000000      1.00000000      1.00000000      1.00000000      1.00000000      1.00000000      1.00000000      1.00000000      1.00000000      1.00000000      1.00000000      1.00000000      1.00000000      1.00000000
      1.00000000      1.00000000      1.00000000      1.00000000      1.00000000      1.00000000      1.00000000      1.00000000      1.00000000      1.00000000      1.00000000      1.00000000      1.00000000      1.00000000      1.00000000      1.00000000      1.00000000      1.00000000      1.00000000      1.00000000
      1.00000000      1.00000000      1.00000000      1.00000000      1.00000000      1.00000000      1.00000000      1.00000000      1.00000000      1.00000000      1.00000000      1.00000000      1.00000000      1.00000000      1.00000000      1.00000000      1.00000000      1.00000000      1.00000000      1.00000000
      1.00000000      1.00000000      1.00000000      1.00000000      1.00000000      1.00000000      1.00000000      1.00000000      1.00000000      1.00000000      1.00000000      1.00000000      1.00000000      1.00000000      1.00000000      1.00000000      1.00000000      1.00000000      1.00000000      1.00000000
      1.00000000      1.00000000      1.00000000      1.00000000      1.00000000      1.00000000      1.00000000      1.00000000      1.00000000      1.00000000      1.00000000      1.00000000      1.00000000      1.00000000      1.00000000      1.00000000      1.00000000      1.00000000      1.00000000      1.00000000
      1.00000000      1.00000000      1.00000000      1.00000000      1.00000000</v>
    <i name="NUPDOWN">     -1.00000000</i>
    <i type="logical" name="LSORBIT"> F  </i>
    <v name="SAXIS">      0.00000000      0.00000000      1.00000000</v>
    <i type="logical" name="LSPIRAL"> F  </i>
    <v name="QSPIRAL">      0.00000000      0.00000000      0.00000000</v>
    <i type="logical" name="LZEROZ"> F  </i>
   </separator>
   <separator name="electronic exchange-correlation" >
    <i type="logical" name="LASPH"> F  </i>
    <i type="logical" name="LMETAGGA"> F  </i>
   </separator>
   <separator name="electronic convergence" >
    <i type="int" name="NELM">   600</i>
    <i type="int" name="NELMDL">     0</i>
    <i type="int" name="NELMIN">     2</i>
    <i name="ENINI">    500.00000000</i>
    <separator name="electronic convergence detail" >
     <i type="logical" name="LDIAG"> T  </i>
     <i type="logical" name="LSUBROT"> F  </i>
     <i name="WEIMIN">      0.00000000</i>
     <i name="EBREAK">      0.00000003</i>
     <i name="DEPER">      0.30000000</i>
     <i type="int" name="NRMM">     4</i>
     <i name="TIME">      0.40000000</i>
    </separator>
   </separator>
   <separator name="electronic mixer" >
    <i name="AMIX">      0.40000000</i>
    <i name="BMIX">      0.01000000</i>
    <i name="AMIN">      0.01000000</i>
    <i name="AMIX_MAG">      1.60000000</i>
    <i name="BMIX_MAG">      0.01000000</i>
    <separator name="electronic mixer details" >
     <i type="int" name="IMIX">     4</i>
     <i type="logical" name="MIXFIRST"> F  </i>
     <i type="int" name="MAXMIX">   -45</i>
     <i name="WC">    100.00000000</i>
     <i type="int" name="INIMIX">     1</i>
     <i type="int" name="MIXPRE">     1</i>
     <i type="int" name="MREMOVE">     5</i>
    </separator>
   </separator>
   <separator name="electronic dipolcorrection" >
    <i type="logical" name="LDIPOL"> T  </i>
    <i type="logical" name="LMONO"> F  </i>
    <i type="int" name="IDIPOL">     3</i>
    <i name="EPSILON">      1.00000000</i>
    <v name="DIPOL">   -100.00000000   -100.00000000   -100.00000000</v>
    <i name="EFIELD">      0.00000000</i>
   </separator>
  </separator>
  <separator name="grids" >
   <i type="int" name="NGX">   100</i>
   <i type="int" name="NGY">   100</i>
   <i type="int" name="NGZ">   350</i>
   <i type="int" name="NGXF">   200</i>
   <i type="int" name="NGYF">   200</i>
   <i type="int" name="NGZF">   700</i>
   <i type="logical" name="ADDGRID"> F  </i>
  </separator>
  <separator name="ionic" >
   <i type="int" name="NSW">     0</i>
   <i type="int" name="IBRION">    -1</i>
   <i type="int" name="MDALGO">     0</i>
   <i type="int" name="ISIF">     2</i>
   <i name="PSTRESS">      0.00000000</i>
   <i name="EDIFFG">      0.00100000</i>
   <i type="int" name="NFREE">     0</i>
   <i name="POTIM">      0.50000000</i>
   <i name="SMASS">     -3.00000000</i>
   <i name="SCALEE">      1.00000000</i>
  </separator>
  <separator name="ionic md" >
   <i name="TEBEG">      0.00010000</i>
   <i name="TEEND">      0.00010000</i>
   <i type="int" name="NBLOCK">     1</i>
   <i type="int" name="KBLOCK">     1</i>
   <i type="int" name="NPACO">   256</i>
   <i name="APACO">     16.00000000</i>
  </separator>
  <separator name="symmetry" >
   <i type="int" name="ISYM">     0</i>
   <i name="SYMPREC">      0.00001000</i>
  </separator>
  <separator name="dos" >
   <i type="int" name="LORBIT">     0</i>
   <v name="RWIGS">     -1.00000000     -1.00000000     -1.00000000     -1.00000000     -1.00000000</v>
   <i type="int" name="NEDOS">   301</i>
   <i name="EMIN">     10.00000000</i>
   <i name="EMAX">    -10.00000000</i>
   <i name="EFERMI">      0.00000000</i>
  </separator>
  <separator name="writing" >
   <i type="int" name="NWRITE">     2</i>
   <i type="logical" name="LWAVE"> F  </i>
   <i type="logical" name="LDOWNSAMPLE"> F  </i>
   <i type="logical" name="LCHARG"> T  </i>
   <i type="logical" name="LPARD"> F  </i>
   <i type="logical" name="LVTOT"> T  </i>
   <i type="logical" name="LVHAR"> F  </i>
   <i type="logical" name="LELF"> F  </i>
   <i type="logical" name="LOPTICS"> F  </i>
   <v name="STM">      0.00000000      0.00000000      0.00000000      0.00000000      0.00000000      0.00000000      0.00000000</v>
  </separator>
  <separator name="performance" >
   <i type="int" name="NPAR">     4</i>
   <i type="int" name="NSIM">     4</i>
   <i type="int" name="NBLK">    -1</i>
   <i type="logical" name="LPLANE"> T  </i>
   <i type="logical" name="LSCALAPACK"> T  </i>
   <i type="logical" name="LSCAAWARE"> F  </i>
   <i type="logical" name="LSCALU"> F  </i>
   <i type="logical" name="LASYNC"> F  </i>
   <i type="logical" name="LORBITALREAL"> F  </i>
  </separator>
  <separator name="miscellaneous" >
   <i type="int" name="IDIOT">     3</i>
   <i type="int" name="PHON_NSTRUCT">    -1</i>
   <i type="logical" name="LMUSIC"> F  </i>
   <v name="POMASS">      1.00000000     12.01100000     14.00100000    126.90400000    207.20000000</v>
   <v name="DARWINR">      0.00000000      0.00000000      0.00000000      0.00000000      0.00000000</v>
   <v name="DARWINV">      1.00000000      1.00000000      1.00000000      1.00000000      1.00000000</v>
   <i type="logical" name="LCORR"> T  </i>
  </separator>
  <i type="logical" name="GGA_COMPAT"> F  </i>
  <i type="logical" name="LBERRY"> F  </i>
  <i type="int" name="ICORELEVEL">     0</i>
  <i type="logical" name="LDAU"> F  </i>
  <i type="int" name="I_CONSTRAINED_M">     0</i>
  <separator name="electronic exchange-correlation" >
   <i type="string" name="GGA">--</i>
   <i type="int" name="VOSKOWN">     0</i>
   <i type="logical" name="LHFCALC"> F  </i>
   <i type="string" name="PRECFOCK"></i>
   <i type="logical" name="LSYMGRAD"> F  </i>
   <i type="logical" name="LHFONE"> F  </i>
   <i type="logical" name="LRHFCALC"> F  </i>
   <i type="logical" name="LTHOMAS"> F  </i>
   <i type="logical" name="LMODELHF"> F  </i>
   <i type="logical" name="LFOCKACE"> F  </i>
   <i name="ENCUT4O">     -1.00000000</i>
   <i type="int" name="EXXOEP">     0</i>
   <i type="int" name="FOURORBIT">     0</i>
   <i name="AEXX">      0.00000000</i>
   <i name="HFALPHA">      0.00000000</i>
   <i name="MCALPHA">      0.00000000</i>
   <i name="ALDAX">      1.00000000</i>
   <i name="AGGAX">      1.00000000</i>
   <i name="ALDAC">      1.00000000</i>
   <i name="AGGAC">      1.00000000</i>
   <i type="int" name="NKREDX">     1</i>
   <i type="int" name="NKREDY">     1</i>
   <i type="int" name="NKREDZ">     1</i>
   <i type="logical" name="SHIFTRED"> F  </i>
   <i type="logical" name="ODDONLY"> F  </i>
   <i type="logical" name="EVENONLY"> F  </i>
   <i type="int" name="LMAXFOCK">     0</i>
   <i type="int" name="NMAXFOCKAE">     0</i>
   <i type="logical" name="LFOCKAEDFT"> F  </i>
   <i name="HFSCREEN">      0.00000000</i>
   <i name="HFSCREENC">      0.00000000</i>
   <i type="int" name="NBANDSGWLOW">     0</i>
  </separator>
  <separator name="vdW DFT" >
   <i type="logical" name="LUSE_VDW"> F  </i>
   <i name="Zab_VDW">     -0.84910000</i>
   <i name="PARAM1">      0.12340000</i>
   <i name="PARAM2">      1.00000000</i>
   <i name="PARAM3">      0.00000000</i>
  </separator>
  <separator name="model GW" >
   <i type="int" name="MODEL_GW">     0</i>
   <i name="MODEL_EPS0">     37.63423484</i>
   <i name="MODEL_ALPHA">      1.00000000</i>
  </separator>
  <separator name="linear response parameters" >
   <i type="logical" name="LEPSILON"> F  </i>
   <i type="logical" name="LRPA"> F  </i>
   <i type="logical" name="LNABLA"> F  </i>
   <i type="logical" name="LVEL"> F  </i>
   <i type="int" name="KINTER">     0</i>
   <i name="CSHIFT">      0.10000000</i>
   <i name="OMEGAMAX">     -1.00000000</i>
   <i name="DEG_THRESHOLD">      0.00200000</i>
   <i name="RTIME">     -0.10000000</i>
   <i name="WPLASMAI">      0.00000000</i>
   <v name="DFIELD">      0.00000000      0.00000000      0.00000000</v>
   <v name="WPLASMA">      0.00000000      0.00000000      0.00000000      0.00000000      0.00000000      0.00000000      0.00000000      0.00000000      0.00000000</v>
  </separator>
  <separator name="orbital magnetization" >
   <i type="logical" name="NUCIND"> F  </i>
   <v name="MAGPOS">      0.00000000      0.00000000      0.00000000</v>
   <i type="logical" name="LNICSALL"> T  </i>
   <i type="logical" name="ORBITALMAG"> F  </i>
   <i type="logical" name="LMAGBLOCH"> F  </i>
   <i type="logical" name="LCHIMAG"> F  </i>
   <i type="logical" name="LGAUGE"> T  </i>
   <i type="int" name="MAGATOM">     0</i>
   <v name="MAGDIPOL">      0.00000000      0.00000000      0.00000000</v>
   <v name="AVECCONST">      0.00000000      0.00000000      0.00000000</v>
  </separator>
  <separator name="response functions" >
   <i type="logical" name="LFINITE_TEMPERATURE"> F  </i>
   <i type="logical" name="LADDER"> F  </i>
   <i type="logical" name="LRPAFORCE"> F  </i>
   <i type="logical" name="LFXC"> F  </i>
   <i type="logical" name="LHARTREE"> T  </i>
   <i type="int" name="IBSE">     0</i>
   <v type="int" name="KPOINT">    -1     0     0     0</v>
   <i type="logical" name="LTCTC"> F  </i>
   <i type="logical" name="LTCTE"> F  </i>
   <i type="logical" name="LTETE"> F  </i>
   <i type="logical" name="LTRIPLET"> F  </i>
   <i type="logical" name="LFXCEPS"> F  </i>
   <i type="logical" name="LFXHEG"> F  </i>
   <i type="int" name="NATURALO">     2</i>
   <i type="logical" name="LHOLEGF"> F  </i>
   <i type="logical" name="L2ORDER"> F  </i>
   <i type="logical" name="LDMP1"> F  </i>
   <i type="logical" name="LMP2LT"> F  </i>
   <i type="logical" name="LSMP2LT"> F  </i>
   <i type="logical" name="LGWLF"> F  </i>
   <i name="ENCUTGW">     -2.00000000</i>
   <i name="ENCUTGWSOFT">     -2.00000000</i>
   <i name="ENCUTLF">     -1.00000000</i>
   <i type="logical" name="LESF_SPLINES"> F  </i>
   <i type="int" name="LMAXMP2">    -1</i>
   <i name="SCISSOR">      0.00000000</i>
   <i type="int" name="NOMEGA">     0</i>
   <i type="int" name="NOMEGAR">     0</i>
   <i type="int" name="NBANDSGW">    -1</i>
   <i type="int" name="NBANDSO">    -1</i>
   <i type="int" name="NBANDSV">    -1</i>
   <i type="int" name="NELM">   600</i>
   <i type="int" name="NELMHF">     1</i>
   <i type="int" name="DIM">     3</i>
   <i type="int" name="IESPILON">     4</i>
   <i type="int" name="ANTIRES">     0</i>
   <i name="OMEGAMAX">    -30.00000000</i>
   <i name="OMEGAMIN">    -30.00000000</i>
   <i name="OMEGATL">   -200.00000000</i>
   <i type="int" name="OMEGAGRID">     0</i>
   <i name="CSHIFT">     -0.10000000</i>
   <i type="logical" name="LSELFENERGY"> F  </i>
   <i type="logical" name="LSPECTRAL"> F  </i>
   <i type="logical" name="LSPECTRALGW"> F  </i>
   <i type="logical" name="LSINGLES"> F  </i>
   <i type="logical" name="LFERMIGW"> F  </i>
   <i type="logical" name="ODDONLYGW"> F  </i>
   <i type="logical" name="EVENONLYGW"> F  </i>
   <i type="int" name="NKREDLFX">     1</i>
   <i type="int" name="NKREDLFY">     1</i>
   <i type="int" name="NKREDLFZ">     1</i>
   <i type="int" name="MAXMEM">  2800</i>
   <i type="int" name="TELESCOPE">     0</i>
   <i type="int" name="NTAUPAR">    -1</i>
   <i type="int" name="NOMEGAPAR">    -1</i>
   <i name="DAMP_NEWTON">      0.80000001</i>
   <i name="LAMBDA">      1.00000000</i>
  </separator>
  <separator name="External order field" >
   <i name="OFIELD_KAPPA">      0.00000000</i>
   <v name="OFIELD_K">      0.00000000      0.00000000      0.00000000</v>
   <i name="OFIELD_Q6_NEAR">      0.00000000</i>
   <i name="OFIELD_Q6_FAR">      0.00000000</i>
   <i name="OFIELD_A">      0.00000000</i>
  </separator>
 </parameters>
 <atominfo>
  <atoms>     325 </atoms>
  <types>       5 </types>
  <array name="atoms" >
   <dimension dim="1">ion</dimension>
   <field type="string">element</field>
   <field type="int">atomtype</field>
   <set>
    <rc><c>H </c><c>   1</c></rc>
    <rc><c>H </c><c>   1</c></rc>
    <rc><c>H </c><c>   1</c></rc>
    <rc><c>H </c><c>   1</c></rc>
    <rc><c>H </c><c>   1</c></rc>
    <rc><c>H </c><c>   1</c></rc>
    <rc><c>H </c><c>   1</c></rc>
    <rc><c>H </c><c>   1</c></rc>
    <rc><c>H </c><c>   1</c></rc>
    <rc><c>H </c><c>   1</c></rc>
    <rc><c>H </c><c>   1</c></rc>
    <rc><c>H </c><c>   1</c></rc>
    <rc><c>H </c><c>   1</c></rc>
    <rc><c>H </c><c>   1</c></rc>
    <rc><c>H </c><c>   1</c></rc>
    <rc><c>H </c><c>   1</c></rc>
    <rc><c>H </c><c>   1</c></rc>
    <rc><c>H </c><c>   1</c></rc>
    <rc><c>H </c><c>   1</c></rc>
    <rc><c>H </c><c>   1</c></rc>
    <rc><c>H </c><c>   1</c></rc>
    <rc><c>H </c><c>   1</c></rc>
    <rc><c>H </c><c>   1</c></rc>
    <rc><c>H </c><c>   1</c></rc>
    <rc><c>H </c><c>   1</c></rc>
    <rc><c>H </c><c>   1</c></rc>
    <rc><c>H </c><c>   1</c></rc>
    <rc><c>H </c><c>   1</c></rc>
    <rc><c>H </c><c>   1</c></rc>
    <rc><c>H </c><c>   1</c></rc>
    <rc><c>H </c><c>   1</c></rc>
    <rc><c>H </c><c>   1</c></rc>
    <rc><c>H </c><c>   1</c></rc>
    <rc><c>H </c><c>   1</c></rc>
    <rc><c>H </c><c>   1</c></rc>
    <rc><c>H </c><c>   1</c></rc>
    <rc><c>H </c><c>   1</c></rc>
    <rc><c>H </c><c>   1</c></rc>
    <rc><c>H </c><c>   1</c></rc>
    <rc><c>H </c><c>   1</c></rc>
    <rc><c>H </c><c>   1</c></rc>
    <rc><c>H </c><c>   1</c></rc>
    <rc><c>H </c><c>   1</c></rc>
    <rc><c>H </c><c>   1</c></rc>
    <rc><c>H </c><c>   1</c></rc>
    <rc><c>H </c><c>   1</c></rc>
    <rc><c>H </c><c>   1</c></rc>
    <rc><c>H </c><c>   1</c></rc>
    <rc><c>H </c><c>   1</c></rc>
    <rc><c>H </c><c>   1</c></rc>
    <rc><c>H </c><c>   1</c></rc>
    <rc><c>H </c><c>   1</c></rc>
    <rc><c>H </c><c>   1</c></rc>
    <rc><c>H </c><c>   1</c></rc>
    <rc><c>H </c><c>   1</c></rc>
    <rc><c>H </c><c>   1</c></rc>
    <rc><c>H </c><c>   1</c></rc>
    <rc><c>H </c><c>   1</c></rc>
    <rc><c>H </c><c>   1</c></rc>
    <rc><c>H </c><c>   1</c></rc>
    <rc><c>H </c><c>   1</c></rc>
    <rc><c>H </c><c>   1</c></rc>
    <rc><c>H </c><c>   1</c></rc>
    <rc><c>H </c><c>   1</c></rc>
    <rc><c>H </c><c>   1</c></rc>
    <rc><c>H </c><c>   1</c></rc>
    <rc><c>H </c><c>   1</c></rc>
    <rc><c>H </c><c>   1</c></rc>
    <rc><c>H </c><c>   1</c></rc>
    <rc><c>H </c><c>   1</c></rc>
    <rc><c>H </c><c>   1</c></rc>
    <rc><c>H </c><c>   1</c></rc>
    <rc><c>H </c><c>   1</c></rc>
    <rc><c>H </c><c>   1</c></rc>
    <rc><c>H </c><c>   1</c></rc>
    <rc><c>H </c><c>   1</c></rc>
    <rc><c>H </c><c>   1</c></rc>
    <rc><c>H </c><c>   1</c></rc>
    <rc><c>H </c><c>   1</c></rc>
    <rc><c>H </c><c>   1</c></rc>
    <rc><c>H </c><c>   1</c></rc>
    <rc><c>H </c><c>   1</c></rc>
    <rc><c>H </c><c>   1</c></rc>
    <rc><c>H </c><c>   1</c></rc>
    <rc><c>H </c><c>   1</c></rc>
    <rc><c>H </c><c>   1</c></rc>
    <rc><c>H </c><c>   1</c></rc>
    <rc><c>H </c><c>   1</c></rc>
    <rc><c>H </c><c>   1</c></rc>
    <rc><c>H </c><c>   1</c></rc>
    <rc><c>H </c><c>   1</c></rc>
    <rc><c>H </c><c>   1</c></rc>
    <rc><c>H </c><c>   1</c></rc>
    <rc><c>H </c><c>   1</c></rc>
    <rc><c>H </c><c>   1</c></rc>
    <rc><c>H </c><c>   1</c></rc>
    <rc><c>H </c><c>   1</c></rc>
    <rc><c>H </c><c>   1</c></rc>
    <rc><c>H </c><c>   1</c></rc>
    <rc><c>H </c><c>   1</c></rc>
    <rc><c>H </c><c>   1</c></rc>
    <rc><c>H </c><c>   1</c></rc>
    <rc><c>H </c><c>   1</c></rc>
    <rc><c>H </c><c>   1</c></rc>
    <rc><c>H </c><c>   1</c></rc>
    <rc><c>H </c><c>   1</c></rc>
    <rc><c>H </c><c>   1</c></rc>
    <rc><c>H </c><c>   1</c></rc>
    <rc><c>H </c><c>   1</c></rc>
    <rc><c>H </c><c>   1</c></rc>
    <rc><c>H </c><c>   1</c></rc>
    <rc><c>H </c><c>   1</c></rc>
    <rc><c>H </c><c>   1</c></rc>
    <rc><c>H </c><c>   1</c></rc>
    <rc><c>H </c><c>   1</c></rc>
    <rc><c>H </c><c>   1</c></rc>
    <rc><c>H </c><c>   1</c></rc>
    <rc><c>H </c><c>   1</c></rc>
    <rc><c>H </c><c>   1</c></rc>
    <rc><c>H </c><c>   1</c></rc>
    <rc><c>H </c><c>   1</c></rc>
    <rc><c>H </c><c>   1</c></rc>
    <rc><c>H </c><c>   1</c></rc>
    <rc><c>H </c><c>   1</c></rc>
    <rc><c>H </c><c>   1</c></rc>
    <rc><c>H </c><c>   1</c></rc>
    <rc><c>H </c><c>   1</c></rc>
    <rc><c>H </c><c>   1</c></rc>
    <rc><c>H </c><c>   1</c></rc>
    <rc><c>H </c><c>   1</c></rc>
    <rc><c>H </c><c>   1</c></rc>
    <rc><c>H </c><c>   1</c></rc>
    <rc><c>H </c><c>   1</c></rc>
    <rc><c>H </c><c>   1</c></rc>
    <rc><c>H </c><c>   1</c></rc>
    <rc><c>H </c><c>   1</c></rc>
    <rc><c>H </c><c>   1</c></rc>
    <rc><c>H </c><c>   1</c></rc>
    <rc><c>H </c><c>   1</c></rc>
    <rc><c>H </c><c>   1</c></rc>
    <rc><c>H </c><c>   1</c></rc>
    <rc><c>H </c><c>   1</c></rc>
    <rc><c>H </c><c>   1</c></rc>
    <rc><c>C </c><c>   2</c></rc>
    <rc><c>C </c><c>   2</c></rc>
    <rc><c>C </c><c>   2</c></rc>
    <rc><c>C </c><c>   2</c></rc>
    <rc><c>C </c><c>   2</c></rc>
    <rc><c>C </c><c>   2</c></rc>
    <rc><c>C </c><c>   2</c></rc>
    <rc><c>C </c><c>   2</c></rc>
    <rc><c>C </c><c>   2</c></rc>
    <rc><c>C </c><c>   2</c></rc>
    <rc><c>C </c><c>   2</c></rc>
    <rc><c>C </c><c>   2</c></rc>
    <rc><c>C </c><c>   2</c></rc>
    <rc><c>C </c><c>   2</c></rc>
    <rc><c>C </c><c>   2</c></rc>
    <rc><c>C </c><c>   2</c></rc>
    <rc><c>C </c><c>   2</c></rc>
    <rc><c>C </c><c>   2</c></rc>
    <rc><c>C </c><c>   2</c></rc>
    <rc><c>C </c><c>   2</c></rc>
    <rc><c>C </c><c>   2</c></rc>
    <rc><c>C </c><c>   2</c></rc>
    <rc><c>C </c><c>   2</c></rc>
    <rc><c>C </c><c>   2</c></rc>
    <rc><c>C </c><c>   2</c></rc>
    <rc><c>C </c><c>   2</c></rc>
    <rc><c>C </c><c>   2</c></rc>
    <rc><c>C </c><c>   2</c></rc>
    <rc><c>C </c><c>   2</c></rc>
    <rc><c>C </c><c>   2</c></rc>
    <rc><c>C </c><c>   2</c></rc>
    <rc><c>C </c><c>   2</c></rc>
    <rc><c>C </c><c>   2</c></rc>
    <rc><c>C </c><c>   2</c></rc>
    <rc><c>C </c><c>   2</c></rc>
    <rc><c>C </c><c>   2</c></rc>
    <rc><c>C </c><c>   2</c></rc>
    <rc><c>C </c><c>   2</c></rc>
    <rc><c>C </c><c>   2</c></rc>
    <rc><c>N </c><c>   3</c></rc>
    <rc><c>N </c><c>   3</c></rc>
    <rc><c>N </c><c>   3</c></rc>
    <rc><c>N </c><c>   3</c></rc>
    <rc><c>N </c><c>   3</c></rc>
    <rc><c>N </c><c>   3</c></rc>
    <rc><c>N </c><c>   3</c></rc>
    <rc><c>N </c><c>   3</c></rc>
    <rc><c>N </c><c>   3</c></rc>
    <rc><c>N </c><c>   3</c></rc>
    <rc><c>N </c><c>   3</c></rc>
    <rc><c>N </c><c>   3</c></rc>
    <rc><c>N </c><c>   3</c></rc>
    <rc><c>N </c><c>   3</c></rc>
    <rc><c>N </c><c>   3</c></rc>
    <rc><c>N </c><c>   3</c></rc>
    <rc><c>N </c><c>   3</c></rc>
    <rc><c>N </c><c>   3</c></rc>
    <rc><c>N </c><c>   3</c></rc>
    <rc><c>N </c><c>   3</c></rc>
    <rc><c>N </c><c>   3</c></rc>
    <rc><c>N </c><c>   3</c></rc>
    <rc><c>N </c><c>   3</c></rc>
    <rc><c>N </c><c>   3</c></rc>
    <rc><c>N </c><c>   3</c></rc>
    <rc><c>N </c><c>   3</c></rc>
    <rc><c>N </c><c>   3</c></rc>
    <rc><c>N </c><c>   3</c></rc>
    <rc><c>N </c><c>   3</c></rc>
    <rc><c>N </c><c>   3</c></rc>
    <rc><c>N </c><c>   3</c></rc>
    <rc><c>N </c><c>   3</c></rc>
    <rc><c>N </c><c>   3</c></rc>
    <rc><c>N </c><c>   3</c></rc>
    <rc><c>N </c><c>   3</c></rc>
    <rc><c>N </c><c>   3</c></rc>
    <rc><c>N </c><c>   3</c></rc>
    <rc><c>N </c><c>   3</c></rc>
    <rc><c>N </c><c>   3</c></rc>
    <rc><c>N </c><c>   3</c></rc>
    <rc><c>N </c><c>   3</c></rc>
    <rc><c>N </c><c>   3</c></rc>
    <rc><c>N </c><c>   3</c></rc>
    <rc><c>N </c><c>   3</c></rc>
    <rc><c>N </c><c>   3</c></rc>
    <rc><c>N </c><c>   3</c></rc>
    <rc><c>N </c><c>   3</c></rc>
    <rc><c>I </c><c>   4</c></rc>
    <rc><c>I </c><c>   4</c></rc>
    <rc><c>I </c><c>   4</c></rc>
    <rc><c>I </c><c>   4</c></rc>
    <rc><c>I </c><c>   4</c></rc>
    <rc><c>I </c><c>   4</c></rc>
    <rc><c>I </c><c>   4</c></rc>
    <rc><c>I </c><c>   4</c></rc>
    <rc><c>I </c><c>   4</c></rc>
    <rc><c>I </c><c>   4</c></rc>
    <rc><c>I </c><c>   4</c></rc>
    <rc><c>I </c><c>   4</c></rc>
    <rc><c>I </c><c>   4</c></rc>
    <rc><c>I </c><c>   4</c></rc>
    <rc><c>I </c><c>   4</c></rc>
    <rc><c>I </c><c>   4</c></rc>
    <rc><c>I </c><c>   4</c></rc>
    <rc><c>I </c><c>   4</c></rc>
    <rc><c>I </c><c>   4</c></rc>
    <rc><c>I </c><c>   4</c></rc>
    <rc><c>I </c><c>   4</c></rc>
    <rc><c>I </c><c>   4</c></rc>
    <rc><c>I </c><c>   4</c></rc>
    <rc><c>I </c><c>   4</c></rc>
    <rc><c>I </c><c>   4</c></rc>
    <rc><c>I </c><c>   4</c></rc>
    <rc><c>I </c><c>   4</c></rc>
    <rc><c>I </c><c>   4</c></rc>
    <rc><c>I </c><c>   4</c></rc>
    <rc><c>I </c><c>   4</c></rc>
    <rc><c>I </c><c>   4</c></rc>
    <rc><c>I </c><c>   4</c></rc>
    <rc><c>I </c><c>   4</c></rc>
    <rc><c>I </c><c>   4</c></rc>
    <rc><c>I </c><c>   4</c></rc>
    <rc><c>I </c><c>   4</c></rc>
    <rc><c>I </c><c>   4</c></rc>
    <rc><c>I </c><c>   4</c></rc>
    <rc><c>I </c><c>   4</c></rc>
    <rc><c>I </c><c>   4</c></rc>
    <rc><c>I </c><c>   4</c></rc>
    <rc><c>I </c><c>   4</c></rc>
    <rc><c>I </c><c>   4</c></rc>
    <rc><c>I </c><c>   4</c></rc>
    <rc><c>I </c><c>   4</c></rc>
    <rc><c>I </c><c>   4</c></rc>
    <rc><c>I </c><c>   4</c></rc>
    <rc><c>I </c><c>   4</c></rc>
    <rc><c>I </c><c>   4</c></rc>
    <rc><c>I </c><c>   4</c></rc>
    <rc><c>I </c><c>   4</c></rc>
    <rc><c>I </c><c>   4</c></rc>
    <rc><c>I </c><c>   4</c></rc>
    <rc><c>I </c><c>   4</c></rc>
    <rc><c>I </c><c>   4</c></rc>
    <rc><c>I </c><c>   4</c></rc>
    <rc><c>I </c><c>   4</c></rc>
    <rc><c>I </c><c>   4</c></rc>
    <rc><c>I </c><c>   4</c></rc>
    <rc><c>I </c><c>   4</c></rc>
    <rc><c>I </c><c>   4</c></rc>
    <rc><c>I </c><c>   4</c></rc>
    <rc><c>I </c><c>   4</c></rc>
    <rc><c>I </c><c>   4</c></rc>
    <rc><c>I </c><c>   4</c></rc>
    <rc><c>I </c><c>   4</c></rc>
    <rc><c>I </c><c>   4</c></rc>
    <rc><c>I </c><c>   4</c></rc>
    <rc><c>I </c><c>   4</c></rc>
    <rc><c>I </c><c>   4</c></rc>
    <rc><c>I </c><c>   4</c></rc>
    <rc><c>I </c><c>   4</c></rc>
    <rc><c>Pb</c><c>   5</c></rc>
    <rc><c>Pb</c><c>   5</c></rc>
    <rc><c>Pb</c><c>   5</c></rc>
    <rc><c>Pb</c><c>   5</c></rc>
    <rc><c>Pb</c><c>   5</c></rc>
    <rc><c>Pb</c><c>   5</c></rc>
    <rc><c>Pb</c><c>   5</c></rc>
    <rc><c>Pb</c><c>   5</c></rc>
    <rc><c>Pb</c><c>   5</c></rc>
    <rc><c>Pb</c><c>   5</c></rc>
    <rc><c>Pb</c><c>   5</c></rc>
    <rc><c>Pb</c><c>   5</c></rc>
    <rc><c>Pb</c><c>   5</c></rc>
    <rc><c>Pb</c><c>   5</c></rc>
    <rc><c>Pb</c><c>   5</c></rc>
    <rc><c>Pb</c><c>   5</c></rc>
    <rc><c>Pb</c><c>   5</c></rc>
    <rc><c>Pb</c><c>   5</c></rc>
    <rc><c>Pb</c><c>   5</c></rc>
    <rc><c>Pb</c><c>   5</c></rc>
    <rc><c>Pb</c><c>   5</c></rc>
    <rc><c>Pb</c><c>   5</c></rc>
    <rc><c>Pb</c><c>   5</c></rc>
    <rc><c>Pb</c><c>   5</c></rc>
   </set>
  </array>
  <array name="atomtypes" >
   <dimension dim="1">type</dimension>
   <field type="int">atomspertype</field>
   <field type="string">element</field>
   <field>mass</field>
   <field>valence</field>
   <field type="string">pseudopotential</field>
   <set>
    <rc><c> 143</c><c>H </c><c>      1.00000000</c><c>      1.00000000</c><c>  PAW_PBE H 15Jun2001                   </c></rc>
    <rc><c>  39</c><c>C </c><c>     12.01100000</c><c>      4.00000000</c><c>  PAW_PBE C 08Apr2002                   </c></rc>
    <rc><c>  47</c><c>N </c><c>     14.00100000</c><c>      5.00000000</c><c>  PAW_PBE N 08Apr2002                   </c></rc>
    <rc><c>  72</c><c>I </c><c>    126.90400000</c><c>      7.00000000</c><c>  PAW_PBE I 08Apr2002                   </c></rc>
    <rc><c>  24</c><c>Pb</c><c>    207.20000000</c><c>      4.00000000</c><c>  PAW_PBE Pb 08Apr2002                  </c></rc>
   </set>
  </array>
 </atominfo>
 <structure name="initialpos" >
  <crystal>
   <varray name="basis" >
    <v>      18.06080055       0.00000000       0.00000000 </v>
    <v>      -0.00491865      18.06279945       0.00000000 </v>
    <v>       0.00000000       0.00000000      62.48749924 </v>
   </varray>
   <i name="volume">  20385.21054034 </i>
   <varray name="rec_basis" >
    <v>       0.05536853       0.00001508      -0.00000000 </v>
    <v>       0.00000000       0.05536240       0.00000000 </v>
    <v>       0.00000000      -0.00000000       0.01600320 </v>
   </varray>
  </crystal>
  <varray name="positions" >
   <v>       0.44806198       0.29808416       0.58174038 </v>
   <v>       0.44430079       0.81755242       0.57970683 </v>
   <v>       0.95667848       0.27644819       0.58704472 </v>
   <v>       0.96982958       0.80479897       0.58522545 </v>
   <v>       0.29999760       0.04558927       0.58307494 </v>
   <v>       0.29880830       0.54949141       0.58284271 </v>
   <v>       0.78832779       0.06104273       0.58121574 </v>
   <v>       0.09127262       0.17878068       0.55434220 </v>
   <v>       0.07636931       0.67267885       0.55488405 </v>
   <v>       0.58897524       0.18126282       0.55513954 </v>
   <v>       0.55831508       0.66428385       0.56440793 </v>
   <v>       0.33590503       0.06756610       0.55831522 </v>
   <v>       0.32396564       0.58493535       0.55824374 </v>
   <v>       0.82650458       0.08057160       0.55659271 </v>
   <v>       0.06785070       0.19482465       0.58014307 </v>
   <v>       0.05162414       0.69767032       0.58069555 </v>
   <v>       0.56239438       0.21375098       0.58092900 </v>
   <v>       0.52567429       0.71056421       0.58721034 </v>
   <v>       0.19982607       0.44288294       0.58089249 </v>
   <v>       0.18662966       0.95376477       0.58139540 </v>
   <v>       0.69985589       0.94633026       0.58111434 </v>
   <v>       0.40353302       0.31092871       0.55658966 </v>
   <v>       0.42828527       0.84248798       0.55338321 </v>
   <v>       0.91135572       0.31251641       0.56523995 </v>
   <v>       0.94022477       0.85185192       0.56224698 </v>
   <v>       0.17275096       0.42191048       0.55519088 </v>
   <v>       0.16251600       0.92807093       0.55577413 </v>
   <v>       0.69062180       0.90398936       0.55634992 </v>
   <v>       0.49001648       0.23961356       0.53777529 </v>
   <v>       0.50442574       0.74184521       0.54069970 </v>
   <v>       0.99224655       0.25403076       0.54071575 </v>
   <v>       0.00386603       0.77115549       0.54017542 </v>
   <v>       0.24735107       0.50860302       0.53825078 </v>
   <v>       0.25254554       0.99557246       0.53856237 </v>
   <v>       0.77069809       0.98594474       0.53837886 </v>
   <v>       0.45081626       0.30464634       0.67453793 </v>
   <v>       0.44786843       0.79396631       0.67621765 </v>
   <v>       0.94317699       0.30466426       0.67203536 </v>
   <v>       0.94570465       0.80481597       0.67482601 </v>
   <v>       0.29921141       0.04715466       0.67497509 </v>
   <v>       0.29638642       0.55212194       0.67482766 </v>
   <v>       0.80444885       0.05749313       0.67354884 </v>
   <v>       0.81856711       0.54149620       0.67515622 </v>
   <v>       0.07908308       0.16812280       0.65095356 </v>
   <v>       0.08201494       0.67380529       0.65078208 </v>
   <v>       0.57502081       0.16816583       0.64928215 </v>
   <v>       0.57501605       0.67396790       0.64837688 </v>
   <v>       0.17536524       0.41720996       0.64920047 </v>
   <v>       0.16926438       0.92210916       0.64690014 </v>
   <v>       0.66288295       0.44345345       0.65116961 </v>
   <v>       0.67089180       0.92239531       0.65135513 </v>
   <v>       0.04419312       0.20322966       0.67521092 </v>
   <v>       0.04834260       0.70294962       0.67635287 </v>
   <v>       0.54926420       0.20113617       0.67502283 </v>
   <v>       0.55018514       0.69730211       0.67388173 </v>
   <v>       0.20421820       0.44787320       0.67461070 </v>
   <v>       0.19629998       0.94879020       0.67298605 </v>
   <v>       0.70025028       0.45181661       0.67551567 </v>
   <v>       0.70399786       0.95665147       0.67604037 </v>
   <v>       0.41976102       0.33309617       0.64904302 </v>
   <v>       0.41430934       0.82834738       0.65163339 </v>
   <v>       0.92184736       0.32676620       0.64622422 </v>
   <v>       0.91975527       0.82860525       0.64876727 </v>
   <v>       0.33363716       0.07846931       0.65013284 </v>
   <v>       0.32421446       0.58543603       0.64972535 </v>
   <v>       0.82895945       0.08340291       0.64723138 </v>
   <v>       0.83838617       0.57518799       0.65035505 </v>
   <v>       0.00432515       0.24418043       0.63050355 </v>
   <v>       0.00108605       0.75018434       0.63163445 </v>
   <v>       0.49572506       0.24810997       0.63139563 </v>
   <v>       0.49315731       0.75332369       0.63178341 </v>
   <v>       0.25330546       0.00179845       0.63074902 </v>
   <v>       0.25047012       0.50258524       0.63139741 </v>
   <v>       0.74755591       0.99960540       0.63161455 </v>
   <v>       0.74100509       0.51898933       0.63321625 </v>
   <v>       0.44874502       0.30128397       0.76888902 </v>
   <v>       0.44874501       0.80128391       0.76888902 </v>
   <v>       0.94874497       0.30128397       0.76888902 </v>
   <v>       0.94874501       0.80128391       0.76888902 </v>
   <v>       0.30127600       0.05129450       0.76887296 </v>
   <v>       0.30127601       0.55129450       0.76887296 </v>
   <v>       0.80127594       0.05129450       0.76887296 </v>
   <v>       0.80127598       0.55129450       0.76887296 </v>
   <v>       0.07877100       0.17118050       0.74344197 </v>
   <v>       0.07877101       0.67118045       0.74344197 </v>
   <v>       0.57877100       0.17118050       0.74344197 </v>
   <v>       0.57877099       0.67118045       0.74344197 </v>
   <v>       0.17119950       0.42117448       0.74342103 </v>
   <v>       0.17119950       0.92117451       0.74342103 </v>
   <v>       0.67119951       0.42117448       0.74342103 </v>
   <v>       0.67119950       0.92117451       0.74342103 </v>
   <v>       0.05125600       0.19871499       0.76888902 </v>
   <v>       0.05125600       0.69871493       0.76888902 </v>
   <v>       0.55125603       0.19871499       0.76888902 </v>
   <v>       0.55125602       0.69871493       0.76888902 </v>
   <v>       0.19872349       0.44870397       0.76887205 </v>
   <v>       0.19872349       0.94870397       0.76887205 </v>
   <v>       0.69872352       0.44870397       0.76887205 </v>
   <v>       0.69872351       0.94870397       0.76887205 </v>
   <v>       0.42123152       0.32881747       0.74344197 </v>
   <v>       0.42123151       0.82881744       0.74344197 </v>
   <v>       0.92123147       0.32881747       0.74344197 </v>
   <v>       0.92123151       0.82881744       0.74344197 </v>
   <v>       0.32880050       0.07882500       0.74342103 </v>
   <v>       0.32880049       0.57882496       0.74342103 </v>
   <v>       0.82880048       0.07882500       0.74342103 </v>
   <v>       0.82880052       0.57882496       0.74342103 </v>
   <v>       0.00000350       0.25000148       0.72582199 </v>
   <v>       0.00000350       0.75000145       0.72582199 </v>
   <v>       0.50000351       0.25000148       0.72582199 </v>
   <v>       0.50000350       0.75000145       0.72582199 </v>
   <v>       0.25000050       0.00000000       0.72580398 </v>
   <v>       0.25000052       0.50000000       0.72580398 </v>
   <v>       0.75000050       0.00000000       0.72580398 </v>
   <v>       0.75000049       0.50000000       0.72580398 </v>
   <v>       0.71903284       0.45983019       0.54902784 </v>
   <v>       0.74254280       0.51848279       0.52730975 </v>
   <v>       0.65783766       0.55740235       0.56399116 </v>
   <v>       0.69300339       0.64696425       0.56499600 </v>
   <v>       0.83867749       0.52149548       0.58127837 </v>
   <v>       0.77610627       0.59141294       0.58950664 </v>
   <v>       0.87747120       0.56103626       0.54645451 </v>
   <v>       0.82065365       0.62353490       0.53239652 </v>
   <v>       0.87789954       0.48756509       0.53084470 </v>
   <v>       0.86244805       0.45515115       0.55731264 </v>
   <v>       0.88621305       0.35344451       0.53378291 </v>
   <v>       0.79505812       0.34505136       0.54331796 </v>
   <v>       0.62389912       0.56550785       0.52681246 </v>
   <v>       0.70653644       0.61719701       0.52056860 </v>
   <v>       0.63533086       0.66413803       0.53288973 </v>
   <v>       0.72720352       0.47851508       0.60386547 </v>
   <v>       0.74379071       0.42272526       0.58026395 </v>
   <v>       0.67055687       0.49090216       0.58100885 </v>
   <v>       0.84035298       0.68042174       0.57516625 </v>
   <v>       0.87612763       0.71602893       0.55199597 </v>
   <v>       0.92752791       0.64344676       0.56684397 </v>
   <v>       0.84268876       0.39854108       0.49887865 </v>
   <v>       0.80359344       0.31323726       0.50558440 </v>
   <v>       0.67555490       0.32400094       0.52765748 </v>
   <v>       0.76004889       0.48193183       0.48239141 </v>
   <v>       0.55038896       0.37601215       0.52367231 </v>
   <v>       0.63440203       0.53397390       0.47832040 </v>
   <v>       0.53118469       0.48500968       0.49908881 </v>
   <v>       0.00263632       0.24527115       0.55731258 </v>
   <v>       0.00883637       0.76281456       0.55694410 </v>
   <v>       0.49753883       0.24470394       0.55498845 </v>
   <v>       0.49668524       0.75147002       0.55721808 </v>
   <v>       0.24921387       0.50483696       0.55593944 </v>
   <v>       0.24803799       0.99675803       0.55627197 </v>
   <v>       0.75976030       0.99346701       0.55571833 </v>
   <v>       0.00008389       0.24785538       0.64857394 </v>
   <v>       0.00070822       0.75158332       0.64985294 </v>
   <v>       0.49845253       0.24951215       0.64945809 </v>
   <v>       0.49711111       0.74914909       0.64980691 </v>
   <v>       0.25056367       0.50194069       0.64932451 </v>
   <v>       0.25048557       0.99948470       0.64870391 </v>
   <v>       0.74811290       0.50766660       0.65037416 </v>
   <v>       0.75006425       0.00179257       0.64956950 </v>
   <v>       0.49998898       0.24999498       0.74327702 </v>
   <v>       0.49998903       0.74999496       0.74327702 </v>
   <v>       0.99998898       0.24999498       0.74327702 </v>
   <v>       0.99998903       0.74999496       0.74327702 </v>
   <v>       0.25000050       0.00000100       0.74325596 </v>
   <v>       0.25000052       0.50000100       0.74325596 </v>
   <v>       0.75000050       0.00000100       0.74325596 </v>
   <v>       0.75000049       0.50000100       0.74325596 </v>
   <v>       0.72776292       0.39864602       0.50461014 </v>
   <v>       0.66798140       0.37018864       0.51584848 </v>
   <v>       0.71514189       0.45725086       0.49095385 </v>
   <v>       0.59512227       0.39981195       0.51409379 </v>
   <v>       0.64498228       0.48899405       0.48845158 </v>
   <v>       0.58291399       0.45939181       0.50067067 </v>
   <v>       0.76200386       0.49790647       0.54319788 </v>
   <v>       0.69295552       0.59644329       0.55524814 </v>
   <v>       0.78162244       0.54079990       0.57975500 </v>
   <v>       0.83638634       0.60407858       0.54768651 </v>
   <v>       0.83939593       0.45669649       0.54105206 </v>
   <v>       0.83027316       0.37602405       0.53273088 </v>
   <v>       0.66255064       0.60897895       0.53249799 </v>
   <v>       0.72798637       0.47847364       0.58630587 </v>
   <v>       0.87247179       0.66373375       0.56101407 </v>
   <v>       0.80337182       0.37198759       0.50900290 </v>
   <v>       0.05620741       0.20451396       0.56443229 </v>
   <v>       0.04722113       0.70605597       0.56508782 </v>
   <v>       0.55159467       0.20961190       0.56447887 </v>
   <v>       0.52918770       0.70795120       0.57067292 </v>
   <v>       0.44611376       0.28807081       0.56547003 </v>
   <v>       0.45284779       0.80923852       0.56432466 </v>
   <v>       0.95428631       0.28125949       0.57061315 </v>
   <v>       0.97282976       0.81175375       0.56924997 </v>
   <v>       0.20406378       0.45296532       0.56429805 </v>
   <v>       0.19608655       0.95705274       0.56467416 </v>
   <v>       0.71312699       0.94432555       0.56474998 </v>
   <v>       0.29832118       0.03981255       0.56628343 </v>
   <v>       0.29323406       0.54936506       0.56595365 </v>
   <v>       0.79405290       0.04803107       0.56476103 </v>
   <v>       0.04222695       0.20523755       0.65912658 </v>
   <v>       0.04510415       0.70895990       0.65945655 </v>
   <v>       0.54183838       0.20518383       0.65897537 </v>
   <v>       0.54544136       0.70422796       0.65814500 </v>
   <v>       0.20804772       0.45028516       0.65897134 </v>
   <v>       0.20447603       0.95629033       0.65755175 </v>
   <v>       0.70183574       0.46548889       0.66007471 </v>
   <v>       0.70785717       0.95993637       0.66036615 </v>
   <v>       0.45235650       0.30006299       0.65884436 </v>
   <v>       0.44878674       0.79437929       0.66050760 </v>
   <v>       0.95146624       0.29677391       0.65655777 </v>
   <v>       0.95300314       0.79890284       0.65806961 </v>
   <v>       0.29860713       0.04561701       0.65925955 </v>
   <v>       0.29137034       0.55076298       0.65925442 </v>
   <v>       0.79917824       0.05137703       0.65798915 </v>
   <v>       0.80683530       0.54432890       0.65975037 </v>
   <v>       0.04586250       0.20411950       0.75272599 </v>
   <v>       0.04586250       0.70411946       0.75272599 </v>
   <v>       0.54586251       0.20411950       0.75272599 </v>
   <v>       0.54586250       0.70411946       0.75272599 </v>
   <v>       0.20411900       0.45410100       0.75270499 </v>
   <v>       0.20411899       0.95410095       0.75270499 </v>
   <v>       0.70411898       0.45410100       0.75270499 </v>
   <v>       0.70411896       0.95410095       0.75270499 </v>
   <v>       0.45414002       0.29588849       0.75272697 </v>
   <v>       0.45414001       0.79588852       0.75272697 </v>
   <v>       0.95414002       0.29588849       0.75272697 </v>
[...]
   <v>       0.58897524       0.18126282       0.55513954 </v>
   <v>       0.55831508       0.66428385       0.56440793 </v>
   <v>       0.33590503       0.06756610       0.55831522 </v>
   <v>       0.32396564       0.58493535       0.55824374 </v>
   <v>       0.82650458       0.08057160       0.55659271 </v>
   <v>       0.06785070       0.19482465       0.58014307 </v>
   <v>       0.05162414       0.69767032       0.58069555 </v>
   <v>       0.56239438       0.21375098       0.58092900 </v>
   <v>       0.52567429       0.71056421       0.58721034 </v>
   <v>       0.19982607       0.44288294       0.58089249 </v>
   <v>       0.18662966       0.95376477       0.58139540 </v>
   <v>       0.69985589       0.94633026       0.58111434 </v>
   <v>       0.40353302       0.31092871       0.55658966 </v>
   <v>       0.42828527       0.84248798       0.55338321 </v>
   <v>       0.91135572       0.31251641       0.56523995 </v>
   <v>       0.94022477       0.85185192       0.56224698 </v>
   <v>       0.17275096       0.42191048       0.55519088 </v>
   <v>       0.16251600       0.92807093       0.55577413 </v>
   <v>       0.69062180       0.90398936       0.55634992 </v>
   <v>       0.49001648       0.23961356       0.53777529 </v>
   <v>       0.50442574       0.74184521       0.54069970 </v>
   <v>       0.99224655       0.25403076       0.54071575 </v>
   <v>       0.00386603       0.77115549       0.54017542 </v>
   <v>       0.24735107       0.50860302       0.53825078 </v>
   <v>       0.25254554       0.99557246       0.53856237 </v>
   <v>       0.77069809       0.98594474       0.53837886 </v>
   <v>       0.45081626       0.30464634       0.67453793 </v>
   <v>       0.44786843       0.79396631       0.67621765 </v>
   <v>       0.94317699       0.30466426       0.67203536 </v>
   <v>       0.94570465       0.80481597       0.67482601 </v>
   <v>       0.29921141       0.04715466       0.67497509 </v>
   <v>       0.29638642       0.55212194       0.67482766 </v>
   <v>       0.80444885       0.05749313       0.67354884 </v>
   <v>       0.81856711       0.54149620       0.67515622 </v>
   <v>       0.07908308       0.16812280       0.65095356 </v>
   <v>       0.08201494       0.67380529       0.65078208 </v>
   <v>       0.57502081       0.16816583       0.64928215 </v>
   <v>       0.57501605       0.67396790       0.64837688 </v>
   <v>       0.17536524       0.41720996       0.64920047 </v>
   <v>       0.16926438       0.92210916       0.64690014 </v>
   <v>       0.66288295       0.44345345       0.65116961 </v>
   <v>       0.67089180       0.92239531       0.65135513 </v>
   <v>       0.04419312       0.20322966       0.67521092 </v>
   <v>       0.04834260       0.70294962       0.67635287 </v>
   <v>       0.54926420       0.20113617       0.67502283 </v>
   <v>       0.55018514       0.69730211       0.67388173 </v>
   <v>       0.20421820       0.44787320       0.67461070 </v>
   <v>       0.19629998       0.94879020       0.67298605 </v>
   <v>       0.70025028       0.45181661       0.67551567 </v>
   <v>       0.70399786       0.95665147       0.67604037 </v>
   <v>       0.41976102       0.33309617       0.64904302 </v>
   <v>       0.41430934       0.82834738       0.65163339 </v>
   <v>       0.92184736       0.32676620       0.64622422 </v>
   <v>       0.91975527       0.82860525       0.64876727 </v>
   <v>       0.33363716       0.07846931       0.65013284 </v>
   <v>       0.32421446       0.58543603       0.64972535 </v>
   <v>       0.82895945       0.08340291       0.64723138 </v>
   <v>       0.83838617       0.57518799       0.65035505 </v>
   <v>       0.00432515       0.24418043       0.63050355 </v>
   <v>       0.00108605       0.75018434       0.63163445 </v>
   <v>       0.49572506       0.24810997       0.63139563 </v>
   <v>       0.49315731       0.75332369       0.63178341 </v>
   <v>       0.25330546       0.00179845       0.63074902 </v>
   <v>       0.25047012       0.50258524       0.63139741 </v>
   <v>       0.74755591       0.99960540       0.63161455 </v>
   <v>       0.74100509       0.51898933       0.63321625 </v>
   <v>       0.44874502       0.30128397       0.76888902 </v>
   <v>       0.44874501       0.80128391       0.76888902 </v>
   <v>       0.94874497       0.30128397       0.76888902 </v>
   <v>       0.94874501       0.80128391       0.76888902 </v>
   <v>       0.30127600       0.05129450       0.76887296 </v>
   <v>       0.30127601       0.55129450       0.76887296 </v>
   <v>       0.80127594       0.05129450       0.76887296 </v>
   <v>       0.80127598       0.55129450       0.76887296 </v>
   <v>       0.07877100       0.17118050       0.74344197 </v>
   <v>       0.07877101       0.67118045       0.74344197 </v>
   <v>       0.57877100       0.17118050       0.74344197 </v>
   <v>       0.57877099       0.67118045       0.74344197 </v>
   <v>       0.17119950       0.42117448       0.74342103 </v>
   <v>       0.17119950       0.92117451       0.74342103 </v>
   <v>       0.67119951       0.42117448       0.74342103 </v>
   <v>       0.67119950       0.92117451       0.74342103 </v>
   <v>       0.05125600       0.19871499       0.76888902 </v>
   <v>       0.05125600       0.69871493       0.76888902 </v>
   <v>       0.55125603       0.19871499       0.76888902 </v>
   <v>       0.55125602       0.69871493       0.76888902 </v>
   <v>       0.19872349       0.44870397       0.76887205 </v>
   <v>       0.19872349       0.94870397       0.76887205 </v>
   <v>       0.69872352       0.44870397       0.76887205 </v>
   <v>       0.69872351       0.94870397       0.76887205 </v>
   <v>       0.42123152       0.32881747       0.74344197 </v>
   <v>       0.42123151       0.82881744       0.74344197 </v>
   <v>       0.92123147       0.32881747       0.74344197 </v>
   <v>       0.92123151       0.82881744       0.74344197 </v>
   <v>       0.32880050       0.07882500       0.74342103 </v>
   <v>       0.32880049       0.57882496       0.74342103 </v>
   <v>       0.82880048       0.07882500       0.74342103 </v>
   <v>       0.82880052       0.57882496       0.74342103 </v>
   <v>       0.00000350       0.25000148       0.72582199 </v>
   <v>       0.00000350       0.75000145       0.72582199 </v>
   <v>       0.50000351       0.25000148       0.72582199 </v>
   <v>       0.50000350       0.75000145       0.72582199 </v>
   <v>       0.25000050       0.00000000       0.72580398 </v>
   <v>       0.25000052       0.50000000       0.72580398 </v>
   <v>       0.75000050       0.00000000       0.72580398 </v>
   <v>       0.75000049       0.50000000       0.72580398 </v>
   <v>       0.71903284       0.45983019       0.54902784 </v>
   <v>       0.74254280       0.51848279       0.52730975 </v>
   <v>       0.65783766       0.55740235       0.56399116 </v>
   <v>       0.69300339       0.64696425       0.56499600 </v>
   <v>       0.83867749       0.52149548       0.58127837 </v>
   <v>       0.77610627       0.59141294       0.58950664 </v>
   <v>       0.87747120       0.56103626       0.54645451 </v>
   <v>       0.82065365       0.62353490       0.53239652 </v>
   <v>       0.87789954       0.48756509       0.53084470 </v>
   <v>       0.86244805       0.45515115       0.55731264 </v>
   <v>       0.88621305       0.35344451       0.53378291 </v>
   <v>       0.79505812       0.34505136       0.54331796 </v>
   <v>       0.62389912       0.56550785       0.52681246 </v>
   <v>       0.70653644       0.61719701       0.52056860 </v>
   <v>       0.63533086       0.66413803       0.53288973 </v>
   <v>       0.72720352       0.47851508       0.60386547 </v>
   <v>       0.74379071       0.42272526       0.58026395 </v>
   <v>       0.67055687       0.49090216       0.58100885 </v>
   <v>       0.84035298       0.68042174       0.57516625 </v>
   <v>       0.87612763       0.71602893       0.55199597 </v>
   <v>       0.92752791       0.64344676       0.56684397 </v>
   <v>       0.84268876       0.39854108       0.49887865 </v>
   <v>       0.80359344       0.31323726       0.50558440 </v>
   <v>       0.67555490       0.32400094       0.52765748 </v>
   <v>       0.76004889       0.48193183       0.48239141 </v>
   <v>       0.55038896       0.37601215       0.52367231 </v>
   <v>       0.63440203       0.53397390       0.47832040 </v>
   <v>       0.53118469       0.48500968       0.49908881 </v>
   <v>       0.00263632       0.24527115       0.55731258 </v>
   <v>       0.00883637       0.76281456       0.55694410 </v>
   <v>       0.49753883       0.24470394       0.55498845 </v>
   <v>       0.49668524       0.75147002       0.55721808 </v>
   <v>       0.24921387       0.50483696       0.55593944 </v>
   <v>       0.24803799       0.99675803       0.55627197 </v>
   <v>       0.75976030       0.99346701       0.55571833 </v>
   <v>       0.00008389       0.24785538       0.64857394 </v>
   <v>       0.00070822       0.75158332       0.64985294 </v>
   <v>       0.49845253       0.24951215       0.64945809 </v>
   <v>       0.49711111       0.74914909       0.64980691 </v>
   <v>       0.25056367       0.50194069       0.64932451 </v>
   <v>       0.25048557       0.99948470       0.64870391 </v>
   <v>       0.74811290       0.50766660       0.65037416 </v>
   <v>       0.75006425       0.00179257       0.64956950 </v>
   <v>       0.49998898       0.24999498       0.74327702 </v>
   <v>       0.49998903       0.74999496       0.74327702 </v>
   <v>       0.99998898       0.24999498       0.74327702 </v>
   <v>       0.99998903       0.74999496       0.74327702 </v>
   <v>       0.25000050       0.00000100       0.74325596 </v>
   <v>       0.25000052       0.50000100       0.74325596 </v>
   <v>       0.75000050       0.00000100       0.74325596 </v>
   <v>       0.75000049       0.50000100       0.74325596 </v>
   <v>       0.72776292       0.39864602       0.50461014 </v>
   <v>       0.66798140       0.37018864       0.51584848 </v>
   <v>       0.71514189       0.45725086       0.49095385 </v>
   <v>       0.59512227       0.39981195       0.51409379 </v>
   <v>       0.64498228       0.48899405       0.48845158 </v>
   <v>       0.58291399       0.45939181       0.50067067 </v>
   <v>       0.76200386       0.49790647       0.54319788 </v>
   <v>       0.69295552       0.59644329       0.55524814 </v>
   <v>       0.78162244       0.54079990       0.57975500 </v>
   <v>       0.83638634       0.60407858       0.54768651 </v>
   <v>       0.83939593       0.45669649       0.54105206 </v>
   <v>       0.83027316       0.37602405       0.53273088 </v>
   <v>       0.66255064       0.60897895       0.53249799 </v>
   <v>       0.72798637       0.47847364       0.58630587 </v>
   <v>       0.87247179       0.66373375       0.56101407 </v>
   <v>       0.80337182       0.37198759       0.50900290 </v>
   <v>       0.05620741       0.20451396       0.56443229 </v>
   <v>       0.04722113       0.70605597       0.56508782 </v>
   <v>       0.55159467       0.20961190       0.56447887 </v>
   <v>       0.52918770       0.70795120       0.57067292 </v>
   <v>       0.44611376       0.28807081       0.56547003 </v>
   <v>       0.45284779       0.80923852       0.56432466 </v>
   <v>       0.95428631       0.28125949       0.57061315 </v>
   <v>       0.97282976       0.81175375       0.56924997 </v>
   <v>       0.20406378       0.45296532       0.56429805 </v>
   <v>       0.19608655       0.95705274       0.56467416 </v>
   <v>       0.71312699       0.94432555       0.56474998 </v>
   <v>       0.29832118       0.03981255       0.56628343 </v>
   <v>       0.29323406       0.54936506       0.56595365 </v>
   <v>       0.79405290       0.04803107       0.56476103 </v>
   <v>       0.04222695       0.20523755       0.65912658 </v>
   <v>       0.04510415       0.70895990       0.65945655 </v>
   <v>       0.54183838       0.20518383       0.65897537 </v>
   <v>       0.54544136       0.70422796       0.65814500 </v>
   <v>       0.20804772       0.45028516       0.65897134 </v>
   <v>       0.20447603       0.95629033       0.65755175 </v>
   <v>       0.70183574       0.46548889       0.66007471 </v>
   <v>       0.70785717       0.95993637       0.66036615 </v>
   <v>       0.45235650       0.30006299       0.65884436 </v>
   <v>       0.44878674       0.79437929       0.66050760 </v>
   <v>       0.95146624       0.29677391       0.65655777 </v>
   <v>       0.95300314       0.79890284       0.65806961 </v>
   <v>       0.29860713       0.04561701       0.65925955 </v>
   <v>       0.29137034       0.55076298       0.65925442 </v>
   <v>       0.79917824       0.05137703       0.65798915 </v>
   <v>       0.80683530       0.54432890       0.65975037 </v>
   <v>       0.04586250       0.20411950       0.75272599 </v>
   <v>       0.04586250       0.70411946       0.75272599 </v>
   <v>       0.54586251       0.20411950       0.75272599 </v>
   <v>       0.54586250       0.70411946       0.75272599 </v>
   <v>       0.20411900       0.45410100       0.75270499 </v>
   <v>       0.20411899       0.95410095       0.75270499 </v>
   <v>       0.70411898       0.45410100       0.75270499 </v>
   <v>       0.70411896       0.95410095       0.75270499 </v>
   <v>       0.45414002       0.29588849       0.75272697 </v>
   <v>       0.45414001       0.79588852       0.75272697 </v>
   <v>       0.95414002       0.29588849       0.75272697 </v>
   <v>       0.95414006       0.79588852       0.75272697 </v>
   <v>       0.29588249       0.04590050       0.75270499 </v>
   <v>       0.29588248       0.54590053       0.75270499 </v>
   <v>       0.79588244       0.04590050       0.75270499 </v>
   <v>       0.79588248       0.54590053       0.75270499 </v>
   <v>       0.77063584       0.56122865       0.55634803 </v>
   <v>       0.49733630       0.00708449       0.55223564 </v>
   <v>       0.48798332       0.51198967       0.55475909 </v>
   <v>       0.00097942       0.00307605       0.55182827 </v>
   <v>       0.01533881       0.51100125       0.55607582 </v>
   <v>       0.25326687       0.24932461       0.55190732 </v>
   <v>       0.25275073       0.75038635       0.55280820 </v>
   <v>       0.73625823       0.23462676       0.55638222 </v>
   <v>       0.73454132       0.76548506       0.54774640 </v>
   <v>       0.00074052       0.00399896       0.65344161 </v>
   <v>       0.00760246       0.49903111       0.65586311 </v>
   <v>       0.49802290       0.00084432       0.65422424 </v>
   <v>       0.49844265       0.49786903       0.65489930 </v>
   <v>       0.25190917       0.24646601       0.65480577 </v>
   <v>       0.24429195       0.74847222       0.65423541 </v>
   <v>       0.74922771       0.24930056       0.65530990 </v>
   <v>       0.75237756       0.75173063       0.65442832 </v>
   <v>       0.14483969       0.10793285       0.60787622 </v>
   <v>       0.14701998       0.60656387       0.60879321 </v>
   <v>       0.64483525       0.10600448       0.60898087 </v>
   <v>       0.62805097       0.62215540       0.61184003 </v>
   <v>       0.35380380       0.39097942       0.60845849 </v>
   <v>       0.35825388       0.89327219       0.60912153 </v>
   <v>       0.87058180       0.37970827       0.61141508 </v>
   <v>       0.85654151       0.89568504       0.60882093 </v>
   <v>       0.10916962       0.35502999       0.60863022 </v>
   <v>       0.11055534       0.86216220       0.60887526 </v>
   <v>       0.59555823       0.34480424       0.60696991 </v>
   <v>       0.60284533       0.86076010       0.60866025 </v>
   <v>       0.39305930       0.14269548       0.60855525 </v>
   <v>       0.39449137       0.64027816       0.60928526 </v>
   <v>       0.88982709       0.14271236       0.60790229 </v>
   <v>       0.90745956       0.64601680       0.61195571 </v>
   <v>       0.00000000       0.00000000       0.75492797 </v>
   <v>       0.00000000       0.50000000       0.75492797 </v>
   <v>       0.50000000       0.00000000       0.75492797 </v>
   <v>       0.49999999       0.50000000       0.75492797 </v>
   <v>       0.25000050       0.25000000       0.75493902 </v>
   <v>       0.25000051       0.74999997       0.75493902 </v>
   <v>       0.75000047       0.25000000       0.75493902 </v>
   <v>       0.75000046       0.74999997       0.75493902 </v>
   <v>       0.13579050       0.11421000       0.70478299 </v>
   <v>       0.13579050       0.61420998       0.70478299 </v>
   <v>       0.63579045       0.11421000       0.70478299 </v>
   <v>       0.63579049       0.61420998       0.70478299 </v>
   <v>       0.36420952       0.38578999       0.70478299 </v>
   <v>       0.36420950       0.88578996       0.70478299 </v>
   <v>       0.86420954       0.38578999       0.70478299 </v>
   <v>       0.86420953       0.88578996       0.70478299 </v>
   <v>       0.11421799       0.36421899       0.70478098 </v>
   <v>       0.11421799       0.86421899       0.70478098 </v>
   <v>       0.61421800       0.36421899       0.70478098 </v>
   <v>       0.61421799       0.86421899       0.70478098 </v>
   <v>       0.38578201       0.13578149       0.70478202 </v>
   <v>       0.38578200       0.63578149       0.70478202 </v>
   <v>       0.88578199       0.13578149       0.70478202 </v>
   <v>       0.88578203       0.63578149       0.70478202 </v>
   <v>       0.13466700       0.11533200       0.80125603 </v>
   <v>       0.13466699       0.61533199       0.80125603 </v>
   <v>       0.63466699       0.11533200       0.80125603 </v>
   <v>       0.63466698       0.61533199       0.80125603 </v>
   <v>       0.36533300       0.38466799       0.80125603 </v>
   <v>       0.36533299       0.88466796       0.80125603 </v>
   <v>       0.86533295       0.38466799       0.80125603 </v>
   <v>       0.86533294       0.88466796       0.80125603 </v>
   <v>       0.11532850       0.36533700       0.80126500 </v>
   <v>       0.11532850       0.86533698       0.80126500 </v>
   <v>       0.61532850       0.36533700       0.80126500 </v>
   <v>       0.61532849       0.86533698       0.80126500 </v>
   <v>       0.38467151       0.13466300       0.80126500 </v>
   <v>       0.38467150       0.63466297       0.80126500 </v>
   <v>       0.88467149       0.13466300       0.80126500 </v>
   <v>       0.88467153       0.63466297       0.80126500 </v>
   <v>       0.99763676       0.99834909       0.60305440 </v>
   <v>       0.00023746       0.50436273       0.60532945 </v>
   <v>       0.49944905       0.00154652       0.60219521 </v>
   <v>       0.50053058       0.50028754       0.60427272 </v>
   <v>       0.25415841       0.24924531       0.60285978 </v>
   <v>       0.24643287       0.74932390       0.60179206 </v>
   <v>       0.74653772       0.24885574       0.60475756 </v>
   <v>       0.74326707       0.76128379       0.60524184 </v>
   <v>       0.00000050       0.00000050       0.70482896 </v>
   <v>       0.00000050       0.50000048       0.70482896 </v>
   <v>       0.50000048       0.00000050       0.70482896 </v>
   <v>       0.50000046       0.50000048       0.70482896 </v>
   <v>       0.24999999       0.24999947       0.70482499 </v>
   <v>       0.25000001       0.74999950       0.70482499 </v>
   <v>       0.74999999       0.24999947       0.70482499 </v>
   <v>       0.74999998       0.74999950       0.70482499 </v>
   <v>       0.00000000       0.00000000       0.80731797 </v>
   <v>       0.00000000       0.50000000       0.80731797 </v>
   <v>       0.50000000       0.00000000       0.80731797 </v>
   <v>       0.49999999       0.50000000       0.80731797 </v>
   <v>       0.24999999       0.25000000       0.80731797 </v>
   <v>       0.25000001       0.74999997       0.80731797 </v>
   <v>       0.74999999       0.25000000       0.80731797 </v>
   <v>       0.74999998       0.74999997       0.80731797 </v>
  </varray>
 </structure>
</modeling>
