<?xml version="1.0" encoding="ISO-8859-1"?>
<modeling>
 <generator>
  <i name="program" type="string">vasp </i>
  <i name="version" type="string">6.2.1  </i>
  <i name="subversion" type="string">16May21 (build Nov 15 2021 14:57:28) complex                          parallel </i>
  <i name="platform" type="string">LinuxPGI </i>
  <i name="date" type="string">2023 07 30 </i>
  <i name="time" type="string">10:21:31 </i>
 </generator>
 <incar>
  <i type="string" name="SYSTEM">PSC</i>
  <i type="int" name="ISTART">     1</i>
  <i type="string" name="PREC">Normal</i>
  <i name="BMIX">      0.01000000</i>
  <i name="AMIN">      0.01000000</i>
  <i type="int" name="ICHARG">     1</i>
  <i type="int" name="NELM">   600</i>
  <i type="int" name="ISYM">     0</i>
  <i name="ENCUT">    500.00000000</i>
  <i type="string" name="LREAL">Auto</i>
  <i type="int" name="ISMEAR">     0</i>
  <i name="SIGMA">      0.05000000</i>
  <i type="logical" name="LWAVE"> F  </i>
  <i type="logical" name="LVTOT"> T  </i>
  <i type="logical" name="GGA_COMPAT"> F  </i>
  <i type="logical" name="LDIPOL"> T  </i>
  <i type="int" name="IDIPOL">     3</i>
  <i type="int" name="IVDW">    12</i>
 </incar>
 <primitive_cell>
  <structure name="primitive_cell" >
   <crystal>
    <varray name="basis" >
     <v>      18.06080055       0.00000000       0.00000000 </v>
     <v>      -0.00491865      18.06279945       0.00000000 </v>
     <v>       0.00000000       0.00000000      62.48749924 </v>
    </varray>
    <i name="volume">  20385.21054034 </i>
    <varray name="rec_basis" >
     <v>       0.05536853       0.00001508      -0.00000000 </v>
     <v>       0.00000000       0.05536240       0.00000000 </v>
     <v>       0.00000000      -0.00000000       0.01600320 </v>
    </varray>
   </crystal>
   <varray name="positions" >
    <v>       0.43013165       0.26499758       0.58309197 </v>
    <v>       0.42111161       0.75637223       0.57999284 </v>
    <v>       0.93746956       0.29295769       0.58281280 </v>
    <v>       0.94921700       0.80607219       0.58106220 </v>
    <v>       0.30790942       0.05343568       0.58151096 </v>
    <v>       0.30340727       0.57156929       0.57662656 </v>
    <v>       0.77968142       0.06959613       0.58234456 </v>
    <v>       0.09791274       0.18719497       0.56288993 </v>
    <v>       0.08629075       0.67837250       0.56140373 </v>
    <v>       0.59733995       0.18998024       0.56216383 </v>
    <v>       0.61126316       0.73526899       0.56200041 </v>
    <v>       0.36655566       0.02738722       0.56040408 </v>
    <v>       0.28630313       0.60535692       0.55120113 </v>
    <v>       0.84285006       0.06829893       0.56142894 </v>
    <v>       0.07086170       0.23335956       0.58536671 </v>
    <v>       0.02220944       0.69121818       0.58193286 </v>
    <v>       0.53887430       0.18345383       0.58368083 </v>
    <v>       0.55350657       0.70477151       0.58177939 </v>
    <v>       0.25224572       0.44406120       0.58432396 </v>
    <v>       0.17934530       0.00445432       0.58025986 </v>
    <v>       0.68359570       0.97126268       0.58186211 </v>
    <v>       0.41634569       0.31952021       0.56057929 </v>
    <v>       0.40058992       0.81245628       0.55844782 </v>
    <v>       0.89452780       0.27274200       0.55892612 </v>
    <v>       0.96427021       0.86532241       0.55936127 </v>
    <v>       0.20447198       0.40179770       0.56358507 </v>
    <v>       0.15680415       0.95010919       0.55811316 </v>
    <v>       0.68887170       0.90679238       0.56058881 </v>
    <v>       0.52185574       0.27526708       0.54452334 </v>
    <v>       0.51891488       0.80294678       0.54426694 </v>
    <v>       0.99045339       0.20691136       0.54438024 </v>
    <v>       0.05490226       0.78947602       0.54467095 </v>
    <v>       0.22198241       0.50032999       0.54026034 </v>
    <v>       0.27413386       0.95996976       0.54331265 </v>
    <v>       0.78970908       0.96487233       0.54544619 </v>
    <v>       0.43772573       0.28983494       0.67482272 </v>
    <v>       0.43453832       0.82057197       0.67154624 </v>
    <v>       0.96308564       0.28106577       0.68030404 </v>
    <v>       0.93835435       0.79838590       0.67622949 </v>
    <v>       0.30056352       0.04906076       0.67633254 </v>
    <v>       0.29852074       0.55397372       0.67627741 </v>
    <v>       0.80348990       0.05386732       0.67540273 </v>
    <v>       0.80867420       0.55408708       0.67514529 </v>
    <v>       0.08434435       0.17074726       0.64553256 </v>
    <v>       0.09046350       0.68605050       0.65341151 </v>
    <v>       0.57852805       0.17367609       0.64869096 </v>
    <v>       0.56215139       0.66921273       0.65836966 </v>
    <v>       0.18183920       0.41355625       0.65056707 </v>
    <v>       0.17157060       0.92403588       0.64837755 </v>
    <v>       0.66718678       0.42203065       0.65506858 </v>
    <v>       0.66627670       0.93065705       0.65086040 </v>
    <v>       0.06877310       0.18426480       0.67261463 </v>
    <v>       0.04207606       0.69391102       0.67698001 </v>
    <v>       0.53768725       0.18471295       0.67359072 </v>
    <v>       0.52622011       0.71400957       0.68062423 </v>
    <v>       0.20788318       0.44252685       0.67599934 </v>
    <v>       0.19361890       0.95153903       0.67422506 </v>
    <v>       0.70748222       0.44840318       0.67923742 </v>
    <v>       0.69307861       0.96225931       0.67600252 </v>
    <v>       0.42245163       0.33444694       0.65063667 </v>
    <v>       0.42297579       0.83744849       0.64438047 </v>
    <v>       0.92366164       0.31931174       0.65728240 </v>
    <v>       0.93272391       0.84435121       0.65238201 </v>
    <v>       0.33608849       0.07443534       0.65160653 </v>
    <v>       0.32247433       0.58751763       0.65121491 </v>
    <v>       0.83891207       0.07350666       0.65010104 </v>
    <v>       0.81706530       0.58620672       0.64958616 </v>
    <v>       0.99314528       0.25619193       0.63452877 </v>
    <v>       0.02803727       0.78192500       0.63631056 </v>
    <v>       0.51011684       0.26835169       0.63236720 </v>
    <v>       0.50253106       0.74443103       0.63396652 </v>
    <v>       0.25999550       0.99863963       0.63221861 </v>
    <v>       0.25131874       0.50411189       0.63297933 </v>
    <v>       0.75782749       0.99736145       0.63268221 </v>
    <v>       0.73151371       0.50641038       0.63510017 </v>
    <v>       0.44874502       0.30128397       0.76888902 </v>
    <v>       0.44874501       0.80128391       0.76888902 </v>
    <v>       0.94874497       0.30128397       0.76888902 </v>
    <v>       0.94874501       0.80128391       0.76888902 </v>
    <v>       0.30127600       0.05129450       0.76887296 </v>
    <v>       0.30127601       0.55129450       0.76887296 </v>
    <v>       0.80127594       0.05129450       0.76887296 </v>
    <v>       0.80127598       0.55129450       0.76887296 </v>
    <v>       0.07877100       0.17118050       0.74344197 </v>
    <v>       0.07877101       0.67118045       0.74344197 </v>
    <v>       0.57877100       0.17118050       0.74344197 </v>
    <v>       0.57877099       0.67118045       0.74344197 </v>
    <v>       0.17119950       0.42117448       0.74342103 </v>
    <v>       0.17119950       0.92117451       0.74342103 </v>
    <v>       0.67119951       0.42117448       0.74342103 </v>
    <v>       0.67119950       0.92117451       0.74342103 </v>
    <v>       0.05125600       0.19871499       0.76888902 </v>
    <v>       0.05125600       0.69871493       0.76888902 </v>
    <v>       0.55125603       0.19871499       0.76888902 </v>
    <v>       0.55125602       0.69871493       0.76888902 </v>
    <v>       0.19872349       0.44870397       0.76887205 </v>
    <v>       0.19872349       0.94870397       0.76887205 </v>
    <v>       0.69872352       0.44870397       0.76887205 </v>
    <v>       0.69872351       0.94870397       0.76887205 </v>
    <v>       0.42123152       0.32881747       0.74344197 </v>
    <v>       0.42123151       0.82881744       0.74344197 </v>
    <v>       0.92123147       0.32881747       0.74344197 </v>
    <v>       0.92123151       0.82881744       0.74344197 </v>
    <v>       0.32880050       0.07882500       0.74342103 </v>
    <v>       0.32880049       0.57882496       0.74342103 </v>
    <v>       0.82880048       0.07882500       0.74342103 </v>
    <v>       0.82880052       0.57882496       0.74342103 </v>
    <v>       0.00000350       0.25000148       0.72582199 </v>
    <v>       0.00000350       0.75000145       0.72582199 </v>
    <v>       0.50000351       0.25000148       0.72582199 </v>
    <v>       0.50000350       0.75000145       0.72582199 </v>
    <v>       0.25000050       0.00000000       0.72580398 </v>
    <v>       0.25000052       0.50000000       0.72580398 </v>
    <v>       0.75000050       0.00000000       0.72580398 </v>
    <v>       0.75000049       0.50000000       0.72580398 </v>
    <v>       0.78066276       0.50925037       0.52055999 </v>
    <v>       0.86834867       0.51015094       0.53361466 </v>
    <v>       0.75980005       0.62996529       0.54014130 </v>
    <v>       0.76760459       0.63041033       0.56782109 </v>
    <v>       0.67872006       0.45975690       0.55967762 </v>
    <v>       0.67505624       0.55323703       0.56608191 </v>
    <v>       0.80518266       0.43051622       0.57276788 </v>
    <v>       0.87292398       0.50059255       0.57320706 </v>
    <v>       0.85997718       0.38677905       0.54327059 </v>
    <v>       0.76266340       0.38050013       0.53973973 </v>
    <v>       0.77269447       0.38683707       0.50144844 </v>
    <v>       0.86216692       0.42275250       0.50270089 </v>
    <v>       0.89151382       0.62150541       0.53387125 </v>
    <v>       0.91125588       0.61171767       0.56105460 </v>
    <v>       0.87023331       0.69483530       0.55069804 </v>
    <v>       0.59385688       0.52698997       0.53613152 </v>
    <v>       0.66431407       0.48277443       0.52143571 </v>
    <v>       0.67011198       0.58058967       0.52620412 </v>
    <v>       0.73096426       0.47993429       0.59913949 </v>
    <v>       0.75179473       0.57126491       0.59298463 </v>
    <v>       0.81701653       0.51937602       0.60646517 </v>
    <v>       0.83530544       0.26898252       0.51899992 </v>
    <v>       0.84332034       0.28258244       0.49147764 </v>
    <v>       0.93776294       0.17974397       0.50342924 </v>
    <v>       0.97597565       0.41491843       0.51389868 </v>
    <v>       0.07201663       0.15855604       0.50405452 </v>
    <v>       0.10630158       0.39248165       0.51575239 </v>
    <v>       0.15976004       0.26508620       0.51121037 </v>
    <v>       0.99544338       0.22765329       0.56060004 </v>
    <v>       0.02686047       0.77260811       0.55949960 </v>
    <v>       0.50581420       0.25362810       0.56016984 </v>
    <v>       0.50616087       0.77233704       0.55889334 </v>
    <v>       0.24428814       0.50353755       0.55645212 </v>
    <v>       0.26167342       0.98773052       0.55844892 </v>
    <v>       0.76586094       0.98776812       0.56009817 </v>
    <v>       0.00429362       0.24518651       0.65140837 </v>
    <v>       0.01225333       0.76497879       0.65240844 </v>
    <v>       0.50033165       0.25416819       0.64935125 </v>
    <v>       0.49376075       0.75312143       0.65092347 </v>
    <v>       0.25189617       0.50011293       0.65043222 </v>
    <v>       0.25335001       0.99921305       0.64965643 </v>
    <v>       0.74245028       0.50448432       0.65227322 </v>
    <v>       0.75248204       0.00148861       0.65014078 </v>
    <v>       0.49998898       0.24999498       0.74327702 </v>
    <v>       0.49998903       0.74999496       0.74327702 </v>
    <v>       0.99998898       0.24999498       0.74327702 </v>
    <v>       0.99998903       0.74999496       0.74327702 </v>
    <v>       0.25000050       0.00000100       0.74325596 </v>
    <v>       0.25000052       0.50000100       0.74325596 </v>
    <v>       0.75000050       0.00000100       0.74325596 </v>
    <v>       0.75000049       0.50000100       0.74325596 </v>
    <v>       0.94544160       0.29904133       0.50816618 </v>
    <v>       0.97549668       0.22745235       0.50545037 </v>
    <v>       0.99396647       0.35798833       0.51138875 </v>
    <v>       0.05124561       0.21436263       0.50645078 </v>
    <v>       0.07047205       0.34556371       0.51214357 </v>
    <v>       0.09969798       0.27348180       0.50975732 </v>
    <v>       0.81218142       0.48991289       0.53422807 </v>
    <v>       0.79259744       0.60765890       0.55312070 </v>
    <v>       0.69371811       0.51402798       0.55392647 </v>
    <v>       0.81313142       0.48995445       0.57392180 </v>
    <v>       0.81400088       0.40484550       0.53319240 </v>
    <v>       0.82549334       0.38228654       0.51012471 </v>
    <v>       0.87094088       0.63412934       0.54985247 </v>
    <v>       0.65430631       0.52734266       0.53295999 </v>
    <v>       0.77649736       0.51724489       0.59401340 </v>
    <v>       0.86020496       0.30448667       0.50708641 </v>
    <v>       0.05791075       0.21498637       0.57045840 </v>
    <v>       0.04640249       0.70885198       0.56816619 </v>
    <v>       0.54868763       0.20384218       0.56873808 </v>
    <v>       0.55731058       0.73206771       0.56741183 </v>
    <v>       0.44611523       0.28127182       0.56869199 </v>
    <v>       0.43851969       0.78087401       0.56613576 </v>
    <v>       0.93997246       0.26702676       0.56821100 </v>
    <v>       0.97469153       0.81687782       0.56693737 </v>
    <v>       0.23166902       0.44696286       0.56883845 </v>
    <v>       0.19439930       0.97899435       0.56599632 </v>
    <v>       0.70757360       0.95388716       0.56771414 </v>
    <v>       0.31552668       0.02601904       0.56715238 </v>
    <v>       0.27961755       0.56485232       0.56163016 </v>
    <v>       0.79976886       0.04521387       0.56855225 </v>
    <v>       0.05432450       0.19779758       0.65709999 </v>
    <v>       0.04941233       0.71237934       0.66166811 </v>
    <v>       0.54073007       0.20186345       0.65797267 </v>
    <v>       0.52889413       0.70955677       0.66402582 </v>
    <v>       0.21126340       0.44871331       0.65970409 </v>
    <v>       0.20266159       0.95534001       0.65809281 </v>
    <v>       0.70321227       0.45559544       0.66296164 </v>
    <v>       0.70071570       0.96208479       0.65972979 </v>
    <v>       0.45024710       0.29502213       0.65921474 </v>
    <v>       0.44768362       0.80678792       0.65615187 </v>
    <v>       0.96013579       0.28496636       0.66425121 </v>
    <v>       0.95822977       0.80398520       0.66094592 </v>
    <v>       0.29964457       0.04388990       0.65998070 </v>
    <v>       0.29335869       0.55019831       0.66009315 </v>
    <v>       0.80156019       0.04530537       0.65930045 </v>
    <v>       0.79071164       0.54978390       0.65969628 </v>
    <v>       0.04586250       0.20411950       0.75272599 </v>
    <v>       0.04586250       0.70411946       0.75272599 </v>
    <v>       0.54586251       0.20411950       0.75272599 </v>
    <v>       0.54586250       0.70411946       0.75272599 </v>
    <v>       0.20411900       0.45410100       0.75270499 </v>
    <v>       0.20411899       0.95410095       0.75270499 </v>
    <v>       0.70411898       0.45410100       0.75270499 </v>
    <v>       0.70411896       0.95410095       0.75270499 </v>
    <v>       0.45414002       0.29588849       0.75272697 </v>
    <v>       0.45414001       0.79588852       0.75272697 </v>
    <v>       0.95414002       0.29588849       0.75272697 </v>
    <v>       0.95414006       0.79588852       0.75272697 </v>
    <v>       0.29588249       0.04590050       0.75270499 </v>
    <v>       0.29588248       0.54590053       0.75270499 </v>
    <v>       0.79588244       0.04590050       0.75270499 </v>
    <v>       0.79588248       0.54590053       0.75270499 </v>
    <v>       0.77854571       0.52342555       0.55403073 </v>
    <v>       0.50034353       0.99976221       0.55227446 </v>
    <v>       0.46268551       0.47846065       0.55552792 </v>
    <v>       0.98899682       0.00972711       0.55120308 </v>
    <v>       0.03099796       0.49160564       0.55875159 </v>
    <v>       0.25125209       0.24629331       0.55462912 </v>
    <v>       0.24455458       0.76284486       0.55175232 </v>
    <v>       0.73958552       0.22740124       0.55515071 </v>
    <v>       0.71789308       0.78364425       0.54523991 </v>
    <v>       0.00469036       0.99777455       0.65391772 </v>
    <v>       0.99927665       0.50558172       0.65687729 </v>
    <v>       0.49788347       0.99959478       0.65494173 </v>
    <v>       0.49591534       0.49696661       0.65488916 </v>
    <v>       0.25247242       0.24477554       0.65552601 </v>
    <v>       0.25395065       0.74954486       0.65423126 </v>
    <v>       0.74394186       0.24580704       0.65492555 </v>
    <v>       0.75504582       0.75886011       0.65351938 </v>
    <v>       0.14946826       0.10259794       0.60836790 </v>
    <v>       0.15156536       0.60702353       0.60831222 </v>
    <v>       0.64222313       0.10665008       0.60918959 </v>
    <v>       0.61232123       0.63869476       0.61512407 </v>
    <v>       0.36151356       0.38862773       0.61222389 </v>
    <v>       0.36175219       0.89308782       0.60819092 </v>
    <v>       0.88722594       0.36512082       0.61553974 </v>
    <v>       0.85908956       0.89457819       0.60695990 </v>
    <v>       0.11480967       0.35639223       0.61016586 </v>
    <v>       0.11014107       0.86574046       0.60711002 </v>
    <v>       0.61684687       0.36709020       0.60732667 </v>
    <v>       0.61343945       0.86594468       0.61030994 </v>
    <v>       0.39682616       0.14275254       0.60968823 </v>
    <v>       0.38637805       0.64392480       0.60651425 </v>
    <v>       0.88728327       0.13548878       0.61197915 </v>
    <v>       0.91401757       0.66470866       0.61438863 </v>
    <v>       0.00000000       0.00000000       0.75492797 </v>
    <v>       0.00000000       0.50000000       0.75492797 </v>
    <v>       0.50000000       0.00000000       0.75492797 </v>
    <v>       0.49999999       0.50000000       0.75492797 </v>
    <v>       0.25000050       0.25000000       0.75493902 </v>
    <v>       0.25000051       0.74999997       0.75493902 </v>
    <v>       0.75000047       0.25000000       0.75493902 </v>
    <v>       0.75000046       0.74999997       0.75493902 </v>
    <v>       0.13579050       0.11421000       0.70478299 </v>
    <v>       0.13579050       0.61420998       0.70478299 </v>
    <v>       0.63579045       0.11421000       0.70478299 </v>
    <v>       0.63579049       0.61420998       0.70478299 </v>
    <v>       0.36420952       0.38578999       0.70478299 </v>
    <v>       0.36420950       0.88578996       0.70478299 </v>
    <v>       0.86420954       0.38578999       0.70478299 </v>
    <v>       0.86420953       0.88578996       0.70478299 </v>
    <v>       0.11421799       0.36421899       0.70478098 </v>
    <v>       0.11421799       0.86421899       0.70478098 </v>
    <v>       0.61421800       0.36421899       0.70478098 </v>
    <v>       0.61421799       0.86421899       0.70478098 </v>
    <v>       0.38578201       0.13578149       0.70478202 </v>
    <v>       0.38578200       0.63578149       0.70478202 </v>
    <v>       0.88578199       0.13578149       0.70478202 </v>
    <v>       0.88578203       0.63578149       0.70478202 </v>
    <v>       0.13466700       0.11533200       0.80125603 </v>
    <v>       0.13466699       0.61533199       0.80125603 </v>
    <v>       0.63466699       0.11533200       0.80125603 </v>
    <v>       0.63466698       0.61533199       0.80125603 </v>
    <v>       0.36533300       0.38466799       0.80125603 </v>
    <v>       0.36533299       0.88466796       0.80125603 </v>
    <v>       0.86533295       0.38466799       0.80125603 </v>
    <v>       0.86533294       0.88466796       0.80125603 </v>
    <v>       0.11532850       0.36533700       0.80126500 </v>
    <v>       0.11532850       0.86533698       0.80126500 </v>
    <v>       0.61532850       0.36533700       0.80126500 </v>
    <v>       0.61532849       0.86533698       0.80126500 </v>
    <v>       0.38467151       0.13466300       0.80126500 </v>
    <v>       0.38467150       0.63466297       0.80126500 </v>
    <v>       0.88467149       0.13466300       0.80126500 </v>
    <v>       0.88467153       0.63466297       0.80126500 </v>
    <v>       0.99820325       0.00394914       0.60266143 </v>
    <v>       0.00936926       0.50541979       0.60762898 </v>
    <v>       0.50112701       0.99738858       0.60256998 </v>
    <v>       0.49646080       0.49872034       0.60389752 </v>
    <v>       0.25323019       0.24859637       0.60448852 </v>
    <v>       0.24712256       0.75522885       0.60270349 </v>
    <v>       0.75028149       0.24960692       0.60504790 </v>
    <v>       0.74993393       0.75525498       0.60454554 </v>
    <v>       0.00000050       0.00000050       0.70482896 </v>
    <v>       0.00000050       0.50000048       0.70482896 </v>
    <v>       0.50000048       0.00000050       0.70482896 </v>
    <v>       0.50000046       0.50000048       0.70482896 </v>
    <v>       0.24999999       0.24999947       0.70482499 </v>
    <v>       0.25000001       0.74999950       0.70482499 </v>
    <v>       0.74999999       0.24999947       0.70482499 </v>
    <v>       0.74999998       0.74999950       0.70482499 </v>
    <v>       0.00000000       0.00000000       0.80731797 </v>
    <v>       0.00000000       0.50000000       0.80731797 </v>
    <v>       0.50000000       0.00000000       0.80731797 </v>
    <v>       0.49999999       0.50000000       0.80731797 </v>
    <v>       0.24999999       0.25000000       0.80731797 </v>
    <v>       0.25000001       0.74999997       0.80731797 </v>
    <v>       0.74999999       0.25000000       0.80731797 </v>
    <v>       0.74999998       0.74999997       0.80731797 </v>
   </varray>
  </structure>
  <varray name="primitive_index" >
   <v type="int" >        1 </v>
   <v type="int" >        2 </v>
   <v type="int" >        3 </v>
   <v type="int" >        4 </v>
   <v type="int" >        5 </v>
   <v type="int" >        6 </v>
   <v type="int" >        7 </v>
   <v type="int" >        8 </v>
   <v type="int" >        9 </v>
   <v type="int" >       10 </v>
   <v type="int" >       11 </v>
   <v type="int" >       12 </v>
   <v type="int" >       13 </v>
   <v type="int" >       14 </v>
   <v type="int" >       15 </v>
   <v type="int" >       16 </v>
   <v type="int" >       17 </v>
   <v type="int" >       18 </v>
   <v type="int" >       19 </v>
   <v type="int" >       20 </v>
   <v type="int" >       21 </v>
   <v type="int" >       22 </v>
   <v type="int" >       23 </v>
   <v type="int" >       24 </v>
   <v type="int" >       25 </v>
   <v type="int" >       26 </v>
   <v type="int" >       27 </v>
   <v type="int" >       28 </v>
   <v type="int" >       29 </v>
   <v type="int" >       30 </v>
   <v type="int" >       31 </v>
   <v type="int" >       32 </v>
   <v type="int" >       33 </v>
   <v type="int" >       34 </v>
   <v type="int" >       35 </v>
   <v type="int" >       36 </v>
   <v type="int" >       37 </v>
   <v type="int" >       38 </v>
   <v type="int" >       39 </v>
   <v type="int" >       40 </v>
   <v type="int" >       41 </v>
   <v type="int" >       42 </v>
   <v type="int" >       43 </v>
   <v type="int" >       44 </v>
   <v type="int" >       45 </v>
   <v type="int" >       46 </v>
   <v type="int" >       47 </v>
   <v type="int" >       48 </v>
   <v type="int" >       49 </v>
   <v type="int" >       50 </v>
   <v type="int" >       51 </v>
   <v type="int" >       52 </v>
   <v type="int" >       53 </v>
   <v type="int" >       54 </v>
   <v type="int" >       55 </v>
   <v type="int" >       56 </v>
   <v type="int" >       57 </v>
   <v type="int" >       58 </v>
   <v type="int" >       59 </v>
   <v type="int" >       60 </v>
   <v type="int" >       61 </v>
   <v type="int" >       62 </v>
   <v type="int" >       63 </v>
   <v type="int" >       64 </v>
   <v type="int" >       65 </v>
   <v type="int" >       66 </v>
   <v type="int" >       67 </v>
   <v type="int" >       68 </v>
   <v type="int" >       69 </v>
   <v type="int" >       70 </v>
   <v type="int" >       71 </v>
   <v type="int" >       72 </v>
   <v type="int" >       73 </v>
   <v type="int" >       74 </v>
   <v type="int" >       75 </v>
   <v type="int" >       76 </v>
   <v type="int" >       77 </v>
   <v type="int" >       78 </v>
   <v type="int" >       79 </v>
   <v type="int" >       80 </v>
   <v type="int" >       81 </v>
   <v type="int" >       82 </v>
   <v type="int" >       83 </v>
   <v type="int" >       84 </v>
   <v type="int" >       85 </v>
   <v type="int" >       86 </v>
   <v type="int" >       87 </v>
   <v type="int" >       88 </v>
   <v type="int" >       89 </v>
   <v type="int" >       90 </v>
   <v type="int" >       91 </v>
   <v type="int" >       92 </v>
   <v type="int" >       93 </v>
   <v type="int" >       94 </v>
   <v type="int" >       95 </v>
   <v type="int" >       96 </v>
   <v type="int" >       97 </v>
   <v type="int" >       98 </v>
   <v type="int" >       99 </v>
   <v type="int" >      100 </v>
   <v type="int" >      101 </v>
   <v type="int" >      102 </v>
   <v type="int" >      103 </v>
   <v type="int" >      104 </v>
   <v type="int" >      105 </v>
   <v type="int" >      106 </v>
   <v type="int" >      107 </v>
   <v type="int" >      108 </v>
   <v type="int" >      109 </v>
   <v type="int" >      110 </v>
   <v type="int" >      111 </v>
   <v type="int" >      112 </v>
   <v type="int" >      113 </v>
   <v type="int" >      114 </v>
   <v type="int" >      115 </v>
   <v type="int" >      116 </v>
   <v type="int" >      117 </v>
   <v type="int" >      118 </v>
   <v type="int" >      119 </v>
   <v type="int" >      120 </v>
   <v type="int" >      121 </v>
   <v type="int" >      122 </v>
   <v type="int" >      123 </v>
   <v type="int" >      124 </v>
   <v type="int" >      125 </v>
   <v type="int" >      126 </v>
   <v type="int" >      127 </v>
   <v type="int" >      128 </v>
   <v type="int" >      129 </v>
   <v type="int" >      130 </v>
   <v type="int" >      131 </v>
   <v type="int" >      132 </v>
   <v type="int" >      133 </v>
   <v type="int" >      134 </v>
   <v type="int" >      135 </v>
   <v type="int" >      136 </v>
   <v type="int" >      137 </v>
   <v type="int" >      138 </v>
   <v type="int" >      139 </v>
   <v type="int" >      140 </v>
   <v type="int" >      141 </v>
   <v type="int" >      142 </v>
   <v type="int" >      143 </v>
   <v type="int" >      144 </v>
   <v type="int" >      145 </v>
   <v type="int" >      146 </v>
   <v type="int" >      147 </v>
   <v type="int" >      148 </v>
   <v type="int" >      149 </v>
   <v type="int" >      150 </v>
   <v type="int" >      151 </v>
   <v type="int" >      152 </v>
   <v type="int" >      153 </v>
   <v type="int" >      154 </v>
   <v type="int" >      155 </v>
   <v type="int" >      156 </v>
   <v type="int" >      157 </v>
   <v type="int" >      158 </v>
   <v type="int" >      159 </v>
   <v type="int" >      160 </v>
   <v type="int" >      161 </v>
   <v type="int" >      162 </v>
   <v type="int" >      163 </v>
   <v type="int" >      164 </v>
   <v type="int" >      165 </v>
   <v type="int" >      166 </v>
   <v type="int" >      167 </v>
   <v type="int" >      168 </v>
   <v type="int" >      169 </v>
   <v type="int" >      170 </v>
   <v type="int" >      171 </v>
   <v type="int" >      172 </v>
   <v type="int" >      173 </v>
   <v type="int" >      174 </v>
   <v type="int" >      175 </v>
   <v type="int" >      176 </v>
   <v type="int" >      177 </v>
   <v type="int" >      178 </v>
   <v type="int" >      179 </v>
   <v type="int" >      180 </v>
   <v type="int" >      181 </v>
   <v type="int" >      182 </v>
   <v type="int" >      183 </v>
   <v type="int" >      184 </v>
   <v type="int" >      185 </v>
   <v type="int" >      186 </v>
   <v type="int" >      187 </v>
   <v type="int" >      188 </v>
   <v type="int" >      189 </v>
   <v type="int" >      190 </v>
   <v type="int" >      191 </v>
   <v type="int" >      192 </v>
   <v type="int" >      193 </v>
   <v type="int" >      194 </v>
   <v type="int" >      195 </v>
   <v type="int" >      196 </v>
   <v type="int" >      197 </v>
   <v type="int" >      198 </v>
   <v type="int" >      199 </v>
   <v type="int" >      200 </v>
   <v type="int" >      201 </v>
   <v type="int" >      202 </v>
   <v type="int" >      203 </v>
   <v type="int" >      204 </v>
   <v type="int" >      205 </v>
   <v type="int" >      206 </v>
   <v type="int" >      207 </v>
   <v type="int" >      208 </v>
   <v type="int" >      209 </v>
   <v type="int" >      210 </v>
   <v type="int" >      211 </v>
   <v type="int" >      212 </v>
   <v type="int" >      213 </v>
   <v type="int" >      214 </v>
   <v type="int" >      215 </v>
   <v type="int" >      216 </v>
   <v type="int" >      217 </v>
   <v type="int" >      218 </v>
   <v type="int" >      219 </v>
   <v type="int" >      220 </v>
   <v type="int" >      221 </v>
   <v type="int" >      222 </v>
   <v type="int" >      223 </v>
   <v type="int" >      224 </v>
   <v type="int" >      225 </v>
   <v type="int" >      226 </v>
   <v type="int" >      227 </v>
   <v type="int" >      228 </v>
   <v type="int" >      229 </v>
   <v type="int" >      230 </v>
   <v type="int" >      231 </v>
   <v type="int" >      232 </v>
   <v type="int" >      233 </v>
   <v type="int" >      234 </v>
   <v type="int" >      235 </v>
   <v type="int" >      236 </v>
   <v type="int" >      237 </v>
   <v type="int" >      238 </v>
   <v type="int" >      239 </v>
   <v type="int" >      240 </v>
   <v type="int" >      241 </v>
   <v type="int" >      242 </v>
   <v type="int" >      243 </v>
   <v type="int" >      244 </v>
   <v type="int" >      245 </v>
   <v type="int" >      246 </v>
   <v type="int" >      247 </v>
   <v type="int" >      248 </v>
   <v type="int" >      249 </v>
   <v type="int" >      250 </v>
   <v type="int" >      251 </v>
   <v type="int" >      252 </v>
   <v type="int" >      253 </v>
   <v type="int" >      254 </v>
   <v type="int" >      255 </v>
   <v type="int" >      256 </v>
   <v type="int" >      257 </v>
   <v type="int" >      258 </v>
   <v type="int" >      259 </v>
   <v type="int" >      260 </v>
   <v type="int" >      261 </v>
   <v type="int" >      262 </v>
   <v type="int" >      263 </v>
   <v type="int" >      264 </v>
   <v type="int" >      265 </v>
   <v type="int" >      266 </v>
   <v type="int" >      267 </v>
   <v type="int" >      268 </v>
   <v type="int" >      269 </v>
   <v type="int" >      270 </v>
   <v type="int" >      271 </v>
   <v type="int" >      272 </v>
   <v type="int" >      273 </v>
   <v type="int" >      274 </v>
   <v type="int" >      275 </v>
   <v type="int" >      276 </v>
   <v type="int" >      277 </v>
   <v type="int" >      278 </v>
   <v type="int" >      279 </v>
   <v type="int" >      280 </v>
   <v type="int" >      281 </v>
   <v type="int" >      282 </v>
   <v type="int" >      283 </v>
   <v type="int" >      284 </v>
   <v type="int" >      285 </v>
   <v type="int" >      286 </v>
   <v type="int" >      287 </v>
   <v type="int" >      288 </v>
   <v type="int" >      289 </v>
   <v type="int" >      290 </v>
   <v type="int" >      291 </v>
   <v type="int" >      292 </v>
   <v type="int" >      293 </v>
   <v type="int" >      294 </v>
   <v type="int" >      295 </v>
   <v type="int" >      296 </v>
   <v type="int" >      297 </v>
   <v type="int" >      298 </v>
   <v type="int" >      299 </v>
   <v type="int" >      300 </v>
   <v type="int" >      301 </v>
   <v type="int" >      302 </v>
   <v type="int" >      303 </v>
   <v type="int" >      304 </v>
   <v type="int" >      305 </v>
   <v type="int" >      306 </v>
   <v type="int" >      307 </v>
   <v type="int" >      308 </v>
   <v type="int" >      309 </v>
   <v type="int" >      310 </v>
   <v type="int" >      311 </v>
   <v type="int" >      312 </v>
   <v type="int" >      313 </v>
   <v type="int" >      314 </v>
   <v type="int" >      315 </v>
   <v type="int" >      316 </v>
   <v type="int" >      317 </v>
   <v type="int" >      318 </v>
   <v type="int" >      319 </v>
   <v type="int" >      320 </v>
   <v type="int" >      321 </v>
   <v type="int" >      322 </v>
   <v type="int" >      323 </v>
   <v type="int" >      324 </v>
   <v type="int" >      325 </v>
  </varray>
 </primitive_cell>
 <kpoints>
  <generation param="Gamma">
   <v type="int" name="divisions">       3        3        1 </v>
   <v name="usershift">      0.00000000       0.00000000       0.00000000 </v>
   <v name="genvec1">      0.33333333       0.00000000       0.00000000 </v>
   <v name="genvec2">      0.00000000       0.33333333       0.00000000 </v>
   <v name="genvec3">      0.00000000       0.00000000       1.00000000 </v>
   <v name="shift">      0.00000000       0.00000000       0.00000000 </v>
  </generation>
  <varray name="kpointlist" >
   <v>       0.00000000       0.00000000       0.00000000 </v>
   <v>       0.33333333       0.00000000       0.00000000 </v>
   <v>       0.00000000       0.33333333       0.00000000 </v>
   <v>       0.33333333       0.33333333       0.00000000 </v>
   <v>      -0.33333333       0.33333333       0.00000000 </v>
  </varray>
  <varray name="weights" >
   <v>       0.11111111 </v>
   <v>       0.22222222 </v>
   <v>       0.22222222 </v>
   <v>       0.22222222 </v>
   <v>       0.22222222 </v>
  </varray>
 </kpoints>
 <parameters>
  <separator name="general" >
   <i type="string" name="SYSTEM">PSC</i>
   <i type="logical" name="LCOMPAT"> F  </i>
  </separator>
  <separator name="electronic" >
   <i type="string" name="PREC">normal</i>
   <i name="ENMAX">    500.00000000</i>
   <i name="ENAUG">    644.87300000</i>
   <i name="EDIFF">      0.00010000</i>
   <i type="int" name="IALGO">    38</i>
   <i type="int" name="IWAVPR">    10</i>
   <i type="int" name="NBANDS">   732</i>
   <i type="int" name="NBANDSLOW">    -1</i>
   <i type="int" name="NBANDSHIGH">    -1</i>
   <i name="NELECT">   1134.00000000</i>
   <i type="int" name="TURBO">     0</i>
   <i type="int" name="IRESTART">     0</i>
   <i type="int" name="NREBOOT">     0</i>
   <i type="int" name="NMIN">     0</i>
   <i name="EREF">      0.00000000</i>
   <separator name="electronic smearing" >
    <i type="int" name="ISMEAR">     0</i>
    <i name="SIGMA">      0.05000000</i>
    <i name="KSPACING">      0.50000000</i>
    <i type="logical" name="KGAMMA"> T  </i>
    <i type="logical" name="KBLOWUP"> T  </i>
   </separator>
   <separator name="electronic projectors" >
    <i type="logical" name="LREAL"> T  </i>
    <v name="ROPT">     -0.00050000     -0.00050000     -0.00050000     -0.00050000     -0.00050000</v>
    <i type="int" name="LMAXPAW">  -100</i>
    <i type="int" name="LMAXMIX">     2</i>
    <i type="logical" name="NLSPLINE"> F  </i>
   </separator>
   <separator name="electronic startup" >
    <i type="int" name="ISTART">     0</i>
    <i type="int" name="ICHARG">     1</i>
    <i type="int" name="INIWAV">     1</i>
   </separator>
   <separator name="electronic spin" >
    <i type="int" name="ISPIN">     1</i>
    <i type="logical" name="LNONCOLLINEAR"> F  </i>
    <v name="MAGMOM">      1.00000000      1.00000000      1.00000000      1.00000000      1.00000000      1.00000000      1.00000000      1.00000000      1.00000000      1.00000000      1.00000000      1.00000000      1.00000000      1.00000000      1.00000000      1.00000000      1.00000000      1.00000000      1.00000000      1.00000000
      1.00000000      1.00000000      1.00000000      1.00000000      1.00000000      1.00000000      1.00000000      1.00000000      1.00000000      1.00000000      1.00000000      1.00000000      1.00000000      1.00000000      1.00000000      1.00000000      1.00000000      1.00000000      1.00000000      1.00000000
      1.00000000      1.00000000      1.00000000      1.00000000      1.00000000      1.00000000      1.00000000      1.00000000      1.00000000      1.00000000      1.00000000      1.00000000      1.00000000      1.00000000      1.00000000      1.00000000      1.00000000      1.00000000      1.00000000      1.00000000
      1.00000000      1.00000000      1.00000000      1.00000000      1.00000000      1.00000000      1.00000000      1.00000000      1.00000000      1.00000000      1.00000000      1.00000000      1.00000000      1.00000000      1.00000000      1.00000000      1.00000000      1.00000000      1.00000000      1.00000000
      1.00000000      1.00000000      1.00000000      1.00000000      1.00000000      1.00000000      1.00000000      1.00000000      1.00000000      1.00000000      1.00000000      1.00000000      1.00000000      1.00000000      1.00000000      1.00000000      1.00000000      1.00000000      1.00000000      1.00000000
      1.00000000      1.00000000      1.00000000      1.00000000      1.00000000      1.00000000      1.00000000      1.00000000      1.00000000      1.00000000      1.00000000      1.00000000      1.00000000      1.00000000      1.00000000      1.00000000      1.00000000      1.00000000      1.00000000      1.00000000
      1.00000000      1.00000000      1.00000000      1.00000000      1.00000000      1.00000000      1.00000000      1.00000000      1.00000000      1.00000000      1.00000000      1.00000000      1.00000000      1.00000000      1.00000000      1.00000000      1.00000000      1.00000000      1.00000000      1.00000000
      1.00000000      1.00000000      1.00000000      1.00000000      1.00000000      1.00000000      1.00000000      1.00000000      1.00000000      1.00000000      1.00000000      1.00000000      1.00000000      1.00000000      1.00000000      1.00000000      1.00000000      1.00000000      1.00000000      1.00000000
      1.00000000      1.00000000      1.00000000      1.00000000      1.00000000      1.00000000      1.00000000      1.00000000      1.00000000      1.00000000      1.00000000      1.00000000      1.00000000      1.00000000      1.00000000      1.00000000      1.00000000      1.00000000      1.00000000      1.00000000
      1.00000000      1.00000000      1.00000000      1.00000000      1.00000000      1.00000000      1.00000000      1.00000000      1.00000000      1.00000000      1.00000000      1.00000000      1.00000000      1.00000000      1.00000000      1.00000000      1.00000000      1.00000000      1.00000000      1.00000000
      1.00000000      1.00000000      1.00000000      1.00000000      1.00000000      1.00000000      1.00000000      1.00000000      1.00000000      1.00000000      1.00000000      1.00000000      1.00000000      1.00000000      1.00000000      1.00000000      1.00000000      1.00000000      1.00000000      1.00000000
      1.00000000      1.00000000      1.00000000      1.00000000      1.00000000      1.00000000      1.00000000      1.00000000      1.00000000      1.00000000      1.00000000      1.00000000      1.00000000      1.00000000      1.00000000      1.00000000      1.00000000      1.00000000      1.00000000      1.00000000
      1.00000000      1.00000000      1.00000000      1.00000000      1.00000000      1.00000000      1.00000000      1.00000000      1.00000000      1.00000000      1.00000000      1.00000000      1.00000000      1.00000000      1.00000000      1.00000000      1.00000000      1.00000000      1.00000000      1.00000000
      1.00000000      1.00000000      1.00000000      1.00000000      1.00000000      1.00000000      1.00000000      1.00000000      1.00000000      1.00000000      1.00000000      1.00000000      1.00000000      1.00000000      1.00000000      1.00000000      1.00000000      1.00000000      1.00000000      1.00000000
      1.00000000      1.00000000      1.00000000      1.00000000      1.00000000      1.00000000      1.00000000      1.00000000      1.00000000      1.00000000      1.00000000      1.00000000      1.00000000      1.00000000      1.00000000      1.00000000      1.00000000      1.00000000      1.00000000      1.00000000
      1.00000000      1.00000000      1.00000000      1.00000000      1.00000000      1.00000000      1.00000000      1.00000000      1.00000000      1.00000000      1.00000000      1.00000000      1.00000000      1.00000000      1.00000000      1.00000000      1.00000000      1.00000000      1.00000000      1.00000000
      1.00000000      1.00000000      1.00000000      1.00000000      1.00000000</v>
    <i name="NUPDOWN">     -1.00000000</i>
    <i type="logical" name="LSORBIT"> F  </i>
    <v name="SAXIS">      0.00000000      0.00000000      1.00000000</v>
    <i type="logical" name="LSPIRAL"> F  </i>
    <v name="QSPIRAL">      0.00000000      0.00000000      0.00000000</v>
    <i type="logical" name="LZEROZ"> F  </i>
   </separator>
   <separator name="electronic exchange-correlation" >
    <i type="logical" name="LASPH"> F  </i>
    <i type="logical" name="LMETAGGA"> F  </i>
   </separator>
   <separator name="electronic convergence" >
    <i type="int" name="NELM">   600</i>
    <i type="int" name="NELMDL">     0</i>
    <i type="int" name="NELMIN">     2</i>
    <i name="ENINI">    500.00000000</i>
    <separator name="electronic convergence detail" >
     <i type="logical" name="LDIAG"> T  </i>
     <i type="logical" name="LSUBROT"> F  </i>
     <i name="WEIMIN">      0.00000000</i>
     <i name="EBREAK">      0.00000003</i>
     <i name="DEPER">      0.30000000</i>
     <i type="int" name="NRMM">     4</i>
     <i name="TIME">      0.40000000</i>
    </separator>
   </separator>
   <separator name="electronic mixer" >
    <i name="AMIX">      0.40000000</i>
    <i name="BMIX">      0.01000000</i>
    <i name="AMIN">      0.01000000</i>
    <i name="AMIX_MAG">      1.60000000</i>
    <i name="BMIX_MAG">      0.01000000</i>
    <separator name="electronic mixer details" >
     <i type="int" name="IMIX">     4</i>
     <i type="logical" name="MIXFIRST"> F  </i>
     <i type="int" name="MAXMIX">   -45</i>
     <i name="WC">    100.00000000</i>
     <i type="int" name="INIMIX">     1</i>
     <i type="int" name="MIXPRE">     1</i>
     <i type="int" name="MREMOVE">     5</i>
    </separator>
   </separator>
   <separator name="electronic dipolcorrection" >
    <i type="logical" name="LDIPOL"> T  </i>
    <i type="logical" name="LMONO"> F  </i>
    <i type="int" name="IDIPOL">     3</i>
    <i name="EPSILON">      1.00000000</i>
    <v name="DIPOL">   -100.00000000   -100.00000000   -100.00000000</v>
    <i name="EFIELD">      0.00000000</i>
   </separator>
  </separator>
  <separator name="grids" >
   <i type="int" name="NGX">   100</i>
   <i type="int" name="NGY">   100</i>
   <i type="int" name="NGZ">   350</i>
   <i type="int" name="NGXF">   200</i>
   <i type="int" name="NGYF">   200</i>
   <i type="int" name="NGZF">   700</i>
   <i type="logical" name="ADDGRID"> F  </i>
  </separator>
  <separator name="ionic" >
   <i type="int" name="NSW">     0</i>
   <i type="int" name="IBRION">    -1</i>
   <i type="int" name="MDALGO">     0</i>
   <i type="int" name="ISIF">     2</i>
   <i name="PSTRESS">      0.00000000</i>
   <i name="EDIFFG">      0.00100000</i>
   <i type="int" name="NFREE">     0</i>
   <i name="POTIM">      0.50000000</i>
   <i name="SMASS">     -3.00000000</i>
   <i name="SCALEE">      1.00000000</i>
  </separator>
  <separator name="ionic md" >
   <i name="TEBEG">      0.00010000</i>
   <i name="TEEND">      0.00010000</i>
   <i type="int" name="NBLOCK">     1</i>
   <i type="int" name="KBLOCK">     1</i>
   <i type="int" name="NPACO">   256</i>
   <i name="APACO">     16.00000000</i>
  </separator>
  <separator name="symmetry" >
   <i type="int" name="ISYM">     0</i>
   <i name="SYMPREC">      0.00001000</i>
  </separator>
  <separator name="dos" >
   <i type="int" name="LORBIT">     0</i>
   <v name="RWIGS">     -1.00000000     -1.00000000     -1.00000000     -1.00000000     -1.00000000</v>
   <i type="int" name="NEDOS">   301</i>
   <i name="EMIN">     10.00000000</i>
   <i name="EMAX">    -10.00000000</i>
   <i name="EFERMI">      0.00000000</i>
  </separator>
  <separator name="writing" >
   <i type="int" name="NWRITE">     2</i>
   <i type="logical" name="LWAVE"> F  </i>
   <i type="logical" name="LDOWNSAMPLE"> F  </i>
   <i type="logical" name="LCHARG"> T  </i>
   <i type="logical" name="LPARD"> F  </i>
   <i type="logical" name="LVTOT"> T  </i>
   <i type="logical" name="LVHAR"> F  </i>
   <i type="logical" name="LELF"> F  </i>
   <i type="logical" name="LOPTICS"> F  </i>
   <v name="STM">      0.00000000      0.00000000      0.00000000      0.00000000      0.00000000      0.00000000      0.00000000</v>
  </separator>
  <separator name="performance" >
   <i type="int" name="NPAR">     4</i>
   <i type="int" name="NSIM">     4</i>
   <i type="int" name="NBLK">    -1</i>
   <i type="logical" name="LPLANE"> T  </i>
   <i type="logical" name="LSCALAPACK"> T  </i>
   <i type="logical" name="LSCAAWARE"> F  </i>
   <i type="logical" name="LSCALU"> F  </i>
   <i type="logical" name="LASYNC"> F  </i>
   <i type="logical" name="LORBITALREAL"> F  </i>
  </separator>
  <separator name="miscellaneous" >
   <i type="int" name="IDIOT">     3</i>
   <i type="int" name="PHON_NSTRUCT">    -1</i>
   <i type="logical" name="LMUSIC"> F  </i>
   <v name="POMASS">      1.00000000     12.01100000     14.00100000    126.90400000    207.20000000</v>
   <v name="DARWINR">      0.00000000      0.00000000      0.00000000      0.00000000      0.00000000</v>
   <v name="DARWINV">      1.00000000      1.00000000      1.00000000      1.00000000      1.00000000</v>
   <i type="logical" name="LCORR"> T  </i>
  </separator>
  <i type="logical" name="GGA_COMPAT"> F  </i>
  <i type="logical" name="LBERRY"> F  </i>
  <i type="int" name="ICORELEVEL">     0</i>
  <i type="logical" name="LDAU"> F  </i>
  <i type="int" name="I_CONSTRAINED_M">     0</i>
  <separator name="electronic exchange-correlation" >
   <i type="string" name="GGA">--</i>
   <i type="int" name="VOSKOWN">     0</i>
   <i type="logical" name="LHFCALC"> F  </i>
   <i type="string" name="PRECFOCK"></i>
   <i type="logical" name="LSYMGRAD"> F  </i>
   <i type="logical" name="LHFONE"> F  </i>
   <i type="logical" name="LRHFCALC"> F  </i>
   <i type="logical" name="LTHOMAS"> F  </i>
   <i type="logical" name="LMODELHF"> F  </i>
   <i type="logical" name="LFOCKACE"> F  </i>
   <i name="ENCUT4O">     -1.00000000</i>
   <i type="int" name="EXXOEP">     0</i>
   <i type="int" name="FOURORBIT">     0</i>
   <i name="AEXX">      0.00000000</i>
   <i name="HFALPHA">      0.00000000</i>
   <i name="MCALPHA">      0.00000000</i>
   <i name="ALDAX">      1.00000000</i>
   <i name="AGGAX">      1.00000000</i>
   <i name="ALDAC">      1.00000000</i>
   <i name="AGGAC">      1.00000000</i>
   <i type="int" name="NKREDX">     1</i>
   <i type="int" name="NKREDY">     1</i>
   <i type="int" name="NKREDZ">     1</i>
   <i type="logical" name="SHIFTRED"> F  </i>
   <i type="logical" name="ODDONLY"> F  </i>
   <i type="logical" name="EVENONLY"> F  </i>
   <i type="int" name="LMAXFOCK">     0</i>
   <i type="int" name="NMAXFOCKAE">     0</i>
   <i type="logical" name="LFOCKAEDFT"> F  </i>
   <i name="HFSCREEN">      0.00000000</i>
   <i name="HFSCREENC">      0.00000000</i>
   <i type="int" name="NBANDSGWLOW">     0</i>
  </separator>
  <separator name="vdW DFT" >
   <i type="logical" name="LUSE_VDW"> F  </i>
   <i name="Zab_VDW">     -0.84910000</i>
   <i name="PARAM1">      0.12340000</i>
   <i name="PARAM2">      1.00000000</i>
   <i name="PARAM3">      0.00000000</i>
  </separator>
  <separator name="model GW" >
   <i type="int" name="MODEL_GW">     0</i>
   <i name="MODEL_EPS0">     37.63423484</i>
   <i name="MODEL_ALPHA">      1.00000000</i>
  </separator>
  <separator name="linear response parameters" >
   <i type="logical" name="LEPSILON"> F  </i>
   <i type="logical" name="LRPA"> F  </i>
   <i type="logical" name="LNABLA"> F  </i>
   <i type="logical" name="LVEL"> F  </i>
   <i type="int" name="KINTER">     0</i>
   <i name="CSHIFT">      0.10000000</i>
   <i name="OMEGAMAX">     -1.00000000</i>
   <i name="DEG_THRESHOLD">      0.00200000</i>
   <i name="RTIME">     -0.10000000</i>
   <i name="WPLASMAI">      0.00000000</i>
   <v name="DFIELD">      0.00000000      0.00000000      0.00000000</v>
   <v name="WPLASMA">      0.00000000      0.00000000      0.00000000      0.00000000      0.00000000      0.00000000      0.00000000      0.00000000      0.00000000</v>
  </separator>
  <separator name="orbital magnetization" >
   <i type="logical" name="NUCIND"> F  </i>
   <v name="MAGPOS">      0.00000000      0.00000000      0.00000000</v>
   <i type="logical" name="LNICSALL"> T  </i>
   <i type="logical" name="ORBITALMAG"> F  </i>
   <i type="logical" name="LMAGBLOCH"> F  </i>
   <i type="logical" name="LCHIMAG"> F  </i>
   <i type="logical" name="LGAUGE"> T  </i>
   <i type="int" name="MAGATOM">     0</i>
   <v name="MAGDIPOL">      0.00000000      0.00000000      0.00000000</v>
   <v name="AVECCONST">      0.00000000      0.00000000      0.00000000</v>
  </separator>
  <separator name="response functions" >
   <i type="logical" name="LFINITE_TEMPERATURE"> F  </i>
   <i type="logical" name="LADDER"> F  </i>
   <i type="logical" name="LRPAFORCE"> F  </i>
   <i type="logical" name="LFXC"> F  </i>
   <i type="logical" name="LHARTREE"> T  </i>
   <i type="int" name="IBSE">     0</i>
   <v type="int" name="KPOINT">    -1     0     0     0</v>
   <i type="logical" name="LTCTC"> F  </i>
   <i type="logical" name="LTCTE"> F  </i>
   <i type="logical" name="LTETE"> F  </i>
   <i type="logical" name="LTRIPLET"> F  </i>
   <i type="logical" name="LFXCEPS"> F  </i>
   <i type="logical" name="LFXHEG"> F  </i>
   <i type="int" name="NATURALO">     2</i>
   <i type="logical" name="LHOLEGF"> F  </i>
   <i type="logical" name="L2ORDER"> F  </i>
   <i type="logical" name="LDMP1"> F  </i>
   <i type="logical" name="LMP2LT"> F  </i>
   <i type="logical" name="LSMP2LT"> F  </i>
   <i type="logical" name="LGWLF"> F  </i>
   <i name="ENCUTGW">     -2.00000000</i>
   <i name="ENCUTGWSOFT">     -2.00000000</i>
   <i name="ENCUTLF">     -1.00000000</i>
   <i type="logical" name="LESF_SPLINES"> F  </i>
   <i type="int" name="LMAXMP2">    -1</i>
   <i name="SCISSOR">      0.00000000</i>
   <i type="int" name="NOMEGA">     0</i>
   <i type="int" name="NOMEGAR">     0</i>
   <i type="int" name="NBANDSGW">    -1</i>
   <i type="int" name="NBANDSO">    -1</i>
   <i type="int" name="NBANDSV">    -1</i>
   <i type="int" name="NELM">   600</i>
   <i type="int" name="NELMHF">     1</i>
   <i type="int" name="DIM">     3</i>
   <i type="int" name="IESPILON">     4</i>
   <i type="int" name="ANTIRES">     0</i>
   <i name="OMEGAMAX">    -30.00000000</i>
   <i name="OMEGAMIN">    -30.00000000</i>
   <i name="OMEGATL">   -200.00000000</i>
   <i type="int" name="OMEGAGRID">     0</i>
   <i name="CSHIFT">     -0.10000000</i>
   <i type="logical" name="LSELFENERGY"> F  </i>
   <i type="logical" name="LSPECTRAL"> F  </i>
   <i type="logical" name="LSPECTRALGW"> F  </i>
   <i type="logical" name="LSINGLES"> F  </i>
   <i type="logical" name="LFERMIGW"> F  </i>
   <i type="logical" name="ODDONLYGW"> F  </i>
   <i type="logical" name="EVENONLYGW"> F  </i>
   <i type="int" name="NKREDLFX">     1</i>
   <i type="int" name="NKREDLFY">     1</i>
   <i type="int" name="NKREDLFZ">     1</i>
   <i type="int" name="MAXMEM">  2800</i>
   <i type="int" name="TELESCOPE">     0</i>
   <i type="int" name="NTAUPAR">    -1</i>
   <i type="int" name="NOMEGAPAR">    -1</i>
   <i name="DAMP_NEWTON">      0.80000001</i>
   <i name="LAMBDA">      1.00000000</i>
  </separator>
  <separator name="External order field" >
   <i name="OFIELD_KAPPA">      0.00000000</i>
   <v name="OFIELD_K">      0.00000000      0.00000000      0.00000000</v>
   <i name="OFIELD_Q6_NEAR">      0.00000000</i>
   <i name="OFIELD_Q6_FAR">      0.00000000</i>
   <i name="OFIELD_A">      0.00000000</i>
  </separator>
 </parameters>
 <atominfo>
  <atoms>     325 </atoms>
  <types>       5 </types>
  <array name="atoms" >
   <dimension dim="1">ion</dimension>
   <field type="string">element</field>
   <field type="int">atomtype</field>
   <set>
    <rc><c>H </c><c>   1</c></rc>
    <rc><c>H </c><c>   1</c></rc>
    <rc><c>H </c><c>   1</c></rc>
    <rc><c>H </c><c>   1</c></rc>
    <rc><c>H </c><c>   1</c></rc>
    <rc><c>H </c><c>   1</c></rc>
    <rc><c>H </c><c>   1</c></rc>
    <rc><c>H </c><c>   1</c></rc>
    <rc><c>H </c><c>   1</c></rc>
    <rc><c>H </c><c>   1</c></rc>
    <rc><c>H </c><c>   1</c></rc>
    <rc><c>H </c><c>   1</c></rc>
    <rc><c>H </c><c>   1</c></rc>
    <rc><c>H </c><c>   1</c></rc>
    <rc><c>H </c><c>   1</c></rc>
    <rc><c>H </c><c>   1</c></rc>
    <rc><c>H </c><c>   1</c></rc>
    <rc><c>H </c><c>   1</c></rc>
    <rc><c>H </c><c>   1</c></rc>
    <rc><c>H </c><c>   1</c></rc>
    <rc><c>H </c><c>   1</c></rc>
    <rc><c>H </c><c>   1</c></rc>
    <rc><c>H </c><c>   1</c></rc>
    <rc><c>H </c><c>   1</c></rc>
    <rc><c>H </c><c>   1</c></rc>
    <rc><c>H </c><c>   1</c></rc>
    <rc><c>H </c><c>   1</c></rc>
    <rc><c>H </c><c>   1</c></rc>
    <rc><c>H </c><c>   1</c></rc>
    <rc><c>H </c><c>   1</c></rc>
    <rc><c>H </c><c>   1</c></rc>
    <rc><c>H </c><c>   1</c></rc>
    <rc><c>H </c><c>   1</c></rc>
    <rc><c>H </c><c>   1</c></rc>
    <rc><c>H </c><c>   1</c></rc>
    <rc><c>H </c><c>   1</c></rc>
    <rc><c>H </c><c>   1</c></rc>
    <rc><c>H </c><c>   1</c></rc>
    <rc><c>H </c><c>   1</c></rc>
    <rc><c>H </c><c>   1</c></rc>
    <rc><c>H </c><c>   1</c></rc>
    <rc><c>H </c><c>   1</c></rc>
    <rc><c>H </c><c>   1</c></rc>
    <rc><c>H </c><c>   1</c></rc>
    <rc><c>H </c><c>   1</c></rc>
    <rc><c>H </c><c>   1</c></rc>
    <rc><c>H </c><c>   1</c></rc>
    <rc><c>H </c><c>   1</c></rc>
    <rc><c>H </c><c>   1</c></rc>
    <rc><c>H </c><c>   1</c></rc>
    <rc><c>H </c><c>   1</c></rc>
    <rc><c>H </c><c>   1</c></rc>
    <rc><c>H </c><c>   1</c></rc>
    <rc><c>H </c><c>   1</c></rc>
    <rc><c>H </c><c>   1</c></rc>
    <rc><c>H </c><c>   1</c></rc>
    <rc><c>H </c><c>   1</c></rc>
    <rc><c>H </c><c>   1</c></rc>
    <rc><c>H </c><c>   1</c></rc>
    <rc><c>H </c><c>   1</c></rc>
    <rc><c>H </c><c>   1</c></rc>
    <rc><c>H </c><c>   1</c></rc>
    <rc><c>H </c><c>   1</c></rc>
    <rc><c>H </c><c>   1</c></rc>
    <rc><c>H </c><c>   1</c></rc>
    <rc><c>H </c><c>   1</c></rc>
    <rc><c>H </c><c>   1</c></rc>
    <rc><c>H </c><c>   1</c></rc>
    <rc><c>H </c><c>   1</c></rc>
    <rc><c>H </c><c>   1</c></rc>
    <rc><c>H </c><c>   1</c></rc>
    <rc><c>H </c><c>   1</c></rc>
    <rc><c>H </c><c>   1</c></rc>
    <rc><c>H </c><c>   1</c></rc>
    <rc><c>H </c><c>   1</c></rc>
    <rc><c>H </c><c>   1</c></rc>
    <rc><c>H </c><c>   1</c></rc>
    <rc><c>H </c><c>   1</c></rc>
    <rc><c>H </c><c>   1</c></rc>
    <rc><c>H </c><c>   1</c></rc>
    <rc><c>H </c><c>   1</c></rc>
    <rc><c>H </c><c>   1</c></rc>
    <rc><c>H </c><c>   1</c></rc>
    <rc><c>H </c><c>   1</c></rc>
    <rc><c>H </c><c>   1</c></rc>
    <rc><c>H </c><c>   1</c></rc>
    <rc><c>H </c><c>   1</c></rc>
    <rc><c>H </c><c>   1</c></rc>
    <rc><c>H </c><c>   1</c></rc>
    <rc><c>H </c><c>   1</c></rc>
    <rc><c>H </c><c>   1</c></rc>
    <rc><c>H </c><c>   1</c></rc>
    <rc><c>H </c><c>   1</c></rc>
    <rc><c>H </c><c>   1</c></rc>
    <rc><c>H </c><c>   1</c></rc>
    <rc><c>H </c><c>   1</c></rc>
    <rc><c>H </c><c>   1</c></rc>
    <rc><c>H </c><c>   1</c></rc>
    <rc><c>H </c><c>   1</c></rc>
    <rc><c>H </c><c>   1</c></rc>
    <rc><c>H </c><c>   1</c></rc>
    <rc><c>H </c><c>   1</c></rc>
    <rc><c>H </c><c>   1</c></rc>
    <rc><c>H </c><c>   1</c></rc>
    <rc><c>H </c><c>   1</c></rc>
    <rc><c>H </c><c>   1</c></rc>
    <rc><c>H </c><c>   1</c></rc>
    <rc><c>H </c><c>   1</c></rc>
    <rc><c>H </c><c>   1</c></rc>
    <rc><c>H </c><c>   1</c></rc>
    <rc><c>H </c><c>   1</c></rc>
    <rc><c>H </c><c>   1</c></rc>
    <rc><c>H </c><c>   1</c></rc>
    <rc><c>H </c><c>   1</c></rc>
    <rc><c>H </c><c>   1</c></rc>
    <rc><c>H </c><c>   1</c></rc>
    <rc><c>H </c><c>   1</c></rc>
    <rc><c>H </c><c>   1</c></rc>
    <rc><c>H </c><c>   1</c></rc>
    <rc><c>H </c><c>   1</c></rc>
    <rc><c>H </c><c>   1</c></rc>
    <rc><c>H </c><c>   1</c></rc>
    <rc><c>H </c><c>   1</c></rc>
    <rc><c>H </c><c>   1</c></rc>
    <rc><c>H </c><c>   1</c></rc>
    <rc><c>H </c><c>   1</c></rc>
    <rc><c>H </c><c>   1</c></rc>
    <rc><c>H </c><c>   1</c></rc>
    <rc><c>H </c><c>   1</c></rc>
    <rc><c>H </c><c>   1</c></rc>
    <rc><c>H </c><c>   1</c></rc>
    <rc><c>H </c><c>   1</c></rc>
    <rc><c>H </c><c>   1</c></rc>
    <rc><c>H </c><c>   1</c></rc>
    <rc><c>H </c><c>   1</c></rc>
    <rc><c>H </c><c>   1</c></rc>
    <rc><c>H </c><c>   1</c></rc>
    <rc><c>H </c><c>   1</c></rc>
    <rc><c>H </c><c>   1</c></rc>
    <rc><c>H </c><c>   1</c></rc>
    <rc><c>H </c><c>   1</c></rc>
    <rc><c>H </c><c>   1</c></rc>
    <rc><c>H </c><c>   1</c></rc>
    <rc><c>C </c><c>   2</c></rc>
    <rc><c>C </c><c>   2</c></rc>
    <rc><c>C </c><c>   2</c></rc>
    <rc><c>C </c><c>   2</c></rc>
    <rc><c>C </c><c>   2</c></rc>
    <rc><c>C </c><c>   2</c></rc>
    <rc><c>C </c><c>   2</c></rc>
    <rc><c>C </c><c>   2</c></rc>
    <rc><c>C </c><c>   2</c></rc>
    <rc><c>C </c><c>   2</c></rc>
    <rc><c>C </c><c>   2</c></rc>
    <rc><c>C </c><c>   2</c></rc>
    <rc><c>C </c><c>   2</c></rc>
    <rc><c>C </c><c>   2</c></rc>
    <rc><c>C </c><c>   2</c></rc>
    <rc><c>C </c><c>   2</c></rc>
    <rc><c>C </c><c>   2</c></rc>
    <rc><c>C </c><c>   2</c></rc>
    <rc><c>C </c><c>   2</c></rc>
    <rc><c>C </c><c>   2</c></rc>
    <rc><c>C </c><c>   2</c></rc>
    <rc><c>C </c><c>   2</c></rc>
    <rc><c>C </c><c>   2</c></rc>
    <rc><c>C </c><c>   2</c></rc>
    <rc><c>C </c><c>   2</c></rc>
    <rc><c>C </c><c>   2</c></rc>
    <rc><c>C </c><c>   2</c></rc>
    <rc><c>C </c><c>   2</c></rc>
    <rc><c>C </c><c>   2</c></rc>
    <rc><c>C </c><c>   2</c></rc>
    <rc><c>C </c><c>   2</c></rc>
    <rc><c>C </c><c>   2</c></rc>
    <rc><c>C </c><c>   2</c></rc>
    <rc><c>C </c><c>   2</c></rc>
    <rc><c>C </c><c>   2</c></rc>
    <rc><c>C </c><c>   2</c></rc>
    <rc><c>C </c><c>   2</c></rc>
    <rc><c>C </c><c>   2</c></rc>
    <rc><c>C </c><c>   2</c></rc>
    <rc><c>N </c><c>   3</c></rc>
    <rc><c>N </c><c>   3</c></rc>
    <rc><c>N </c><c>   3</c></rc>
    <rc><c>N </c><c>   3</c></rc>
    <rc><c>N </c><c>   3</c></rc>
    <rc><c>N </c><c>   3</c></rc>
    <rc><c>N </c><c>   3</c></rc>
    <rc><c>N </c><c>   3</c></rc>
    <rc><c>N </c><c>   3</c></rc>
    <rc><c>N </c><c>   3</c></rc>
    <rc><c>N </c><c>   3</c></rc>
    <rc><c>N </c><c>   3</c></rc>
    <rc><c>N </c><c>   3</c></rc>
    <rc><c>N </c><c>   3</c></rc>
    <rc><c>N </c><c>   3</c></rc>
    <rc><c>N </c><c>   3</c></rc>
    <rc><c>N </c><c>   3</c></rc>
    <rc><c>N </c><c>   3</c></rc>
    <rc><c>N </c><c>   3</c></rc>
    <rc><c>N </c><c>   3</c></rc>
    <rc><c>N </c><c>   3</c></rc>
    <rc><c>N </c><c>   3</c></rc>
    <rc><c>N </c><c>   3</c></rc>
    <rc><c>N </c><c>   3</c></rc>
    <rc><c>N </c><c>   3</c></rc>
    <rc><c>N </c><c>   3</c></rc>
    <rc><c>N </c><c>   3</c></rc>
    <rc><c>N </c><c>   3</c></rc>
    <rc><c>N </c><c>   3</c></rc>
    <rc><c>N </c><c>   3</c></rc>
    <rc><c>N </c><c>   3</c></rc>
    <rc><c>N </c><c>   3</c></rc>
    <rc><c>N </c><c>   3</c></rc>
    <rc><c>N </c><c>   3</c></rc>
    <rc><c>N </c><c>   3</c></rc>
    <rc><c>N </c><c>   3</c></rc>
    <rc><c>N </c><c>   3</c></rc>
    <rc><c>N </c><c>   3</c></rc>
    <rc><c>N </c><c>   3</c></rc>
    <rc><c>N </c><c>   3</c></rc>
    <rc><c>N </c><c>   3</c></rc>
    <rc><c>N </c><c>   3</c></rc>
    <rc><c>N </c><c>   3</c></rc>
    <rc><c>N </c><c>   3</c></rc>
    <rc><c>N </c><c>   3</c></rc>
    <rc><c>N </c><c>   3</c></rc>
    <rc><c>N </c><c>   3</c></rc>
    <rc><c>I </c><c>   4</c></rc>
    <rc><c>I </c><c>   4</c></rc>
    <rc><c>I </c><c>   4</c></rc>
    <rc><c>I </c><c>   4</c></rc>
    <rc><c>I </c><c>   4</c></rc>
    <rc><c>I </c><c>   4</c></rc>
    <rc><c>I </c><c>   4</c></rc>
    <rc><c>I </c><c>   4</c></rc>
    <rc><c>I </c><c>   4</c></rc>
    <rc><c>I </c><c>   4</c></rc>
    <rc><c>I </c><c>   4</c></rc>
    <rc><c>I </c><c>   4</c></rc>
    <rc><c>I </c><c>   4</c></rc>
    <rc><c>I </c><c>   4</c></rc>
    <rc><c>I </c><c>   4</c></rc>
    <rc><c>I </c><c>   4</c></rc>
    <rc><c>I </c><c>   4</c></rc>
    <rc><c>I </c><c>   4</c></rc>
    <rc><c>I </c><c>   4</c></rc>
    <rc><c>I </c><c>   4</c></rc>
    <rc><c>I </c><c>   4</c></rc>
    <rc><c>I </c><c>   4</c></rc>
    <rc><c>I </c><c>   4</c></rc>
    <rc><c>I </c><c>   4</c></rc>
    <rc><c>I </c><c>   4</c></rc>
    <rc><c>I </c><c>   4</c></rc>
    <rc><c>I </c><c>   4</c></rc>
    <rc><c>I </c><c>   4</c></rc>
    <rc><c>I </c><c>   4</c></rc>
    <rc><c>I </c><c>   4</c></rc>
    <rc><c>I </c><c>   4</c></rc>
    <rc><c>I </c><c>   4</c></rc>
    <rc><c>I </c><c>   4</c></rc>
    <rc><c>I </c><c>   4</c></rc>
    <rc><c>I </c><c>   4</c></rc>
    <rc><c>I </c><c>   4</c></rc>
    <rc><c>I </c><c>   4</c></rc>
    <rc><c>I </c><c>   4</c></rc>
    <rc><c>I </c><c>   4</c></rc>
    <rc><c>I </c><c>   4</c></rc>
    <rc><c>I </c><c>   4</c></rc>
    <rc><c>I </c><c>   4</c></rc>
    <rc><c>I </c><c>   4</c></rc>
    <rc><c>I </c><c>   4</c></rc>
    <rc><c>I </c><c>   4</c></rc>
    <rc><c>I </c><c>   4</c></rc>
    <rc><c>I </c><c>   4</c></rc>
    <rc><c>I </c><c>   4</c></rc>
    <rc><c>I </c><c>   4</c></rc>
    <rc><c>I </c><c>   4</c></rc>
    <rc><c>I </c><c>   4</c></rc>
    <rc><c>I </c><c>   4</c></rc>
    <rc><c>I </c><c>   4</c></rc>
    <rc><c>I </c><c>   4</c></rc>
    <rc><c>I </c><c>   4</c></rc>
    <rc><c>I </c><c>   4</c></rc>
    <rc><c>I </c><c>   4</c></rc>
    <rc><c>I </c><c>   4</c></rc>
    <rc><c>I </c><c>   4</c></rc>
    <rc><c>I </c><c>   4</c></rc>
    <rc><c>I </c><c>   4</c></rc>
    <rc><c>I </c><c>   4</c></rc>
    <rc><c>I </c><c>   4</c></rc>
    <rc><c>I </c><c>   4</c></rc>
    <rc><c>I </c><c>   4</c></rc>
    <rc><c>I </c><c>   4</c></rc>
    <rc><c>I </c><c>   4</c></rc>
    <rc><c>I </c><c>   4</c></rc>
    <rc><c>I </c><c>   4</c></rc>
    <rc><c>I </c><c>   4</c></rc>
    <rc><c>I </c><c>   4</c></rc>
    <rc><c>I </c><c>   4</c></rc>
    <rc><c>Pb</c><c>   5</c></rc>
    <rc><c>Pb</c><c>   5</c></rc>
    <rc><c>Pb</c><c>   5</c></rc>
    <rc><c>Pb</c><c>   5</c></rc>
    <rc><c>Pb</c><c>   5</c></rc>
    <rc><c>Pb</c><c>   5</c></rc>
    <rc><c>Pb</c><c>   5</c></rc>
    <rc><c>Pb</c><c>   5</c></rc>
    <rc><c>Pb</c><c>   5</c></rc>
    <rc><c>Pb</c><c>   5</c></rc>
    <rc><c>Pb</c><c>   5</c></rc>
    <rc><c>Pb</c><c>   5</c></rc>
    <rc><c>Pb</c><c>   5</c></rc>
    <rc><c>Pb</c><c>   5</c></rc>
    <rc><c>Pb</c><c>   5</c></rc>
    <rc><c>Pb</c><c>   5</c></rc>
    <rc><c>Pb</c><c>   5</c></rc>
    <rc><c>Pb</c><c>   5</c></rc>
    <rc><c>Pb</c><c>   5</c></rc>
    <rc><c>Pb</c><c>   5</c></rc>
    <rc><c>Pb</c><c>   5</c></rc>
    <rc><c>Pb</c><c>   5</c></rc>
    <rc><c>Pb</c><c>   5</c></rc>
    <rc><c>Pb</c><c>   5</c></rc>
   </set>
  </array>
  <array name="atomtypes" >
   <dimension dim="1">type</dimension>
   <field type="int">atomspertype</field>
   <field type="string">element</field>
   <field>mass</field>
   <field>valence</field>
   <field type="string">pseudopotential</field>
   <set>
    <rc><c> 143</c><c>H </c><c>      1.00000000</c><c>      1.00000000</c><c>  PAW_PBE H 15Jun2001                   </c></rc>
    <rc><c>  39</c><c>C </c><c>     12.01100000</c><c>      4.00000000</c><c>  PAW_PBE C 08Apr2002                   </c></rc>
    <rc><c>  47</c><c>N </c><c>     14.00100000</c><c>      5.00000000</c><c>  PAW_PBE N 08Apr2002                   </c></rc>
    <rc><c>  72</c><c>I </c><c>    126.90400000</c><c>      7.00000000</c><c>  PAW_PBE I 08Apr2002                   </c></rc>
    <rc><c>  24</c><c>Pb</c><c>    207.20000000</c><c>      4.00000000</c><c>  PAW_PBE Pb 08Apr2002                  </c></rc>
   </set>
  </array>
 </atominfo>
 <structure name="initialpos" >
  <crystal>
   <varray name="basis" >
    <v>      18.06080055       0.00000000       0.00000000 </v>
    <v>      -0.00491865      18.06279945       0.00000000 </v>
    <v>       0.00000000       0.00000000      62.48749924 </v>
   </varray>
   <i name="volume">  20385.21054034 </i>
   <varray name="rec_basis" >
    <v>       0.05536853       0.00001508      -0.00000000 </v>
    <v>       0.00000000       0.05536240       0.00000000 </v>
    <v>       0.00000000      -0.00000000       0.01600320 </v>
   </varray>
  </crystal>
  <varray name="positions" >
   <v>       0.43013165       0.26499758       0.58309197 </v>
   <v>       0.42111161       0.75637223       0.57999284 </v>
   <v>       0.93746956       0.29295769       0.58281280 </v>
   <v>       0.94921700       0.80607219       0.58106220 </v>
   <v>       0.30790942       0.05343568       0.58151096 </v>
   <v>       0.30340727       0.57156929       0.57662656 </v>
   <v>       0.77968142       0.06959613       0.58234456 </v>
   <v>       0.09791274       0.18719497       0.56288993 </v>
   <v>       0.08629075       0.67837250       0.56140373 </v>
   <v>       0.59733995       0.18998024       0.56216383 </v>
   <v>       0.61126316       0.73526899       0.56200041 </v>
   <v>       0.36655566       0.02738722       0.56040408 </v>
   <v>       0.28630313       0.60535692       0.55120113 </v>
   <v>       0.84285006       0.06829893       0.56142894 </v>
   <v>       0.07086170       0.23335956       0.58536671 </v>
   <v>       0.02220944       0.69121818       0.58193286 </v>
   <v>       0.53887430       0.18345383       0.58368083 </v>
   <v>       0.55350657       0.70477151       0.58177939 </v>
   <v>       0.25224572       0.44406120       0.58432396 </v>
   <v>       0.17934530       0.00445432       0.58025986 </v>
   <v>       0.68359570       0.97126268       0.58186211 </v>
   <v>       0.41634569       0.31952021       0.56057929 </v>
   <v>       0.40058992       0.81245628       0.55844782 </v>
   <v>       0.89452780       0.27274200       0.55892612 </v>
   <v>       0.96427021       0.86532241       0.55936127 </v>
   <v>       0.20447198       0.40179770       0.56358507 </v>
   <v>       0.15680415       0.95010919       0.55811316 </v>
   <v>       0.68887170       0.90679238       0.56058881 </v>
   <v>       0.52185574       0.27526708       0.54452334 </v>
   <v>       0.51891488       0.80294678       0.54426694 </v>
   <v>       0.99045339       0.20691136       0.54438024 </v>
   <v>       0.05490226       0.78947602       0.54467095 </v>
   <v>       0.22198241       0.50032999       0.54026034 </v>
   <v>       0.27413386       0.95996976       0.54331265 </v>
   <v>       0.78970908       0.96487233       0.54544619 </v>
   <v>       0.43772573       0.28983494       0.67482272 </v>
   <v>       0.43453832       0.82057197       0.67154624 </v>
   <v>       0.96308564       0.28106577       0.68030404 </v>
   <v>       0.93835435       0.79838590       0.67622949 </v>
   <v>       0.30056352       0.04906076       0.67633254 </v>
   <v>       0.29852074       0.55397372       0.67627741 </v>
   <v>       0.80348990       0.05386732       0.67540273 </v>
   <v>       0.80867420       0.55408708       0.67514529 </v>
   <v>       0.08434435       0.17074726       0.64553256 </v>
   <v>       0.09046350       0.68605050       0.65341151 </v>
   <v>       0.57852805       0.17367609       0.64869096 </v>
   <v>       0.56215139       0.66921273       0.65836966 </v>
   <v>       0.18183920       0.41355625       0.65056707 </v>
   <v>       0.17157060       0.92403588       0.64837755 </v>
   <v>       0.66718678       0.42203065       0.65506858 </v>
   <v>       0.66627670       0.93065705       0.65086040 </v>
   <v>       0.06877310       0.18426480       0.67261463 </v>
   <v>       0.04207606       0.69391102       0.67698001 </v>
   <v>       0.53768725       0.18471295       0.67359072 </v>
   <v>       0.52622011       0.71400957       0.68062423 </v>
   <v>       0.20788318       0.44252685       0.67599934 </v>
   <v>       0.19361890       0.95153903       0.67422506 </v>
   <v>       0.70748222       0.44840318       0.67923742 </v>
   <v>       0.69307861       0.96225931       0.67600252 </v>
   <v>       0.42245163       0.33444694       0.65063667 </v>
   <v>       0.42297579       0.83744849       0.64438047 </v>
   <v>       0.92366164       0.31931174       0.65728240 </v>
   <v>       0.93272391       0.84435121       0.65238201 </v>
   <v>       0.33608849       0.07443534       0.65160653 </v>
   <v>       0.32247433       0.58751763       0.65121491 </v>
   <v>       0.83891207       0.07350666       0.65010104 </v>
   <v>       0.81706530       0.58620672       0.64958616 </v>
   <v>       0.99314528       0.25619193       0.63452877 </v>
   <v>       0.02803727       0.78192500       0.63631056 </v>
   <v>       0.51011684       0.26835169       0.63236720 </v>
   <v>       0.50253106       0.74443103       0.63396652 </v>
   <v>       0.25999550       0.99863963       0.63221861 </v>
   <v>       0.25131874       0.50411189       0.63297933 </v>
   <v>       0.75782749       0.99736145       0.63268221 </v>
   <v>       0.73151371       0.50641038       0.63510017 </v>
   <v>       0.44874502       0.30128397       0.76888902 </v>
   <v>       0.44874501       0.80128391       0.76888902 </v>
   <v>       0.94874497       0.30128397       0.76888902 </v>
   <v>       0.94874501       0.80128391       0.76888902 </v>
   <v>       0.30127600       0.05129450       0.76887296 </v>
   <v>       0.30127601       0.55129450       0.76887296 </v>
   <v>       0.80127594       0.05129450       0.76887296 </v>
   <v>       0.80127598       0.55129450       0.76887296 </v>
   <v>       0.07877100       0.17118050       0.74344197 </v>
   <v>       0.07877101       0.67118045       0.74344197 </v>
   <v>       0.57877100       0.17118050       0.74344197 </v>
   <v>       0.57877099       0.67118045       0.74344197 </v>
   <v>       0.17119950       0.42117448       0.74342103 </v>
   <v>       0.17119950       0.92117451       0.74342103 </v>
   <v>       0.67119951       0.42117448       0.74342103 </v>
   <v>       0.67119950       0.92117451       0.74342103 </v>
   <v>       0.05125600       0.19871499       0.76888902 </v>
   <v>       0.05125600       0.69871493       0.76888902 </v>
   <v>       0.55125603       0.19871499       0.76888902 </v>
   <v>       0.55125602       0.69871493       0.76888902 </v>
   <v>       0.19872349       0.44870397       0.76887205 </v>
   <v>       0.19872349       0.94870397       0.76887205 </v>
   <v>       0.69872352       0.44870397       0.76887205 </v>
   <v>       0.69872351       0.94870397       0.76887205 </v>
   <v>       0.42123152       0.32881747       0.74344197 </v>
   <v>       0.42123151       0.82881744       0.74344197 </v>
   <v>       0.92123147       0.32881747       0.74344197 </v>
   <v>       0.92123151       0.82881744       0.74344197 </v>
   <v>       0.32880050       0.07882500       0.74342103 </v>
   <v>       0.32880049       0.57882496       0.74342103 </v>
   <v>       0.82880048       0.07882500       0.74342103 </v>
   <v>       0.82880052       0.57882496       0.74342103 </v>
   <v>       0.00000350       0.25000148       0.72582199 </v>
   <v>       0.00000350       0.75000145       0.72582199 </v>
   <v>       0.50000351       0.25000148       0.72582199 </v>
   <v>       0.50000350       0.75000145       0.72582199 </v>
   <v>       0.25000050       0.00000000       0.72580398 </v>
   <v>       0.25000052       0.50000000       0.72580398 </v>
   <v>       0.75000050       0.00000000       0.72580398 </v>
   <v>       0.75000049       0.50000000       0.72580398 </v>
   <v>       0.78066276       0.50925037       0.52055999 </v>
   <v>       0.86834867       0.51015094       0.53361466 </v>
   <v>       0.75980005       0.62996529       0.54014130 </v>
   <v>       0.76760459       0.63041033       0.56782109 </v>
   <v>       0.67872006       0.45975690       0.55967762 </v>
   <v>       0.67505624       0.55323703       0.56608191 </v>
   <v>       0.80518266       0.43051622       0.57276788 </v>
   <v>       0.87292398       0.50059255       0.57320706 </v>
   <v>       0.85997718       0.38677905       0.54327059 </v>
   <v>       0.76266340       0.38050013       0.53973973 </v>
   <v>       0.77269447       0.38683707       0.50144844 </v>
   <v>       0.86216692       0.42275250       0.50270089 </v>
   <v>       0.89151382       0.62150541       0.53387125 </v>
   <v>       0.91125588       0.61171767       0.56105460 </v>
   <v>       0.87023331       0.69483530       0.55069804 </v>
   <v>       0.59385688       0.52698997       0.53613152 </v>
   <v>       0.66431407       0.48277443       0.52143571 </v>
   <v>       0.67011198       0.58058967       0.52620412 </v>
   <v>       0.73096426       0.47993429       0.59913949 </v>
   <v>       0.75179473       0.57126491       0.59298463 </v>
   <v>       0.81701653       0.51937602       0.60646517 </v>
   <v>       0.83530544       0.26898252       0.51899992 </v>
   <v>       0.84332034       0.28258244       0.49147764 </v>
   <v>       0.93776294       0.17974397       0.50342924 </v>
   <v>       0.97597565       0.41491843       0.51389868 </v>
   <v>       0.07201663       0.15855604       0.50405452 </v>
   <v>       0.10630158       0.39248165       0.51575239 </v>
   <v>       0.15976004       0.26508620       0.51121037 </v>
   <v>       0.99544338       0.22765329       0.56060004 </v>
   <v>       0.02686047       0.77260811       0.55949960 </v>
   <v>       0.50581420       0.25362810       0.56016984 </v>
   <v>       0.50616087       0.77233704       0.55889334 </v>
   <v>       0.24428814       0.50353755       0.55645212 </v>
   <v>       0.26167342       0.98773052       0.55844892 </v>
   <v>       0.76586094       0.98776812       0.56009817 </v>
   <v>       0.00429362       0.24518651       0.65140837 </v>
   <v>       0.01225333       0.76497879       0.65240844 </v>
   <v>       0.50033165       0.25416819       0.64935125 </v>
   <v>       0.49376075       0.75312143       0.65092347 </v>
   <v>       0.25189617       0.50011293       0.65043222 </v>
   <v>       0.25335001       0.99921305       0.64965643 </v>
   <v>       0.74245028       0.50448432       0.65227322 </v>
   <v>       0.75248204       0.00148861       0.65014078 </v>
   <v>       0.49998898       0.24999498       0.74327702 </v>
   <v>       0.49998903       0.74999496       0.74327702 </v>
   <v>       0.99998898       0.24999498       0.74327702 </v>
   <v>       0.99998903       0.74999496       0.74327702 </v>
   <v>       0.25000050       0.00000100       0.74325596 </v>
   <v>       0.25000052       0.50000100       0.74325596 </v>
   <v>       0.75000050       0.00000100       0.74325596 </v>
   <v>       0.75000049       0.50000100       0.74325596 </v>
   <v>       0.94544160       0.29904133       0.50816618 </v>
   <v>       0.97549668       0.22745235       0.50545037 </v>
   <v>       0.99396647       0.35798833       0.51138875 </v>
   <v>       0.05124561       0.21436263       0.50645078 </v>
   <v>       0.07047205       0.34556371       0.51214357 </v>
   <v>       0.09969798       0.27348180       0.50975732 </v>
   <v>       0.81218142       0.48991289       0.53422807 </v>
   <v>       0.79259744       0.60765890       0.55312070 </v>
   <v>       0.69371811       0.51402798       0.55392647 </v>
   <v>       0.81313142       0.48995445       0.57392180 </v>
   <v>       0.81400088       0.40484550       0.53319240 </v>
   <v>       0.82549334       0.38228654       0.51012471 </v>
   <v>       0.87094088       0.63412934       0.54985247 </v>
   <v>       0.65430631       0.52734266       0.53295999 </v>
   <v>       0.77649736       0.51724489       0.59401340 </v>
   <v>       0.86020496       0.30448667       0.50708641 </v>
   <v>       0.05791075       0.21498637       0.57045840 </v>
   <v>       0.04640249       0.70885198       0.56816619 </v>
   <v>       0.54868763       0.20384218       0.56873808 </v>
   <v>       0.55731058       0.73206771       0.56741183 </v>
   <v>       0.44611523       0.28127182       0.56869199 </v>
   <v>       0.43851969       0.78087401       0.56613576 </v>
   <v>       0.93997246       0.26702676       0.56821100 </v>
   <v>       0.97469153       0.81687782       0.56693737 </v>
   <v>       0.23166902       0.44696286       0.56883845 </v>
   <v>       0.19439930       0.97899435       0.56599632 </v>
   <v>       0.70757360       0.95388716       0.56771414 </v>
   <v>       0.31552668       0.02601904       0.56715238 </v>
   <v>       0.27961755       0.56485232       0.56163016 </v>
   <v>       0.79976886       0.04521387       0.56855225 </v>
   <v>       0.05432450       0.19779758       0.65709999 </v>
   <v>       0.04941233       0.71237934       0.66166811 </v>
   <v>       0.54073007       0.20186345       0.65797267 </v>
   <v>       0.52889413       0.70955677       0.66402582 </v>
   <v>       0.21126340       0.44871331       0.65970409 </v>
   <v>       0.20266159       0.95534001       0.65809281 </v>
   <v>       0.70321227       0.45559544       0.66296164 </v>
   <v>       0.70071570       0.96208479       0.65972979 </v>
   <v>       0.45024710       0.29502213       0.65921474 </v>
   <v>       0.44768362       0.80678792       0.65615187 </v>
   <v>       0.96013579       0.28496636       0.66425121 </v>
   <v>       0.95822977       0.80398520       0.66094592 </v>
   <v>       0.29964457       0.04388990       0.65998070 </v>
   <v>       0.29335869       0.55019831       0.66009315 </v>
   <v>       0.80156019       0.04530537       0.65930045 </v>
   <v>       0.79071164       0.54978390       0.65969628 </v>
   <v>       0.04586250       0.20411950       0.75272599 </v>
   <v>       0.04586250       0.70411946       0.75272599 </v>
   <v>       0.54586251       0.20411950       0.75272599 </v>
   <v>       0.54586250       0.70411946       0.75272599 </v>
   <v>       0.20411900       0.45410100       0.75270499 </v>
   <v>       0.20411899       0.95410095       0.75270499 </v>
   <v>       0.70411898       0.45410100       0.75270499 </v>
   <v>       0.70411896       0.95410095       0.75270499 </v>
   <v>       0.45414002       0.29588849       0.75272697 </v>
   <v>       0.45414001       0.79588852       0.75272697 </v>
   <v>       0.95414002       0.29588849       0.75272697 </v>
[...]
   <v>       0.59733995       0.18998024       0.56216383 </v>
   <v>       0.61126316       0.73526899       0.56200041 </v>
   <v>       0.36655566       0.02738722       0.56040408 </v>
   <v>       0.28630313       0.60535692       0.55120113 </v>
   <v>       0.84285006       0.06829893       0.56142894 </v>
   <v>       0.07086170       0.23335956       0.58536671 </v>
   <v>       0.02220944       0.69121818       0.58193286 </v>
   <v>       0.53887430       0.18345383       0.58368083 </v>
   <v>       0.55350657       0.70477151       0.58177939 </v>
   <v>       0.25224572       0.44406120       0.58432396 </v>
   <v>       0.17934530       0.00445432       0.58025986 </v>
   <v>       0.68359570       0.97126268       0.58186211 </v>
   <v>       0.41634569       0.31952021       0.56057929 </v>
   <v>       0.40058992       0.81245628       0.55844782 </v>
   <v>       0.89452780       0.27274200       0.55892612 </v>
   <v>       0.96427021       0.86532241       0.55936127 </v>
   <v>       0.20447198       0.40179770       0.56358507 </v>
   <v>       0.15680415       0.95010919       0.55811316 </v>
   <v>       0.68887170       0.90679238       0.56058881 </v>
   <v>       0.52185574       0.27526708       0.54452334 </v>
   <v>       0.51891488       0.80294678       0.54426694 </v>
   <v>       0.99045339       0.20691136       0.54438024 </v>
   <v>       0.05490226       0.78947602       0.54467095 </v>
   <v>       0.22198241       0.50032999       0.54026034 </v>
   <v>       0.27413386       0.95996976       0.54331265 </v>
   <v>       0.78970908       0.96487233       0.54544619 </v>
   <v>       0.43772573       0.28983494       0.67482272 </v>
   <v>       0.43453832       0.82057197       0.67154624 </v>
   <v>       0.96308564       0.28106577       0.68030404 </v>
   <v>       0.93835435       0.79838590       0.67622949 </v>
   <v>       0.30056352       0.04906076       0.67633254 </v>
   <v>       0.29852074       0.55397372       0.67627741 </v>
   <v>       0.80348990       0.05386732       0.67540273 </v>
   <v>       0.80867420       0.55408708       0.67514529 </v>
   <v>       0.08434435       0.17074726       0.64553256 </v>
   <v>       0.09046350       0.68605050       0.65341151 </v>
   <v>       0.57852805       0.17367609       0.64869096 </v>
   <v>       0.56215139       0.66921273       0.65836966 </v>
   <v>       0.18183920       0.41355625       0.65056707 </v>
   <v>       0.17157060       0.92403588       0.64837755 </v>
   <v>       0.66718678       0.42203065       0.65506858 </v>
   <v>       0.66627670       0.93065705       0.65086040 </v>
   <v>       0.06877310       0.18426480       0.67261463 </v>
   <v>       0.04207606       0.69391102       0.67698001 </v>
   <v>       0.53768725       0.18471295       0.67359072 </v>
   <v>       0.52622011       0.71400957       0.68062423 </v>
   <v>       0.20788318       0.44252685       0.67599934 </v>
   <v>       0.19361890       0.95153903       0.67422506 </v>
   <v>       0.70748222       0.44840318       0.67923742 </v>
   <v>       0.69307861       0.96225931       0.67600252 </v>
   <v>       0.42245163       0.33444694       0.65063667 </v>
   <v>       0.42297579       0.83744849       0.64438047 </v>
   <v>       0.92366164       0.31931174       0.65728240 </v>
   <v>       0.93272391       0.84435121       0.65238201 </v>
   <v>       0.33608849       0.07443534       0.65160653 </v>
   <v>       0.32247433       0.58751763       0.65121491 </v>
   <v>       0.83891207       0.07350666       0.65010104 </v>
   <v>       0.81706530       0.58620672       0.64958616 </v>
   <v>       0.99314528       0.25619193       0.63452877 </v>
   <v>       0.02803727       0.78192500       0.63631056 </v>
   <v>       0.51011684       0.26835169       0.63236720 </v>
   <v>       0.50253106       0.74443103       0.63396652 </v>
   <v>       0.25999550       0.99863963       0.63221861 </v>
   <v>       0.25131874       0.50411189       0.63297933 </v>
   <v>       0.75782749       0.99736145       0.63268221 </v>
   <v>       0.73151371       0.50641038       0.63510017 </v>
   <v>       0.44874502       0.30128397       0.76888902 </v>
   <v>       0.44874501       0.80128391       0.76888902 </v>
   <v>       0.94874497       0.30128397       0.76888902 </v>
   <v>       0.94874501       0.80128391       0.76888902 </v>
   <v>       0.30127600       0.05129450       0.76887296 </v>
   <v>       0.30127601       0.55129450       0.76887296 </v>
   <v>       0.80127594       0.05129450       0.76887296 </v>
   <v>       0.80127598       0.55129450       0.76887296 </v>
   <v>       0.07877100       0.17118050       0.74344197 </v>
   <v>       0.07877101       0.67118045       0.74344197 </v>
   <v>       0.57877100       0.17118050       0.74344197 </v>
   <v>       0.57877099       0.67118045       0.74344197 </v>
   <v>       0.17119950       0.42117448       0.74342103 </v>
   <v>       0.17119950       0.92117451       0.74342103 </v>
   <v>       0.67119951       0.42117448       0.74342103 </v>
   <v>       0.67119950       0.92117451       0.74342103 </v>
   <v>       0.05125600       0.19871499       0.76888902 </v>
   <v>       0.05125600       0.69871493       0.76888902 </v>
   <v>       0.55125603       0.19871499       0.76888902 </v>
   <v>       0.55125602       0.69871493       0.76888902 </v>
   <v>       0.19872349       0.44870397       0.76887205 </v>
   <v>       0.19872349       0.94870397       0.76887205 </v>
   <v>       0.69872352       0.44870397       0.76887205 </v>
   <v>       0.69872351       0.94870397       0.76887205 </v>
   <v>       0.42123152       0.32881747       0.74344197 </v>
   <v>       0.42123151       0.82881744       0.74344197 </v>
   <v>       0.92123147       0.32881747       0.74344197 </v>
   <v>       0.92123151       0.82881744       0.74344197 </v>
   <v>       0.32880050       0.07882500       0.74342103 </v>
   <v>       0.32880049       0.57882496       0.74342103 </v>
   <v>       0.82880048       0.07882500       0.74342103 </v>
   <v>       0.82880052       0.57882496       0.74342103 </v>
   <v>       0.00000350       0.25000148       0.72582199 </v>
   <v>       0.00000350       0.75000145       0.72582199 </v>
   <v>       0.50000351       0.25000148       0.72582199 </v>
   <v>       0.50000350       0.75000145       0.72582199 </v>
   <v>       0.25000050       0.00000000       0.72580398 </v>
   <v>       0.25000052       0.50000000       0.72580398 </v>
   <v>       0.75000050       0.00000000       0.72580398 </v>
   <v>       0.75000049       0.50000000       0.72580398 </v>
   <v>       0.78066276       0.50925037       0.52055999 </v>
   <v>       0.86834867       0.51015094       0.53361466 </v>
   <v>       0.75980005       0.62996529       0.54014130 </v>
   <v>       0.76760459       0.63041033       0.56782109 </v>
   <v>       0.67872006       0.45975690       0.55967762 </v>
   <v>       0.67505624       0.55323703       0.56608191 </v>
   <v>       0.80518266       0.43051622       0.57276788 </v>
   <v>       0.87292398       0.50059255       0.57320706 </v>
   <v>       0.85997718       0.38677905       0.54327059 </v>
   <v>       0.76266340       0.38050013       0.53973973 </v>
   <v>       0.77269447       0.38683707       0.50144844 </v>
   <v>       0.86216692       0.42275250       0.50270089 </v>
   <v>       0.89151382       0.62150541       0.53387125 </v>
   <v>       0.91125588       0.61171767       0.56105460 </v>
   <v>       0.87023331       0.69483530       0.55069804 </v>
   <v>       0.59385688       0.52698997       0.53613152 </v>
   <v>       0.66431407       0.48277443       0.52143571 </v>
   <v>       0.67011198       0.58058967       0.52620412 </v>
   <v>       0.73096426       0.47993429       0.59913949 </v>
   <v>       0.75179473       0.57126491       0.59298463 </v>
   <v>       0.81701653       0.51937602       0.60646517 </v>
   <v>       0.83530544       0.26898252       0.51899992 </v>
   <v>       0.84332034       0.28258244       0.49147764 </v>
   <v>       0.93776294       0.17974397       0.50342924 </v>
   <v>       0.97597565       0.41491843       0.51389868 </v>
   <v>       0.07201663       0.15855604       0.50405452 </v>
   <v>       0.10630158       0.39248165       0.51575239 </v>
   <v>       0.15976004       0.26508620       0.51121037 </v>
   <v>       0.99544338       0.22765329       0.56060004 </v>
   <v>       0.02686047       0.77260811       0.55949960 </v>
   <v>       0.50581420       0.25362810       0.56016984 </v>
   <v>       0.50616087       0.77233704       0.55889334 </v>
   <v>       0.24428814       0.50353755       0.55645212 </v>
   <v>       0.26167342       0.98773052       0.55844892 </v>
   <v>       0.76586094       0.98776812       0.56009817 </v>
   <v>       0.00429362       0.24518651       0.65140837 </v>
   <v>       0.01225333       0.76497879       0.65240844 </v>
   <v>       0.50033165       0.25416819       0.64935125 </v>
   <v>       0.49376075       0.75312143       0.65092347 </v>
   <v>       0.25189617       0.50011293       0.65043222 </v>
   <v>       0.25335001       0.99921305       0.64965643 </v>
   <v>       0.74245028       0.50448432       0.65227322 </v>
   <v>       0.75248204       0.00148861       0.65014078 </v>
   <v>       0.49998898       0.24999498       0.74327702 </v>
   <v>       0.49998903       0.74999496       0.74327702 </v>
   <v>       0.99998898       0.24999498       0.74327702 </v>
   <v>       0.99998903       0.74999496       0.74327702 </v>
   <v>       0.25000050       0.00000100       0.74325596 </v>
   <v>       0.25000052       0.50000100       0.74325596 </v>
   <v>       0.75000050       0.00000100       0.74325596 </v>
   <v>       0.75000049       0.50000100       0.74325596 </v>
   <v>       0.94544160       0.29904133       0.50816618 </v>
   <v>       0.97549668       0.22745235       0.50545037 </v>
   <v>       0.99396647       0.35798833       0.51138875 </v>
   <v>       0.05124561       0.21436263       0.50645078 </v>
   <v>       0.07047205       0.34556371       0.51214357 </v>
   <v>       0.09969798       0.27348180       0.50975732 </v>
   <v>       0.81218142       0.48991289       0.53422807 </v>
   <v>       0.79259744       0.60765890       0.55312070 </v>
   <v>       0.69371811       0.51402798       0.55392647 </v>
   <v>       0.81313142       0.48995445       0.57392180 </v>
   <v>       0.81400088       0.40484550       0.53319240 </v>
   <v>       0.82549334       0.38228654       0.51012471 </v>
   <v>       0.87094088       0.63412934       0.54985247 </v>
   <v>       0.65430631       0.52734266       0.53295999 </v>
   <v>       0.77649736       0.51724489       0.59401340 </v>
   <v>       0.86020496       0.30448667       0.50708641 </v>
   <v>       0.05791075       0.21498637       0.57045840 </v>
   <v>       0.04640249       0.70885198       0.56816619 </v>
   <v>       0.54868763       0.20384218       0.56873808 </v>
   <v>       0.55731058       0.73206771       0.56741183 </v>
   <v>       0.44611523       0.28127182       0.56869199 </v>
   <v>       0.43851969       0.78087401       0.56613576 </v>
   <v>       0.93997246       0.26702676       0.56821100 </v>
   <v>       0.97469153       0.81687782       0.56693737 </v>
   <v>       0.23166902       0.44696286       0.56883845 </v>
   <v>       0.19439930       0.97899435       0.56599632 </v>
   <v>       0.70757360       0.95388716       0.56771414 </v>
   <v>       0.31552668       0.02601904       0.56715238 </v>
   <v>       0.27961755       0.56485232       0.56163016 </v>
   <v>       0.79976886       0.04521387       0.56855225 </v>
   <v>       0.05432450       0.19779758       0.65709999 </v>
   <v>       0.04941233       0.71237934       0.66166811 </v>
   <v>       0.54073007       0.20186345       0.65797267 </v>
   <v>       0.52889413       0.70955677       0.66402582 </v>
   <v>       0.21126340       0.44871331       0.65970409 </v>
   <v>       0.20266159       0.95534001       0.65809281 </v>
   <v>       0.70321227       0.45559544       0.66296164 </v>
   <v>       0.70071570       0.96208479       0.65972979 </v>
   <v>       0.45024710       0.29502213       0.65921474 </v>
   <v>       0.44768362       0.80678792       0.65615187 </v>
   <v>       0.96013579       0.28496636       0.66425121 </v>
   <v>       0.95822977       0.80398520       0.66094592 </v>
   <v>       0.29964457       0.04388990       0.65998070 </v>
   <v>       0.29335869       0.55019831       0.66009315 </v>
   <v>       0.80156019       0.04530537       0.65930045 </v>
   <v>       0.79071164       0.54978390       0.65969628 </v>
   <v>       0.04586250       0.20411950       0.75272599 </v>
   <v>       0.04586250       0.70411946       0.75272599 </v>
   <v>       0.54586251       0.20411950       0.75272599 </v>
   <v>       0.54586250       0.70411946       0.75272599 </v>
   <v>       0.20411900       0.45410100       0.75270499 </v>
   <v>       0.20411899       0.95410095       0.75270499 </v>
   <v>       0.70411898       0.45410100       0.75270499 </v>
   <v>       0.70411896       0.95410095       0.75270499 </v>
   <v>       0.45414002       0.29588849       0.75272697 </v>
   <v>       0.45414001       0.79588852       0.75272697 </v>
   <v>       0.95414002       0.29588849       0.75272697 </v>
   <v>       0.95414006       0.79588852       0.75272697 </v>
   <v>       0.29588249       0.04590050       0.75270499 </v>
   <v>       0.29588248       0.54590053       0.75270499 </v>
   <v>       0.79588244       0.04590050       0.75270499 </v>
   <v>       0.79588248       0.54590053       0.75270499 </v>
   <v>       0.77854571       0.52342555       0.55403073 </v>
   <v>       0.50034353       0.99976221       0.55227446 </v>
   <v>       0.46268551       0.47846065       0.55552792 </v>
   <v>       0.98899682       0.00972711       0.55120308 </v>
   <v>       0.03099796       0.49160564       0.55875159 </v>
   <v>       0.25125209       0.24629331       0.55462912 </v>
   <v>       0.24455458       0.76284486       0.55175232 </v>
   <v>       0.73958552       0.22740124       0.55515071 </v>
   <v>       0.71789308       0.78364425       0.54523991 </v>
   <v>       0.00469036       0.99777455       0.65391772 </v>
   <v>       0.99927665       0.50558172       0.65687729 </v>
   <v>       0.49788347       0.99959478       0.65494173 </v>
   <v>       0.49591534       0.49696661       0.65488916 </v>
   <v>       0.25247242       0.24477554       0.65552601 </v>
   <v>       0.25395065       0.74954486       0.65423126 </v>
   <v>       0.74394186       0.24580704       0.65492555 </v>
   <v>       0.75504582       0.75886011       0.65351938 </v>
   <v>       0.14946826       0.10259794       0.60836790 </v>
   <v>       0.15156536       0.60702353       0.60831222 </v>
   <v>       0.64222313       0.10665008       0.60918959 </v>
   <v>       0.61232123       0.63869476       0.61512407 </v>
   <v>       0.36151356       0.38862773       0.61222389 </v>
   <v>       0.36175219       0.89308782       0.60819092 </v>
   <v>       0.88722594       0.36512082       0.61553974 </v>
   <v>       0.85908956       0.89457819       0.60695990 </v>
   <v>       0.11480967       0.35639223       0.61016586 </v>
   <v>       0.11014107       0.86574046       0.60711002 </v>
   <v>       0.61684687       0.36709020       0.60732667 </v>
   <v>       0.61343945       0.86594468       0.61030994 </v>
   <v>       0.39682616       0.14275254       0.60968823 </v>
   <v>       0.38637805       0.64392480       0.60651425 </v>
   <v>       0.88728327       0.13548878       0.61197915 </v>
   <v>       0.91401757       0.66470866       0.61438863 </v>
   <v>       0.00000000       0.00000000       0.75492797 </v>
   <v>       0.00000000       0.50000000       0.75492797 </v>
   <v>       0.50000000       0.00000000       0.75492797 </v>
   <v>       0.49999999       0.50000000       0.75492797 </v>
   <v>       0.25000050       0.25000000       0.75493902 </v>
   <v>       0.25000051       0.74999997       0.75493902 </v>
   <v>       0.75000047       0.25000000       0.75493902 </v>
   <v>       0.75000046       0.74999997       0.75493902 </v>
   <v>       0.13579050       0.11421000       0.70478299 </v>
   <v>       0.13579050       0.61420998       0.70478299 </v>
   <v>       0.63579045       0.11421000       0.70478299 </v>
   <v>       0.63579049       0.61420998       0.70478299 </v>
   <v>       0.36420952       0.38578999       0.70478299 </v>
   <v>       0.36420950       0.88578996       0.70478299 </v>
   <v>       0.86420954       0.38578999       0.70478299 </v>
   <v>       0.86420953       0.88578996       0.70478299 </v>
   <v>       0.11421799       0.36421899       0.70478098 </v>
   <v>       0.11421799       0.86421899       0.70478098 </v>
   <v>       0.61421800       0.36421899       0.70478098 </v>
   <v>       0.61421799       0.86421899       0.70478098 </v>
   <v>       0.38578201       0.13578149       0.70478202 </v>
   <v>       0.38578200       0.63578149       0.70478202 </v>
   <v>       0.88578199       0.13578149       0.70478202 </v>
   <v>       0.88578203       0.63578149       0.70478202 </v>
   <v>       0.13466700       0.11533200       0.80125603 </v>
   <v>       0.13466699       0.61533199       0.80125603 </v>
   <v>       0.63466699       0.11533200       0.80125603 </v>
   <v>       0.63466698       0.61533199       0.80125603 </v>
   <v>       0.36533300       0.38466799       0.80125603 </v>
   <v>       0.36533299       0.88466796       0.80125603 </v>
   <v>       0.86533295       0.38466799       0.80125603 </v>
   <v>       0.86533294       0.88466796       0.80125603 </v>
   <v>       0.11532850       0.36533700       0.80126500 </v>
   <v>       0.11532850       0.86533698       0.80126500 </v>
   <v>       0.61532850       0.36533700       0.80126500 </v>
   <v>       0.61532849       0.86533698       0.80126500 </v>
   <v>       0.38467151       0.13466300       0.80126500 </v>
   <v>       0.38467150       0.63466297       0.80126500 </v>
   <v>       0.88467149       0.13466300       0.80126500 </v>
   <v>       0.88467153       0.63466297       0.80126500 </v>
   <v>       0.99820325       0.00394914       0.60266143 </v>
   <v>       0.00936926       0.50541979       0.60762898 </v>
   <v>       0.50112701       0.99738858       0.60256998 </v>
   <v>       0.49646080       0.49872034       0.60389752 </v>
   <v>       0.25323019       0.24859637       0.60448852 </v>
   <v>       0.24712256       0.75522885       0.60270349 </v>
   <v>       0.75028149       0.24960692       0.60504790 </v>
   <v>       0.74993393       0.75525498       0.60454554 </v>
   <v>       0.00000050       0.00000050       0.70482896 </v>
   <v>       0.00000050       0.50000048       0.70482896 </v>
   <v>       0.50000048       0.00000050       0.70482896 </v>
   <v>       0.50000046       0.50000048       0.70482896 </v>
   <v>       0.24999999       0.24999947       0.70482499 </v>
   <v>       0.25000001       0.74999950       0.70482499 </v>
   <v>       0.74999999       0.24999947       0.70482499 </v>
   <v>       0.74999998       0.74999950       0.70482499 </v>
   <v>       0.00000000       0.00000000       0.80731797 </v>
   <v>       0.00000000       0.50000000       0.80731797 </v>
   <v>       0.50000000       0.00000000       0.80731797 </v>
   <v>       0.49999999       0.50000000       0.80731797 </v>
   <v>       0.24999999       0.25000000       0.80731797 </v>
   <v>       0.25000001       0.74999997       0.80731797 </v>
   <v>       0.74999999       0.25000000       0.80731797 </v>
   <v>       0.74999998       0.74999997       0.80731797 </v>
  </varray>
 </structure>
</modeling>
