 vasp.6.2.1 16May21 (build Nov 15 2021 14:57:28) complex                         
 executed on             LinuxPGI date 2023.07.30  19:02:41
 running on    4 total cores
 distrk:  each k-point on    4 cores,    1 groups
 distr:  one band on NCORE=   1 cores,    4 groups


--------------------------------------------------------------------------------------------------------


 INCAR:
   SYSTEM = PSC
   ISTART = 1
   ICHARG = 1
   PREC = Normal
   ENCUT = 500
   GGA_COMPAT = F
   NELM = 600
   ISYM = 0
   LREAL = Auto
   ISMEAR = 0
   SIGMA = 0.05
   AMIN = 0.01
   BMIX = 0.01
   LVTOT = T
   LWAVE = F
   LDIPOL = T
   IDIPOL = 3
   LVDW = T
   IVDW = 12

 POTCAR:    PAW_PBE H 15Jun2001                   
 POTCAR:    PAW_PBE C 08Apr2002                   
 POTCAR:    PAW_PBE N 08Apr2002                   
 POTCAR:    PAW_PBE I 08Apr2002                   
 POTCAR:    PAW_PBE Pb 08Apr2002                  
 WARNING: For LVTOT=.TRUE., VASP.5.x writes the TOTAL local potential to the
     file LOCPOT. If you want only the Hartree contributions, use LVHAR=.TRUE.
     instead. 

 POTCAR:    PAW_PBE H 15Jun2001                   
   SHA256 =  030f79b5d3ab3cf0e668861823c8fb652ff669f3e15e46930bd03bfd63a607b6 H/POTCAR              
   COPYR  = (c) Copyright 15Jun2001 Georg Kresse                                                    
   COPYR  = This file is part of the software VASP. Any use, copying, and all other rights are regul
   COPYR  = If you do not have a valid VASP license, you may not use, copy or distribute this file. 
   VRHFIN =H: ultrasoft test                                                                        
   LEXCH  = PE                                                                                      
   EATOM  =    12.4884 eV,    0.9179 Ry                                                             
                                                                                                    
   TITEL  = PAW_PBE H 15Jun2001                                                                     
   LULTRA =        F    use ultrasoft PP ?                                                          
   IUNSCR =        0    unscreen: 0-lin 1-nonlin 2-no                                               
   RPACOR =    0.000    partial core radius                                                         
   POMASS =    1.000; ZVAL   =    1.000    mass and valenz                                          
   RCORE  =    1.100    outmost cutoff radius                                                       
   RWIGS  =    0.700; RWIGS  =    0.370    wigner-seitz radius (au A)                               
   ENMAX  =  250.000; ENMIN  =  200.000 eV                                                          
   RCLOC  =    0.701    cutoff for local pot                                                        
   LCOR   =        T    correct aug charges                                                         
   LPAW   =        T    paw PP                                                                      
   EAUG   =  400.000                                                                                
   RMAX   =    1.123    core radius for proj-oper                                                   
   RAUG   =    1.200    factor for augmentation sphere                                              
   RDEP   =    1.112    radius for radial grids                                                     
   RDEPT  =    0.926    core radius for aug-charge                                                  
                                                                                                    
   Atomic configuration                                                                             
    2 entries                                                                                       
     n  l   j            E        occ.                                                              
     1  0  0.50        -6.4927   1.0000                                                             
     2  1  0.50        -3.4015   0.0000                                                             
   Description                                                                                      
     l       E           TYP  RCUT    TYP  RCUT                                                     
     0     -6.4927494     23  1.100                                                                 
     0      6.8029130     23  1.100                                                                 
     1     -4.0817478     23  1.100                                                                 
  local pseudopotential read in
  atomic valenz-charges read in
  non local Contribution for L=            0  read in
    real space projection operators read in
  non local Contribution for L=            0  read in
    real space projection operators read in
  non local Contribution for L=            1  read in
    real space projection operators read in
    PAW grid and wavefunctions read in
 
   number of l-projection  operators is LMAX  =            3
   number of lm-projection operators is LMMAX =            5
 
 POTCAR:    PAW_PBE C 08Apr2002                   
   SHA256 =  253f7b50bb8d59471dbedb8285d89021f4a42ed1a2c5d38a03a736e69125dd95 C/POTCAR              
   COPYR  = (c) Copyright 08Apr2002 Georg Kresse                                                    
   COPYR  = This file is part of the software VASP. Any use, copying, and all other rights are regul
   COPYR  = If you do not have a valid VASP license, you may not use, copy or distribute this file. 
   VRHFIN =C: s2p2                                                                                  
   LEXCH  = PE                                                                                      
   EATOM  =   147.1560 eV,   10.8157 Ry                                                             
                                                                                                    
   TITEL  = PAW_PBE C 08Apr2002                                                                     
   LULTRA =        F    use ultrasoft PP ?                                                          
   IUNSCR =        1    unscreen: 0-lin 1-nonlin 2-no                                               
   RPACOR =    1.200    partial core radius                                                         
   POMASS =   12.011; ZVAL   =    4.000    mass and valenz                                          
   RCORE  =    1.500    outmost cutoff radius                                                       
   RWIGS  =    1.630; RWIGS  =    0.863    wigner-seitz radius (au A)                               
   ENMAX  =  400.000; ENMIN  =  300.000 eV                                                          
   ICORE  =        2    local potential                                                             
   LCOR   =        T    correct aug charges                                                         
   LPAW   =        T    paw PP                                                                      
   EAUG   =  644.873                                                                                
   DEXC   =    0.000                                                                                
   RMAX   =    1.529    core radius for proj-oper                                                   
   RAUG   =    1.300    factor for augmentation sphere                                              
   RDEP   =    1.501    radius for radial grids                                                     
   RDEPT  =    1.300    core radius for aug-charge                                                  
                                                                                                    
   Atomic configuration                                                                             
    4 entries                                                                                       
     n  l   j            E        occ.                                                              
     1  0  0.50      -273.3789   2.0000                                                             
     2  0  0.50       -13.7508   2.0000                                                             
     2  1  0.50        -5.2854   2.0000                                                             
     3  2  1.50        -5.4423   0.0000                                                             
   Description                                                                                      
     l       E           TYP  RCUT    TYP  RCUT                                                     
     0    -13.7508458     23  1.200                                                                 
     0     -8.2022199     23  1.200                                                                 
     1     -5.2854383     23  1.500                                                                 
     1     34.0145650     23  1.500                                                                 
     2     -5.4423304      7  1.500                                                                 
  local pseudopotential read in
  partial core-charges read in
  partial kinetic energy density read in
  atomic valenz-charges read in
  non local Contribution for L=            0  read in
    real space projection operators read in
  non local Contribution for L=            0  read in
    real space projection operators read in
  non local Contribution for L=            1  read in
    real space projection operators read in
  non local Contribution for L=            1  read in
    real space projection operators read in
    PAW grid and wavefunctions read in
 
   number of l-projection  operators is LMAX  =            4
   number of lm-projection operators is LMMAX =            8
 
 POTCAR:    PAW_PBE N 08Apr2002                   
   SHA256 =  e053789ff3a61a86a1b75d8a110fcc91f86041011e7b0817c7c99e4e8a6349d7 N/POTCAR              
   COPYR  = (c) Copyright 08Apr2002 Georg Kresse                                                    
   COPYR  = This file is part of the software VASP. Any use, copying, and all other rights are regul
   COPYR  = If you do not have a valid VASP license, you may not use, copy or distribute this file. 
   VRHFIN =N: s2p3                                                                                  
   LEXCH  = PE                                                                                      
   EATOM  =   264.5486 eV,   19.4438 Ry                                                             
                                                                                                    
   TITEL  = PAW_PBE N 08Apr2002                                                                     
   LULTRA =        F    use ultrasoft PP ?                                                          
   IUNSCR =        1    unscreen: 0-lin 1-nonlin 2-no                                               
   RPACOR =    1.200    partial core radius                                                         
   POMASS =   14.001; ZVAL   =    5.000    mass and valenz                                          
   RCORE  =    1.500    outmost cutoff radius                                                       
   RWIGS  =    1.400; RWIGS  =    0.741    wigner-seitz radius (au A)                               
   ENMAX  =  400.000; ENMIN  =  300.000 eV                                                          
   ICORE  =        2    local potential                                                             
   LCOR   =        T    correct aug charges                                                         
   LPAW   =        T    paw PP                                                                      
   EAUG   =  627.112                                                                                
   DEXC   =    0.000                                                                                
   RMAX   =    1.529    core radius for proj-oper                                                   
   RAUG   =    1.300    factor for augmentation sphere                                              
   RDEP   =    1.514    radius for radial grids                                                     
   RDEPT  =    1.338    core radius for aug-charge                                                  
                                                                                                    
   Atomic configuration                                                                             
    4 entries                                                                                       
     n  l   j            E        occ.                                                              
     1  0  0.50      -384.7179   2.0000                                                             
     2  0  0.50       -18.5828   2.0000                                                             
     2  1  0.50        -7.0898   3.0000                                                             
     3  2  1.50        -6.8029   0.0000                                                             
   Description                                                                                      
     l       E           TYP  RCUT    TYP  RCUT                                                     
     0    -18.5828119     23  1.200                                                                 
     0    -13.5018863     23  1.200                                                                 
     1     -7.0897853     23  1.500                                                                 
     1      9.5240782     23  1.500                                                                 
     2     -6.8029130      7  1.500                                                                 
  local pseudopotential read in
  partial core-charges read in
  partial kinetic energy density read in
  atomic valenz-charges read in
  non local Contribution for L=            0  read in
    real space projection operators read in
  non local Contribution for L=            0  read in
    real space projection operators read in
  non local Contribution for L=            1  read in
    real space projection operators read in
  non local Contribution for L=            1  read in
    real space projection operators read in
    PAW grid and wavefunctions read in
 
   number of l-projection  operators is LMAX  =            4
   number of lm-projection operators is LMMAX =            8
 
 POTCAR:    PAW_PBE I 08Apr2002                   
   SHA256 =  e40f3f59b681c1fc3e3091736183c4589116986673d2b852a5012aec72758799 I/POTCAR              
   COPYR  = (c) Copyright 08Apr2002 Georg Kresse                                                    
   COPYR  = This file is part of the software VASP. Any use, copying, and all other rights are regul
   COPYR  = If you do not have a valid VASP license, you may not use, copy or distribute this file. 
   VRHFIN =I : s2p5                                                                                 
   LEXCH  = PE                                                                                      
   EATOM  =   315.8678 eV,   23.2156 Ry                                                             
                                                                                                    
   TITEL  = PAW_PBE I 08Apr2002                                                                     
   LULTRA =        F    use ultrasoft PP ?                                                          
   IUNSCR =        1    unscreen: 0-lin 1-nonlin 2-no                                               
   RPACOR =    2.200    partial core radius                                                         
   POMASS =  126.904; ZVAL   =    7.000    mass and valenz                                          
   RCORE  =    2.300    outmost cutoff radius                                                       
   RWIGS  =    2.810; RWIGS  =    1.487    wigner-seitz radius (au A)                               
   ENMAX  =  175.647; ENMIN  =  131.735 eV                                                          
   ICORE  =        3    local potential                                                             
   LCOR   =        T    correct aug charges                                                         
   LPAW   =        T    paw PP                                                                      
   EAUG   =  370.139                                                                                
   DEXC   =    0.000                                                                                
   RMAX   =    2.359    core radius for proj-oper                                                   
   RAUG   =    1.300    factor for augmentation sphere                                              
   RDEP   =    2.392    radius for radial grids                                                     
   RDEPT  =    2.170    core radius for aug-charge                                                  
                                                                                                    
   Atomic configuration                                                                             
   13 entries                                                                                       
     n  l   j            E        occ.                                                              
     1  0  0.50    -32976.3739   2.0000                                                             
     2  0  0.50     -5094.5933   2.0000                                                             
     2  1  1.50     -4572.0131   6.0000                                                             
     3  0  0.50     -1028.2813   2.0000                                                             
     3  1  1.50      -859.0250   6.0000                                                             
     3  2  2.50      -605.7620  10.0000                                                             
     4  0  0.50      -180.5540   2.0000                                                             
     4  1  1.50      -127.5306   6.0000                                                             
     4  2  2.50       -50.2720  10.0000                                                             
     5  0  0.50       -17.4058   2.0000                                                             
     5  1  0.50        -7.0851   5.0000                                                             
     5  2  1.50        -7.0750   0.0000                                                             
     4  3  2.50        -7.0750   0.0000                                                             
   Description                                                                                      
     l       E           TYP  RCUT    TYP  RCUT                                                     
     0    -17.4058016     23  2.300                                                                 
     0    -18.7663842     23  2.300                                                                 
     1     -7.0850686     23  2.300                                                                 
     1     -4.2150896     23  2.300                                                                 
     2     -7.0750295     23  2.300                                                                 
     3     -1.3605826     23  2.300                                                                 
  local pseudopotential read in
  partial core-charges read in
  partial kinetic energy density read in
  atomic valenz-charges read in
  non local Contribution for L=            0  read in
    real space projection operators read in
  non local Contribution for L=            0  read in
    real space projection operators read in
  non local Contribution for L=            1  read in
    real space projection operators read in
  non local Contribution for L=            1  read in
    real space projection operators read in
  non local Contribution for L=            2  read in
    real space projection operators read in
    PAW grid and wavefunctions read in
 
   number of l-projection  operators is LMAX  =            5
   number of lm-projection operators is LMMAX =           13
 
 POTCAR:    PAW_PBE Pb 08Apr2002                  
   SHA256 =  797118a27cf1bcd06b9881c67a26cdde129e3cd1a551dd4a281f9681ce847303 Pb/POTCAR             
   COPYR  = (c) Copyright 08Apr2002 Georg Kresse                                                    
   COPYR  = This file is part of the software VASP. Any use, copying, and all other rights are regul
   COPYR  = If you do not have a valid VASP license, you may not use, copy or distribute this file. 
   VRHFIN =Pb:                                                                                      
   LEXCH  = PE                                                                                      
   EATOM  =    96.9868 eV,    7.1283 Ry                                                             
                                                                                                    
   TITEL  = PAW_PBE Pb 08Apr2002                                                                    
   LULTRA =        F    use ultrasoft PP ?                                                          
   IUNSCR =        1    unscreen: 0-lin 1-nonlin 2-no                                               
   RPACOR =    2.200    partial core radius                                                         
   POMASS =  207.200; ZVAL   =    4.000    mass and valenz                                          
   RCORE  =    3.100    outmost cutoff radius                                                       
   RWIGS  =    3.260; RWIGS  =    1.725    wigner-seitz radius (au A)                               
   ENMAX  =   97.973; ENMIN  =   73.480 eV                                                          
   ICORE  =        3    local potential                                                             
   LCOR   =        T    correct aug charges                                                         
   LPAW   =        T    paw PP                                                                      
   EAUG   =  234.873                                                                                
   DEXC   =    0.000                                                                                
   RMAX   =    3.158    core radius for proj-oper                                                   
   RAUG   =    1.300    factor for augmentation sphere                                              
   RDEP   =    3.202    radius for radial grids                                                     
   RDEPT  =    2.659    core radius for aug-charge                                                  
                                                                                                    
   Atomic configuration                                                                             
   17 entries                                                                                       
     n  l   j            E        occ.                                                              
     1  0  0.50    -88091.8466   2.0000                                                             
     2  0  0.50    -15753.4197   2.0000                                                             
     2  1  1.50    -13508.1797   6.0000                                                             
     3  0  0.50     -3781.7194   2.0000                                                             
     3  1  1.50     -3138.2529   6.0000                                                             
     3  2  2.50     -2483.2977  10.0000                                                             
     4  0  0.50      -856.2895   2.0000                                                             
     4  1  1.50      -645.4943   6.0000                                                             
     4  2  2.50      -401.8768  10.0000                                                             
     4  3  3.50      -132.9059  14.0000                                                             
     5  0  0.50      -144.0950   2.0000                                                             
     5  1  1.50       -85.7879   6.0000                                                             
     5  2  2.50       -21.1769  10.0000                                                             
     6  0  0.50       -12.0372   2.0000                                                             
     6  1  1.50        -3.4971   2.0000                                                             
     6  2  2.50        -1.3606   0.0000                                                             
     5  3  2.50        -2.7212   0.0000                                                             
   Description                                                                                      
     l       E           TYP  RCUT    TYP  RCUT                                                     
     0    -12.0371566     23  3.100                                                                 
     0    -13.3977392     23  3.100                                                                 
     1     -3.4971341     23  3.100                                                                 
     1     -5.4423304     23  3.100                                                                 
     2     -1.3605826     23  3.100                                                                 
     3     -1.3605826     23  3.100                                                                 
  local pseudopotential read in
  partial core-charges read in
  partial kinetic energy density read in
  atomic valenz-charges read in
  non local Contribution for L=            0  read in
    real space projection operators read in
  non local Contribution for L=            0  read in
    real space projection operators read in
  non local Contribution for L=            1  read in
    real space projection operators read in
  non local Contribution for L=            1  read in
    real space projection operators read in
  non local Contribution for L=            2  read in
    real space projection operators read in
    PAW grid and wavefunctions read in
 
   number of l-projection  operators is LMAX  =            5
   number of lm-projection operators is LMMAX =           13
 
 Optimization of the real space projectors (new method)

 maximal supplied QI-value         = 34.20
 optimisation between [QCUT,QGAM] = [ 11.29, 22.57] = [ 35.68,142.71] Ry 
 Optimized for a Real-space Cutoff    1.16 Angstroem

   l    n(q)    QCUT    max X(q) W(low)/X(q) W(high)/X(q)  e(spline) 
   0      8    11.287    19.460    0.40E-03    0.73E-03    0.16E-06
   0      8    11.287    12.209    0.38E-03    0.70E-03    0.15E-06
   1      7    11.287     4.655    0.22E-03    0.25E-04    0.22E-06
 Optimization of the real space projectors (new method)

 maximal supplied QI-value         = 25.13
 optimisation between [QCUT,QGAM] = [ 11.31, 22.87] = [ 35.82,146.48] Ry 
 Optimized for a Real-space Cutoff    1.00 Angstroem

   l    n(q)    QCUT    max X(q) W(low)/X(q) W(high)/X(q)  e(spline) 
   0      7    11.310   115.676    0.43E-03    0.13E-02    0.19E-06
   0      7    11.310    87.132    0.43E-03    0.13E-02    0.18E-06
   1      6    11.310     4.429    0.42E-03    0.74E-03    0.11E-06
   1      6    11.310     2.733    0.34E-03    0.55E-03    0.92E-07
 Optimization of the real space projectors (new method)

 maximal supplied QI-value         = 25.13
 optimisation between [QCUT,QGAM] = [ 11.31, 22.87] = [ 35.82,146.48] Ry 
 Optimized for a Real-space Cutoff    1.27 Angstroem

   l    n(q)    QCUT    max X(q) W(low)/X(q) W(high)/X(q)  e(spline) 
   0      9    11.310    79.467    0.75E-04    0.16E-03    0.36E-06
   0      9    11.310    66.151    0.74E-04    0.16E-03    0.36E-06
   1      8    11.310    17.416    0.35E-03    0.12E-03    0.95E-06
   1      8    11.310    12.382    0.37E-03    0.13E-03    0.98E-06
 Optimization of the real space projectors (new method)

 maximal supplied QI-value         = 16.25
 optimisation between [QCUT,QGAM] = [ 11.38, 22.75] = [ 36.24,144.96] Ry 
 Optimized for a Real-space Cutoff    1.31 Angstroem

   l    n(q)    QCUT    max X(q) W(low)/X(q) W(high)/X(q)  e(spline) 
   0      9    11.376   194.483    0.24E-03    0.23E-03    0.67E-07
   0      9    11.376   190.334    0.23E-03    0.22E-03    0.65E-07
   1      8    11.376   116.687    0.25E-03    0.63E-04    0.16E-06
   1      8    11.376    88.696    0.25E-03    0.61E-04    0.16E-06
   2      8    11.376     4.877    0.17E-03    0.14E-03    0.29E-07
 Optimization of the real space projectors (new method)

 maximal supplied QI-value         = 12.09
 optimisation between [QCUT,QGAM] = [ 11.37, 22.86] = [ 36.19,146.31] Ry 
 Optimized for a Real-space Cutoff    1.66 Angstroem

   l    n(q)    QCUT    max X(q) W(low)/X(q) W(high)/X(q)  e(spline) 
   0     11    11.369   135.111    0.12E-03    0.69E-04    0.19E-05
   0     11    11.369   146.850    0.11E-03    0.65E-04    0.18E-05
   1     11    11.369   148.016    0.17E-03    0.32E-03    0.89E-06
   1     11    11.369   122.989    0.17E-03    0.32E-03    0.91E-06
   2     10    11.369     8.916    0.12E-03    0.45E-04    0.33E-06
  PAW_PBE H 15Jun2001                   :
 energy of atom  1       EATOM=  -12.4884
 kinetic energy error for atom=    0.0020 (will be added to EATOM!!)
  PAW_PBE C 08Apr2002                   :
 energy of atom  2       EATOM= -147.1560
 kinetic energy error for atom=    0.0076 (will be added to EATOM!!)
  PAW_PBE N 08Apr2002                   :
 energy of atom  3       EATOM= -264.5486
 kinetic energy error for atom=    0.0138 (will be added to EATOM!!)
  PAW_PBE I 08Apr2002                   :
 energy of atom  4       EATOM= -315.8678
 kinetic energy error for atom=    0.0009 (will be added to EATOM!!)
  PAW_PBE Pb 08Apr2002                  :
 energy of atom  5       EATOM=  -96.9868
 kinetic energy error for atom=    0.0000 (will be added to EATOM!!)
 
 
 POSCAR:  H  C  N  I Pb
  positions in cartesian coordinates
  No initial velocities read in
 exchange correlation table for  LEXCH =        8
   RHO(1)=    0.500       N(1)  =     2000
   RHO(2)=  100.500       N(2)  =     4000
 


--------------------------------------------------------------------------------------------------------


 ion  position               nearest neighbor table
   1  0.457  0.323  0.577- 187 1.05
   2  0.450  0.845  0.575- 188 1.05
   3  0.924  0.247  0.581- 189 1.02
   4  0.948  0.806  0.581- 190 1.00
   5  0.300  0.061  0.577- 194 1.02
   6  0.316  0.566  0.578- 195 1.02
   7  0.795  0.075  0.580- 196 1.01
   8  0.108  0.235  0.558- 183 1.05
   9  0.095  0.679  0.565- 184 1.02
  10  0.569  0.172  0.556- 185 1.02
  11  0.498  0.652  0.566- 186 1.02
  12  0.361  0.013  0.561- 194 1.03
  13  0.277  0.622  0.558- 195 1.04
  14  0.869  0.033  0.567- 196 1.04
  15  0.062  0.228  0.583- 183 1.03
  16  0.028  0.692  0.585- 184 1.03
  17  0.572  0.251  0.573- 185 1.05
  18  0.472  0.713  0.586- 186 1.02
  19  0.272  0.436  0.580- 191 1.03
  20  0.167  0.029  0.574- 192 1.02
  21  0.675  0.014  0.578- 193 1.02
  22  0.379  0.290  0.562- 187 1.03
  23  0.482  0.868  0.549- 188 1.00
  24  0.881  0.250  0.556- 189 1.03
  25  0.975  0.868  0.561- 190 1.03
  26  0.201  0.411  0.562- 191 1.02
  27  0.142  0.964  0.554- 192 1.03
  28  0.672  0.929  0.563- 193 1.03
  29  0.444  0.192  0.547- 146 1.09
  30  0.515  0.744  0.541- 147 1.11
  31  0.997  0.248  0.539- 144 1.09
  32  0.065  0.791  0.548- 145 1.10
  33  0.198  0.528  0.546- 148 1.10
  34  0.267  0.946  0.544- 149 1.10
  35  0.793  0.934  0.554- 150 1.10
  36  0.463  0.310  0.676- 205 1.04
  37  0.431  0.810  0.673- 206 1.05
  38  0.959  0.279  0.679- 207 1.01
  39  0.929  0.780  0.674- 208 1.02
  40  0.304  0.056  0.674- 209 1.04
  41  0.295  0.539  0.678- 210 1.03
  42  0.790  0.051  0.677- 211 1.04
  43  0.847  0.504  0.668- 212 1.04
  44  0.088  0.176  0.645- 197 1.01
  45  0.096  0.691  0.653- 198 1.00
  46  0.575  0.166  0.650- 199 1.00
  47  0.575  0.679  0.656- 200 1.01
  48  0.174  0.417  0.647- 201 1.02
  49  0.176  0.922  0.650- 202 1.00
  50  0.649  0.476  0.658- 203 1.03
  51  0.672  0.918  0.648- 204 1.00
  52  0.066  0.184  0.672- 197 1.03
  53  0.038  0.688  0.676- 198 1.01
  54  0.566  0.210  0.674- 199 1.02
  55  0.534  0.710  0.679- 200 1.03
  56  0.197  0.434  0.673- 201 1.04
  57  0.201  0.955  0.675- 202 1.03
  58  0.720  0.443  0.674- 203 1.03
  59  0.691  0.946  0.674- 204 1.04
  60  0.415  0.321  0.652- 205 1.01
  61  0.419  0.832  0.646- 206 1.02
  62  0.925  0.321  0.656- 207 1.01
  63  0.927  0.835  0.651- 208 1.03
  64  0.333  0.078  0.648- 209 1.01
  65  0.324  0.580  0.654- 210 1.03
  66  0.827  0.076  0.652- 211 1.01
  67  0.852  0.563  0.646- 212 1.03
  68  0.002  0.262  0.634- 151 1.07
  69  0.032  0.783  0.637- 152 1.08
  70  0.481  0.233  0.633- 153 1.08
  71  0.509  0.752  0.633- 154 1.08
  72  0.253  0.996  0.631- 156 1.08
  73  0.251  0.507  0.633- 155 1.08
  74  0.754  0.996  0.632- 158 1.08
  75  0.725  0.552  0.638- 157 1.09
  76  0.449  0.301  0.769- 221 1.02
  77  0.449  0.801  0.769- 222 1.02
  78  0.949  0.301  0.769- 223 1.02
  79  0.949  0.801  0.769- 224 1.02
  80  0.301  0.051  0.769- 225 1.02
  81  0.301  0.551  0.769- 226 1.02
  82  0.801  0.051  0.769- 227 1.02
  83  0.801  0.551  0.769- 228 1.02
  84  0.079  0.171  0.743- 213 1.02
  85  0.079  0.671  0.743- 214 1.02
  86  0.579  0.171  0.743- 215 1.02
  87  0.579  0.671  0.743- 216 1.02
  88  0.171  0.421  0.743- 217 1.02
  89  0.171  0.921  0.743- 218 1.02
  90  0.671  0.421  0.743- 219 1.02
  91  0.671  0.921  0.743- 220 1.02
  92  0.051  0.199  0.769- 213 1.02
  93  0.051  0.699  0.769- 214 1.02
  94  0.551  0.199  0.769- 215 1.02
  95  0.551  0.699  0.769- 216 1.02
  96  0.199  0.449  0.769- 217 1.02
  97  0.199  0.949  0.769- 218 1.02
  98  0.699  0.449  0.769- 219 1.02
  99  0.699  0.949  0.769- 220 1.02
 100  0.421  0.329  0.743- 221 1.02
 101  0.421  0.829  0.743- 222 1.02
 102  0.921  0.329  0.743- 223 1.02
 103  0.921  0.829  0.743- 224 1.02
 104  0.329  0.079  0.743- 225 1.02
 105  0.329  0.579  0.743- 226 1.02
 106  0.829  0.079  0.743- 227 1.02
 107  0.829  0.579  0.743- 228 1.02
 108  0.000  0.250  0.726- 161 1.09
 109  0.000  0.750  0.726- 162 1.09
 110  0.500  0.250  0.726- 159 1.09
 111  0.500  0.750  0.726- 160 1.09
 112  0.250  0.000  0.726- 163 1.09
 113  0.250  0.500  0.726- 164 1.09
 114  0.750  0.000  0.726- 165 1.09
 115  0.750  0.500  0.726- 166 1.09
 116  0.717  0.439  0.542- 173 1.09
 117  0.737  0.497  0.521- 173 1.08
 118  0.654  0.550  0.562- 174 1.10
 119  0.701  0.635  0.560- 174 1.11
 120  0.843  0.505  0.573- 175 1.09
 121  0.778  0.569  0.583- 175 1.10
 122  0.865  0.558  0.534- 176 1.10
 123  0.793  0.624  0.528- 176 1.11
 124  0.867  0.467  0.520- 177 1.10
 125  0.864  0.430  0.545- 177 1.10
 126  0.875  0.333  0.520- 178 1.10
 127  0.786  0.324  0.531- 178 1.10
 128  0.636  0.548  0.521- 179 1.10
 129  0.691  0.632  0.519- 179 1.11
 130  0.606  0.633  0.533- 179 1.10
 131  0.753  0.448  0.599- 180 1.10
 132  0.743  0.404  0.574- 180 1.10
 133  0.679  0.472  0.582- 180 1.08
 134  0.827  0.685  0.564- 181 1.10
 135  0.892  0.687  0.543- 181 1.11
 136  0.906  0.623  0.565- 181 1.11
 137  0.820  0.391  0.487- 182 1.12
 138  0.785  0.300  0.492- 182 1.11
 139  0.663  0.320  0.523- 168 1.10
 140  0.734  0.463  0.471- 169 1.11
 141  0.538  0.377  0.521- 170 1.08
 142  0.609  0.520  0.470- 171 1.10
 143  0.509  0.477  0.495- 172 1.12
 144  0.995  0.244  0.556-  31 1.09 189 1.30 183 1.31
 145  0.033  0.773  0.562-  32 1.10 190 1.31 184 1.31
 146  0.472  0.230  0.558-  29 1.09 185 1.32 187 1.33
 147  0.494  0.759  0.557-  30 1.11 188 1.30 186 1.31
 148  0.237  0.516  0.559-  33 1.10 191 1.31 195 1.32
 149  0.253  0.987  0.556-  34 1.10 194 1.31 192 1.32
 150  0.770  0.980  0.564-  35 1.10 193 1.30 196 1.32
 151  0.006  0.249  0.650-  68 1.07 207 1.31 197 1.33
 152  0.012  0.763  0.652-  69 1.08 208 1.31 198 1.33
 153  0.495  0.244  0.650-  70 1.08 205 1.30 199 1.33
 154  0.497  0.756  0.650-  71 1.08 206 1.29 200 1.32
 155  0.249  0.499  0.650-  73 1.08 210 1.30 201 1.31
 156  0.255  0.001  0.649-  72 1.08 209 1.29 202 1.33
 157  0.750  0.520  0.651-  75 1.09 212 1.30 203 1.32
 158  0.750  0.998  0.649-  74 1.08 211 1.29 204 1.32
 159  0.500  0.250  0.743- 110 1.09 221 1.31 215 1.31
 160  0.500  0.750  0.743- 111 1.09 222 1.31 216 1.31
 161  1.000  0.250  0.743- 108 1.09 223 1.31 213 1.31
 162  1.000  0.750  0.743- 109 1.09 224 1.31 214 1.31
 163  0.250  0.000  0.743- 112 1.09 225 1.31 218 1.31
 164  0.250  0.500  0.743- 113 1.09 226 1.31 217 1.31
 165  0.750  0.000  0.743- 114 1.09 227 1.31 220 1.31
 166  0.750  0.500  0.743- 115 1.09 228 1.31 219 1.31
 167  0.707  0.388  0.497- 169 1.40 168 1.42 182 1.52
 168  0.650  0.363  0.511- 139 1.10 170 1.38 167 1.42
 169  0.690  0.444  0.483- 140 1.11 171 1.40 167 1.40
 170  0.580  0.395  0.510- 141 1.08 168 1.38 172 1.40
 171  0.619  0.476  0.482- 142 1.10 172 1.37 169 1.40
 172  0.565  0.451  0.495- 143 1.12 171 1.37 170 1.40
 173  0.759  0.475  0.535- 117 1.08 116 1.09 177 1.51 229 1.54
 174  0.690  0.583  0.551- 118 1.10 119 1.11 179 1.52 229 1.54
 175  0.784  0.519  0.573- 120 1.09 121 1.10 229 1.51 180 1.52
 176  0.823  0.594  0.541- 122 1.10 123 1.11 181 1.52 229 1.53
 177  0.831  0.436  0.530- 124 1.10 125 1.10 173 1.51 178 1.53
 178  0.820  0.359  0.521- 127 1.10 126 1.10 182 1.52 177 1.53
 179  0.655  0.598  0.530- 128 1.10 130 1.10 129 1.11 174 1.52
 180  0.737  0.457  0.582- 133 1.08 131 1.10 132 1.10 175 1.52
 181  0.863  0.649  0.555- 134 1.10 135 1.11 136 1.11 176 1.52
 182  0.785  0.358  0.498- 138 1.11 137 1.12 167 1.52 178 1.52
 183  0.057  0.234  0.566-  15 1.03   8 1.05 144 1.31
 184  0.053  0.711  0.571-   9 1.02  16 1.03 145 1.31
 185  0.542  0.216  0.563-  10 1.02  17 1.05 146 1.32
 186  0.492  0.706  0.571-  18 1.02  11 1.02 147 1.31
 187  0.435  0.287  0.565-  22 1.03   1 1.05 146 1.33
 188  0.475  0.828  0.560-  23 1.00   2 1.05 147 1.30
 189  0.929  0.250  0.565-   3 1.02  24 1.03 144 1.30
 190  0.978  0.816  0.568-   4 1.00  25 1.03 145 1.31
 191  0.237  0.450  0.568-  26 1.02  19 1.03 148 1.31
 192  0.183  0.993  0.562-  20 1.02  27 1.03 149 1.32
 193  0.699  0.976  0.568-  21 1.02  28 1.03 150 1.30
 194  0.307  0.024  0.565-   5 1.02  12 1.03 149 1.31
 195  0.281  0.570  0.566-   6 1.02  13 1.04 148 1.32
 196  0.814  0.033  0.571-   7 1.01  14 1.04 150 1.32
 197  0.057  0.200  0.657-  44 1.01  52 1.03 151 1.33
 198  0.051  0.710  0.661-  45 1.00  53 1.01 152 1.33
 199  0.549  0.204  0.659-  46 1.00  54 1.02 153 1.33
 200  0.538  0.713  0.662-  47 1.01  55 1.03 154 1.32
 201  0.205  0.447  0.657-  48 1.02  56 1.04 155 1.31
 202  0.208  0.956  0.659-  49 1.00  57 1.03 156 1.33
 203  0.705  0.475  0.662-  58 1.03  50 1.03 157 1.32
 204  0.701  0.951  0.658-  51 1.00  59 1.04 158 1.32
 205  0.456  0.294  0.660-  60 1.01  36 1.04 153 1.30
 206  0.447  0.802  0.657-  61 1.02  37 1.05 154 1.29
 207  0.961  0.284  0.663-  38 1.01  62 1.01 151 1.31
 208  0.953  0.795  0.660-  39 1.02  63 1.03 152 1.31
 209  0.299  0.047  0.658-  64 1.01  40 1.04 156 1.29
 210  0.292  0.541  0.661-  65 1.03  41 1.03 155 1.30
 211  0.790  0.044  0.660-  66 1.01  42 1.04 158 1.29
 212  0.820  0.528  0.655-  67 1.03  43 1.04 157 1.30
 213  0.046  0.204  0.753-  92 1.02  84 1.02 161 1.31
 214  0.046  0.704  0.753-  93 1.02  85 1.02 162 1.31
 215  0.546  0.204  0.753-  94 1.02  86 1.02 159 1.31
 216  0.546  0.704  0.753-  95 1.02  87 1.02 160 1.31
 217  0.204  0.454  0.753-  96 1.02  88 1.02 164 1.31
 218  0.204  0.954  0.753-  97 1.02  89 1.02 163 1.31
 219  0.704  0.454  0.753-  98 1.02  90 1.02 166 1.31
 220  0.704  0.954  0.753-  99 1.02  91 1.02 165 1.31
 221  0.454  0.296  0.753-  76 1.02 100 1.02 159 1.31
 222  0.454  0.796  0.753-  77 1.02 101 1.02 160 1.31
 223  0.954  0.296  0.753-  78 1.02 102 1.02 161 1.31
 224  0.954  0.796  0.753-  79 1.02 103 1.02 162 1.31
 225  0.296  0.046  0.753-  80 1.02 104 1.02 163 1.31
 226  0.296  0.546  0.753-  81 1.02 105 1.02 164 1.31
 227  0.796  0.046  0.753-  82 1.02 106 1.02 165 1.31
 228  0.796  0.546  0.753-  83 1.02 107 1.02 166 1.31
 229  0.765  0.542  0.550- 175 1.51 176 1.53 174 1.54 173 1.54
 230  0.501  0.018  0.553- 304 3.24
 231  0.482  0.515  0.556- 305 3.09
 232  0.994  0.004  0.552- 302 3.33
 233  0.035  0.505  0.553- 303 3.21
 234  0.246  0.246  0.553- 306 3.26
 235  0.251  0.763  0.552- 307 3.23
 236  0.744  0.213  0.557- 308 3.18
 237  0.707  0.791  0.549- 309 3.43
 238  0.007  0.998  0.655- 302 3.09 310 3.12
 239  0.013  0.490  0.655- 311 3.10 303 3.21
 240  0.501  0.004  0.655- 312 3.14 304 3.14
 241  0.507  0.493  0.656- 313 3.08 305 3.18
 242  0.254  0.245  0.655- 306 3.13 314 3.13
 243  0.248  0.755  0.655- 315 3.14 307 3.18
 244  0.744  0.257  0.656- 316 3.06 308 3.10
 245  0.748  0.750  0.653- 309 3.21 317 3.22
 246  0.141  0.111  0.607- 306 3.23 302 3.28
 247  0.143  0.611  0.611- 303 3.15 307 3.25
 248  0.646  0.108  0.610- 304 3.16 308 3.29
 249  0.621  0.629  0.615- 305 3.23 309 3.24
 250  0.358  0.394  0.611- 305 3.23 306 3.24
 251  0.371  0.885  0.608- 307 3.23 304 3.28
 252  0.885  0.371  0.613- 308 3.23 303 3.34
 253  0.865  0.883  0.610- 302 3.22 309 3.26
 254  0.115  0.357  0.609- 306 3.08 303 3.35
 255  0.122  0.876  0.609- 307 3.13 302 3.30
 256  0.587  0.342  0.605- 308 3.24 305 3.31
 257  0.612  0.863  0.611- 309 3.04 304 3.29
 258  0.385  0.133  0.608- 304 3.13 306 3.28
 259  0.381  0.634  0.614- 305 3.23 307 3.34
 260  0.889  0.142  0.613- 302 3.15 308 3.38
 261  0.913  0.651  0.617- 303 3.21 309 3.79
 262  0.000  0.000  0.755- 310 3.13 318 3.27
 263  0.000  0.500  0.755- 311 3.13 319 3.27
 264  0.500  0.000  0.755- 312 3.13 320 3.27
 265  0.500  0.500  0.755- 313 3.13 321 3.27
 266  0.250  0.250  0.755- 314 3.13 322 3.27
 267  0.250  0.750  0.755- 315 3.13 323 3.27
 268  0.750  0.250  0.755- 316 3.13 324 3.27
 269  0.750  0.750  0.755- 317 3.13 325 3.27
 270  0.136  0.114  0.705- 310 3.20 314 3.20
 271  0.136  0.614  0.705- 311 3.20 315 3.20
 272  0.636  0.114  0.705- 312 3.20 316 3.20
 273  0.636  0.614  0.705- 313 3.20 317 3.20
 274  0.364  0.386  0.705- 313 3.20 314 3.20
 275  0.364  0.886  0.705- 312 3.20 315 3.20
 276  0.864  0.386  0.705- 311 3.20 316 3.20
 277  0.864  0.886  0.705- 310 3.20 317 3.20
 278  0.114  0.364  0.705- 314 3.21 311 3.21
 279  0.114  0.864  0.705- 315 3.21 310 3.21
 280  0.614  0.364  0.705- 316 3.21 313 3.21
 281  0.614  0.864  0.705- 317 3.21 312 3.21
 282  0.386  0.136  0.705- 314 3.21 312 3.21
 283  0.386  0.636  0.705- 315 3.21 313 3.21
 284  0.886  0.136  0.705- 316 3.21 310 3.21
 285  0.886  0.636  0.705- 317 3.21 311 3.21
 286  0.135  0.115  0.801- 318 3.22 322 3.22
 287  0.135  0.615  0.801- 319 3.22 323 3.22
 288  0.635  0.115  0.801- 320 3.22 324 3.22
 289  0.635  0.615  0.801- 321 3.22 325 3.22
 290  0.365  0.385  0.801- 321 3.22 322 3.22
 291  0.365  0.885  0.801- 320 3.22 323 3.22
 292  0.865  0.385  0.801- 319 3.22 324 3.22
 293  0.865  0.885  0.801- 318 3.22 325 3.22
 294  0.115  0.365  0.801- 319 3.23 322 3.23
 295  0.115  0.865  0.801- 318 3.23 323 3.23
 296  0.615  0.365  0.801- 321 3.23 324 3.23
 297  0.615  0.865  0.801- 320 3.23 325 3.23
 298  0.385  0.135  0.801- 320 3.23 322 3.23
 299  0.385  0.635  0.801- 321 3.23 323 3.23
 300  0.885  0.135  0.801- 318 3.23 324 3.23
 301  0.885  0.635  0.801- 319 3.23 325 3.23
 302  0.994  0.005  0.606- 238 3.09 260 3.15 253 3.22 246 3.28 255 3.30 232 3.33
 303  0.006  0.507  0.604- 247 3.15 261 3.21 239 3.21 233 3.21 252 3.34 254 3.35
 304  0.504  0.008  0.604- 258 3.13 240 3.14 248 3.16 230 3.24 251 3.28 257 3.29
 305  0.499  0.503  0.605- 231 3.09 241 3.18 259 3.23 249 3.23 250 3.23 256 3.31
 306  0.249  0.253  0.605- 254 3.08 242 3.13 246 3.23 250 3.24 234 3.26 258 3.28
 307  0.247  0.757  0.604- 255 3.13 243 3.18 251 3.23 235 3.23 247 3.25 259 3.34
 308  0.746  0.260  0.606- 244 3.10 236 3.18 252 3.23 256 3.24 248 3.29 260 3.38
 309  0.739  0.757  0.602- 257 3.04 245 3.21 249 3.24 253 3.26 237 3.43 261 3.79
 310  0.000  0.000  0.705- 238 3.12 262 3.13 270 3.20 277 3.20 279 3.21 284 3.21
 311  0.000  0.500  0.705- 239 3.10 263 3.13 271 3.20 276 3.20 278 3.21 285 3.21
 312  0.500  0.000  0.705- 264 3.13 240 3.14 272 3.20 275 3.20 281 3.21 282 3.21
 313  0.500  0.500  0.705- 241 3.08 265 3.13 273 3.20 274 3.20 280 3.21 283 3.21
 314  0.250  0.250  0.705- 266 3.13 242 3.13 270 3.20 274 3.20 282 3.21 278 3.21
 315  0.250  0.750  0.705- 267 3.13 243 3.14 271 3.20 275 3.20 283 3.21 279 3.21
 316  0.750  0.250  0.705- 244 3.06 268 3.13 272 3.20 276 3.20 284 3.21 280 3.21
 317  0.750  0.750  0.705- 269 3.13 273 3.20 277 3.20 285 3.21 281 3.21 245 3.22
 318  0.000  0.000  0.807- 286 3.22 293 3.22 300 3.23 295 3.23 262 3.27
 319  0.000  0.500  0.807- 287 3.22 292 3.22 301 3.23 294 3.23 263 3.27
 320  0.500  0.000  0.807- 288 3.22 291 3.22 298 3.23 297 3.23 264 3.27
 321  0.500  0.500  0.807- 289 3.22 290 3.22 299 3.23 296 3.23 265 3.27
 322  0.250  0.250  0.807- 290 3.22 286 3.22 294 3.23 298 3.23 266 3.27
 323  0.250  0.750  0.807- 291 3.22 287 3.22 299 3.23 295 3.23 267 3.27
 324  0.750  0.250  0.807- 292 3.22 288 3.22 296 3.23 300 3.23 268 3.27
 325  0.750  0.750  0.807- 293 3.22 289 3.22 297 3.23 301 3.23 269 3.27
 

IMPORTANT INFORMATION: All symmetrisations will be switched off!
NOSYMM: (Re-)initialisation of all symmetry stuff for point group C_1.


----------------------------------------------------------------------------------------

                                     Primitive cell                                     

  volume of cell :   20385.2105

  direct lattice vectors                    reciprocal lattice vectors
    18.060800552  0.000000000  0.000000000     0.055368531  0.000015077 -0.000000000
    -0.004918649 18.062799454  0.000000000     0.000000000  0.055362404  0.000000000
     0.000000000  0.000000000 62.487499237     0.000000000 -0.000000000  0.016003201

  length of vectors
    18.060800552 18.062800123 62.487499237     0.055368533  0.055362404  0.016003201

  position of ions in fractional coordinates (direct lattice)
     0.456585811  0.323367054  0.576692433
     0.449864527  0.845222109  0.574596860
     0.923558594  0.247274081  0.581046881
     0.948019971  0.806165642  0.581379406
     0.299706096  0.061192498  0.577053345
     0.315878628  0.565961015  0.578239617
     0.795058848  0.075317553  0.579793273
     0.108191862  0.235127494  0.558388113
     0.094849877  0.679493341  0.565243793
     0.569389224  0.172480684  0.556184120
     0.498181431  0.651996508  0.566211943
     0.361028122  0.012916308  0.560512622
     0.277003132  0.622017286  0.558328653
     0.869479627  0.032621876  0.566606614
     0.061788657  0.227843761  0.582782579
     0.027689490  0.691981687  0.585042064
     0.571630307  0.250602263  0.573263524
     0.471614609  0.712543911  0.586234625
     0.271612394  0.435989491  0.580048695
     0.166604206  0.029042102  0.573510583
     0.674528476  0.013877889  0.577653196
     0.378679184  0.289979978  0.562274449
     0.482283234  0.867795872  0.549388266
     0.880853697  0.249881944  0.556293394
     0.974844652  0.867647088  0.561388224
     0.200974286  0.410811692  0.562180375
     0.141969748  0.964498564  0.553901498
     0.672359888  0.928762772  0.563225872
     0.443828996  0.192276694  0.546795157
     0.515409708  0.743747036  0.541017512
     0.997061436  0.248394158  0.538822981
     0.064504998  0.790589264  0.547871422
     0.198447756  0.528217574  0.546073150
     0.266773995  0.946187360  0.543710494
     0.792986239  0.933910014  0.554116140
     0.462509857  0.310049494  0.675654487
     0.431079804  0.810151340  0.672826346
     0.959140402  0.279141296  0.679152440
     0.929250218  0.779751743  0.674271215
     0.304384513  0.056140114  0.674089416
     0.295482967  0.539298650  0.677849506
     0.790087826  0.051309999  0.676503656
     0.846681138  0.503664477  0.668070268
     0.088256172  0.176494840  0.645145578
     0.095759448  0.690800813  0.653492218
     0.574721274  0.166473836  0.649611803
     0.575483787  0.679228771  0.655601954
     0.173848166  0.416820862  0.646577077
     0.175929568  0.922323815  0.649969052
     0.648892187  0.476269967  0.658280102
     0.672148650  0.917817874  0.647952047
     0.066161599  0.183623850  0.672090420
     0.037939999  0.687547894  0.675513590
     0.565935128  0.210077294  0.674228421
     0.533917887  0.710428465  0.678880047
     0.197294857  0.434036240  0.673077251
     0.201101487  0.954580281  0.674946399
     0.720432788  0.443041997  0.674402772
     0.691221831  0.946171227  0.673866776
     0.415402582  0.321036088  0.651637293
     0.418531438  0.832259058  0.645866669
     0.924870649  0.320824660  0.656429512
     0.927058656  0.835067579  0.651177240
     0.332793559  0.078335278  0.648348244
     0.323831256  0.579986672  0.653871749
     0.826502723  0.076470774  0.651840215
     0.851922567  0.562959201  0.645818014
     0.001703974  0.262205562  0.633622582
     0.032197618  0.782508417  0.636678674
     0.480612953  0.232810071  0.633438524
     0.508568994  0.752419534  0.633334133
     0.253320567  0.995986716  0.631412057
     0.250779131  0.507268237  0.632755892
     0.754287468  0.995557153  0.632179361
     0.724819568  0.551886520  0.638311935
     0.448745018  0.301283966  0.768889017
     0.448745007  0.801283913  0.768889017
     0.948744965  0.301283966  0.768889017
     0.948745007  0.801283913  0.768889017
     0.301275995  0.051294496  0.768872961
     0.301276011  0.551294499  0.768872961
     0.801275943  0.051294496  0.768872961
     0.801275984  0.551294499  0.768872961
     0.078771004  0.171180501  0.743441971
     0.078771006  0.671180448  0.743441971
     0.578771004  0.171180501  0.743441971
     0.578770992  0.671180448  0.743441971
     0.171199499  0.421174482  0.743421032
     0.171199501  0.921174508  0.743421032
     0.671199512  0.421174482  0.743421032
     0.671199501  0.921174508  0.743421032
     0.051256000  0.198714991  0.768889017
     0.051256002  0.698714925  0.768889017
     0.551256027  0.198714991  0.768889017
     0.551256016  0.698714925  0.768889017
     0.198723491  0.448703970  0.768872046
     0.198723493  0.948703970  0.768872046
     0.698723518  0.448703970  0.768872046
     0.698723507  0.948703970  0.768872046
     0.421231519  0.328817467  0.743441971
     0.421231508  0.828817440  0.743441971
     0.921231466  0.328817467  0.743441971
     0.921231508  0.828817440  0.743441971
     0.328800503  0.078824997  0.743421032
     0.328800492  0.578824964  0.743421032
     0.828800477  0.078824997  0.743421032
     0.828800519  0.578824964  0.743421032
     0.000003500  0.250001478  0.725821992
     0.000003500  0.750001452  0.725821992
     0.500003506  0.250001478  0.725821992
     0.500003495  0.750001452  0.725821992
     0.250000502  0.000000000  0.725803983
     0.250000517  0.500000000  0.725803983
     0.750000502  0.000000000  0.725803983
     0.750000490  0.500000000  0.725803983
     0.717261386  0.438506700  0.542011119
     0.736553317  0.497049876  0.520525926
     0.653672367  0.549685014  0.561637664
     0.701243816  0.635363278  0.559882430
     0.842637120  0.504614255  0.572737418
     0.778082698  0.569270850  0.582511346
     0.865179776  0.557653507  0.533993158
     0.792615637  0.623864308  0.527835005
     0.866776127  0.467476087  0.519506679
     0.863976114  0.430055795  0.545241013
     0.874729847  0.332823704  0.519583049
     0.786353039  0.323946509  0.531226003
     0.636372041  0.547999606  0.521358245
     0.691019050  0.631511580  0.519224579
     0.605641282  0.632756022  0.532820133
     0.753288900  0.447709736  0.598861357
     0.742794338  0.404218473  0.573554415
     0.678590639  0.471793355  0.582407199
     0.826552526  0.684929234  0.564178883
     0.891552242  0.687362627  0.543434499
     0.906009450  0.622674142  0.564915602
     0.820058437  0.390828896  0.487186341
     0.785406342  0.299969620  0.492020407
     0.662709090  0.320228336  0.522759710
     0.733706489  0.462813364  0.471488957
     0.538170334  0.377200542  0.521300189
     0.609070463  0.520348604  0.470055595
     0.509098485  0.477203166  0.494761129
     0.994597143  0.244306850  0.556231065
     0.032815383  0.773180066  0.561988442
     0.472487413  0.229812719  0.557738752
     0.494312406  0.759398915  0.557064301
     0.237461119  0.516259264  0.559174525
     0.252920265  0.986879068  0.556180579
     0.770271950  0.979672667  0.563791049
     0.006273601  0.249039135  0.650335458
     0.011748043  0.763433927  0.651950039
     0.494805635  0.244007223  0.649947258
     0.496884294  0.756435116  0.650249259
     0.248949265  0.498887077  0.649825530
     0.254938816  0.000755311  0.648653420
     0.750124923  0.519683723  0.651092995
     0.750036412  0.997689147  0.649408454
     0.499988984  0.249994984  0.743277021
     0.499989025  0.749994958  0.743277021
     0.999988984  0.249994984  0.743277021
     0.999989025  0.749994958  0.743277021
     0.250000502  0.000001000  0.743255960
     0.250000517  0.500001003  0.743255960
     0.750000502  0.000001000  0.743255960
     0.750000491  0.500001003  0.743255960
     0.707154347  0.388225389  0.497336229
     0.649836978  0.363343363  0.511010839
     0.689993073  0.444006136  0.482620547
     0.580299501  0.395485707  0.510128521
     0.619357856  0.475540778  0.481619035
     0.565347749  0.451305893  0.495309181
     0.759288191  0.474911007  0.535094757
     0.690268104  0.582552851  0.551384148
     0.783824044  0.518724758  0.572872516
     0.822658227  0.594244850  0.540657882
     0.831354089  0.435699552  0.530440628
     0.819773739  0.359099536  0.520621037
     0.654745198  0.598232502  0.529741880
     0.736661430  0.457003399  0.582159225
     0.863400907  0.649472250  0.554741509
     0.785141750  0.357581444  0.498426016
     0.057191792  0.233662622  0.566452042
     0.052787520  0.711283260  0.571303049
     0.542185246  0.216446756  0.562755930
     0.491857455  0.705658245  0.571163190
     0.434689238  0.287405800  0.565198191
     0.474847118  0.827646070  0.560309029
     0.929329322  0.250131889  0.564847779
     0.977851249  0.815546632  0.568117903
     0.236590971  0.449855540  0.567733427
     0.182889710  0.993242942  0.561797364
     0.699384416  0.976422295  0.567704551
     0.307021796  0.024088470  0.564936114
     0.281103990  0.570354892  0.565529617
     0.813744886  0.032947449  0.570772426
     0.056802459  0.200121403  0.656581336
     0.050889240  0.709879474  0.661120452
     0.549103715  0.204386124  0.658730814
     0.537717359  0.713113809  0.662449637
     0.204890777  0.447017189  0.657037482
     0.207659448  0.956320428  0.658559454
     0.704975074  0.475214066  0.661587831
     0.701434691  0.950897981  0.657603391
     0.456054604  0.294273566  0.659703116
     0.446613759  0.801897159  0.656875890
     0.960688425  0.284455649  0.663090329
     0.952551877  0.794685573  0.660070377
     0.299308501  0.047195886  0.657662791
     0.291545233  0.540795571  0.661383505
     0.790450972  0.044001404  0.660001454
     0.819997497  0.528472904  0.655229687
     0.045862501  0.204119496  0.752725994
     0.045862500  0.704119456  0.752725994
     0.545862507  0.204119496  0.752725994
     0.545862496  0.704119456  0.752725994
     0.204119002  0.454101003  0.752704994
     0.204118991  0.954100951  0.752704994
     0.704118976  0.454101003  0.752704994
     0.704118964  0.954100951  0.752704994
     0.454140018  0.295888490  0.752726971
     0.454140007  0.795888516  0.752726971
     0.954140018  0.295888490  0.752726971
     0.954140060  0.795888516  0.752726971
     0.295882492  0.045900498  0.752704994
     0.295882481  0.545900528  0.752704994
     0.795882439  0.045900498  0.752704994
     0.795882481  0.545900528  0.752704994
     0.764887258  0.541768579  0.550267043
     0.501081436  0.017523026  0.552524574
     0.482425933  0.515199297  0.555637807
     0.994050343  0.004045408  0.552487091
     0.034791373  0.504589176  0.553467329
     0.245847900  0.246340459  0.552506504
     0.251472021  0.762920363  0.552192965
     0.744251101  0.213113664  0.557242254
     0.707359818  0.791173470  0.548839877
     0.007158551  0.998152690  0.654979515
     0.012622420  0.490170863  0.655410204
     0.500782987  0.003743380  0.654603829
     0.506563252  0.493190205  0.655570575
     0.253880050  0.245049635  0.654689418
     0.248128629  0.754762907  0.654644548
     0.744278419  0.256614232  0.655924284
     0.748182976  0.750443158  0.653272569
     0.141098357  0.110837412  0.607108184
     0.143418448  0.611202574  0.611164171
     0.645855704  0.108211822  0.609692442
     0.621209299  0.628683947  0.614706140
     0.358052558  0.394084640  0.610709369
     0.370506094  0.884739553  0.607641738
     0.884548161  0.370520762  0.613344783
     0.865050924  0.882958528  0.610163178
     0.114597330  0.357090716  0.609286416
     0.122164532  0.875712360  0.608982888
     0.586890951  0.342298542  0.605454411
     0.612060570  0.862757282  0.610562611
     0.384688683  0.133145880  0.607750647
     0.380832035  0.633930032  0.613510100
     0.889176904  0.142058845  0.613462300
     0.913195912  0.651390021  0.617260911
     0.000000000  0.000000000  0.754927972
     0.000000000  0.500000000  0.754927972
     0.500000000  0.000000000  0.754927972
     0.499999989  0.500000000  0.754927972
     0.250000496  0.250000000  0.754939022
     0.250000511  0.749999974  0.754939022
     0.750000470  0.250000000  0.754939022
     0.750000458  0.749999974  0.754939022
     0.135790500  0.114209997  0.704782994
     0.135790502  0.614209984  0.704782994
     0.635790447  0.114209997  0.704782994
     0.635790488  0.614209984  0.704782994
     0.364209516  0.385789989  0.704782994
     0.364209505  0.885789963  0.704782994
     0.864209542  0.385789989  0.704782994
     0.864209531  0.885789963  0.704782994
     0.114217990  0.364218986  0.704780979
     0.114217992  0.864218986  0.704780979
     0.614218004  0.364218986  0.704780979
     0.614217992  0.864218986  0.704780979
     0.385782012  0.135781489  0.704782017
     0.385782001  0.635781489  0.704782017
     0.885781985  0.135781489  0.704782017
     0.885782027  0.635781489  0.704782017
     0.134667000  0.115332001  0.801256025
     0.134666989  0.615331988  0.801256025
     0.634666987  0.115332001  0.801256025
     0.634666976  0.615331988  0.801256025
     0.365333002  0.384667985  0.801256025
     0.365332990  0.884667959  0.801256025
     0.865332949  0.384667985  0.801256025
     0.865332938  0.884667959  0.801256025
     0.115328503  0.365337004  0.801264999
     0.115328505  0.865336978  0.801264999
     0.615328503  0.365337004  0.801264999
     0.615328492  0.865336978  0.801264999
     0.384671513  0.134662996  0.801264999
     0.384671501  0.634662970  0.801264999
     0.884671486  0.134662996  0.801264999
     0.884671528  0.634662970  0.801264999
     0.993657114  0.005138795  0.605708002
     0.006100376  0.506666396  0.604235112
     0.503634635  0.007592998  0.604325829
     0.498646222  0.502948277  0.604789911
     0.248684138  0.253130481  0.604646205
     0.246752205  0.756625821  0.603811627
     0.746099635  0.259600285  0.606244669
     0.739227649  0.756634586  0.602051448
     0.000000500  0.000000500  0.704828963
     0.000000500  0.500000475  0.704828963
     0.500000475  0.000000500  0.704828963
     0.500000464  0.500000475  0.704828963
     0.249999994  0.249999472  0.704824995
     0.250000010  0.749999498  0.704824995
     0.749999994  0.249999472  0.704824995
     0.749999983  0.749999498  0.704824995
     0.000000000  0.000000000  0.807317968
     0.000000000  0.500000000  0.807317968
     0.500000000  0.000000000  0.807317968
     0.499999989  0.500000000  0.807317968
     0.249999994  0.250000000  0.807317968
     0.250000010  0.749999974  0.807317968
     0.749999994  0.250000000  0.807317968
     0.749999983  0.749999974  0.807317968

  ion indices of the primitive-cell ions
   primitive index   ion index
                 1           1
                 2           2
                 3           3
                 4           4
                 5           5
                 6           6
                 7           7
                 8           8
                 9           9
                10          10
                11          11
                12          12
                13          13
                14          14
                15          15
                16          16
                17          17
                18          18
                19          19
                20          20
                21          21
                22          22
                23          23
                24          24
                25          25
                26          26
                27          27
                28          28
                29          29
                30          30
                31          31
                32          32
                33          33
                34          34
                35          35
                36          36
                37          37
                38          38
                39          39
                40          40
                41          41
                42          42
                43          43
                44          44
                45          45
                46          46
                47          47
                48          48
                49          49
                50          50
                51          51
                52          52
                53          53
                54          54
                55          55
                56          56
                57          57
                58          58
                59          59
                60          60
                61          61
                62          62
                63          63
                64          64
                65          65
                66          66
                67          67
                68          68
                69          69
                70          70
                71          71
                72          72
                73          73
                74          74
                75          75
                76          76
                77          77
                78          78
                79          79
                80          80
                81          81
                82          82
                83          83
                84          84
                85          85
                86          86
                87          87
                88          88
                89          89
                90          90
                91          91
                92          92
                93          93
                94          94
                95          95
                96          96
                97          97
                98          98
                99          99
               100         100
               101         101
               102         102
               103         103
               104         104
               105         105
               106         106
               107         107
               108         108
               109         109
               110         110
               111         111
               112         112
               113         113
               114         114
               115         115
               116         116
               117         117
               118         118
               119         119
               120         120
               121         121
               122         122
               123         123
               124         124
               125         125
               126         126
               127         127
               128         128
               129         129
               130         130
               131         131
               132         132
               133         133
               134         134
               135         135
               136         136
               137         137
               138         138
               139         139
               140         140
               141         141
               142         142
               143         143
               144         144
               145         145
               146         146
               147         147
               148         148
               149         149
               150         150
               151         151
               152         152
               153         153
               154         154
               155         155
               156         156
               157         157
               158         158
               159         159
               160         160
               161         161
               162         162
               163         163
               164         164
               165         165
               166         166
               167         167
               168         168
               169         169
               170         170
               171         171
               172         172
               173         173
               174         174
               175         175
               176         176
               177         177
               178         178
               179         179
               180         180
               181         181
               182         182
               183         183
               184         184
               185         185
               186         186
               187         187
               188         188
               189         189
               190         190
               191         191
               192         192
               193         193
               194         194
               195         195
               196         196
               197         197
               198         198
               199         199
               200         200
               201         201
               202         202
               203         203
               204         204
               205         205
               206         206
               207         207
               208         208
               209         209
               210         210
               211         211
               212         212
               213         213
               214         214
               215         215
               216         216
               217         217
               218         218
               219         219
               220         220
               221         221
               222         222
               223         223
               224         224
               225         225
               226         226
               227         227
               228         228
               229         229
               230         230
               231         231
               232         232
               233         233
               234         234
               235         235
               236         236
               237         237
               238         238
               239         239
               240         240
               241         241
               242         242
               243         243
               244         244
               245         245
               246         246
               247         247
               248         248
               249         249
               250         250
               251         251
               252         252
               253         253
               254         254
               255         255
               256         256
               257         257
               258         258
               259         259
               260         260
               261         261
               262         262
               263         263
               264         264
               265         265
               266         266
               267         267
               268         268
               269         269
               270         270
               271         271
               272         272
               273         273
               274         274
               275         275
               276         276
               277         277
               278         278
               279         279
               280         280
               281         281
               282         282
               283         283
               284         284
               285         285
               286         286
               287         287
               288         288
               289         289
               290         290
               291         291
               292         292
               293         293
               294         294
               295         295
               296         296
               297         297
               298         298
               299         299
               300         300
               301         301
               302         302
               303         303
               304         304
               305         305
               306         306
               307         307
               308         308
               309         309
               310         310
               311         311
               312         312
               313         313
               314         314
               315         315
               316         316
               317         317
               318         318
               319         319
               320         320
               321         321
               322         322
               323         323
               324         324
               325         325

----------------------------------------------------------------------------------------

 
 
 KPOINTS: Automatic Mesh                          

Automatic generation of k-mesh.
 Grid dimensions read from file:
 generate k-points for:    3    3    1

 Generating k-lattice:

  Cartesian coordinates                     Fractional coordinates (reciprocal lattice)
     0.018456177  0.000005026 -0.000000000     0.333333333  0.000000000  0.000000000
     0.000000000  0.018454135  0.000000000     0.000000000  0.333333333  0.000000000
     0.000000000 -0.000000000  0.016003201     0.000000000  0.000000000  1.000000000

  Length of vectors
     0.018456178  0.018454135  0.016003201

  Shift w.r.t. Gamma in fractional coordinates (k-lattice)
     0.000000000  0.000000000  0.000000000

 
 Subroutine IBZKPT returns following result:
 ===========================================
 
 Found      5 irreducible k-points:
 
 Following reciprocal coordinates:
            Coordinates               Weight
  0.000000  0.000000  0.000000      1.000000
  0.333333  0.000000  0.000000      2.000000
  0.000000  0.333333  0.000000      2.000000
  0.333333  0.333333  0.000000      2.000000
 -0.333333  0.333333  0.000000      2.000000
 
 Following cartesian coordinates:
            Coordinates               Weight
  0.000000  0.000000  0.000000      1.000000
  0.018456  0.000005  0.000000      2.000000
  0.000000  0.018454  0.000000      2.000000
  0.018456  0.018459  0.000000      2.000000
 -0.018456  0.018449  0.000000      2.000000
 


--------------------------------------------------------------------------------------------------------




 Dimension of arrays:
   k-points           NKPTS =      5   k-points in BZ     NKDIM =      5   number of bands    NBANDS=    732
   number of dos      NEDOS =    301   number of ions     NIONS =    325
   non local maximal  LDIM  =      5   non local SUM 2l+1 LMDIM =     13
   total plane-waves  NPLWV = ******
   max r-space proj   IRMAX =   3336   max aug-charges    IRDMAX=  19845
   dimension x,y,z NGX =   100 NGY =  100 NGZ =  350
   dimension x,y,z NGXF=   200 NGYF=  200 NGZF=  700
   support grid    NGXF=   200 NGYF=  200 NGZF=  700
   ions per type =             143  39  47  72  24
   NGX,Y,Z   is equivalent  to a cutoff of   9.20,  9.20,  9.31 a.u.
   NGXF,Y,Z  is equivalent  to a cutoff of  18.41, 18.41, 18.62 a.u.

 SYSTEM =  PSC                                     
 POSCAR =   H  C  N  I Pb                          

 Startparameter for this run:
   NWRITE =      2    write-flag & timer
   PREC   = normal    normal or accurate (medium, high low for compatibility)
   ISTART =      0    job   : 0-new  1-cont  2-samecut
   ICHARG =      1    charge: 1-file 2-atom 10-const
   ISPIN  =      1    spin polarized calculation?
   LNONCOLLINEAR =      F non collinear calculations
   LSORBIT =      F    spin-orbit coupling
   INIWAV =      1    electr: 0-lowe 1-rand  2-diag
   LASPH  =      F    aspherical Exc in radial PAW
 Electronic Relaxation 1
   ENCUT  =  500.0 eV  36.75 Ry    6.06 a.u.  32.93 32.93113.93*2*pi/ulx,y,z
   ENINI  =  500.0     initial cutoff
   ENAUG  =  644.9 eV  augmentation charge cutoff
   NELM   =    600;   NELMIN=  2; NELMDL=  0     # of ELM steps 
   EDIFF  = 0.1E-03   stopping-criterion for ELM
   LREAL  =      T    real-space projection
   NLSPLINE    = F    spline interpolate recip. space projectors
   LCOMPAT=      F    compatible to vasp.4.4
   GGA_COMPAT  = F    GGA compatible to vasp.4.4-vasp.4.6
   LMAXPAW     = -100 max onsite density
   LMAXMIX     =    2 max onsite mixed and CHGCAR
   VOSKOWN=      0    Vosko Wilk Nusair interpolation
   ROPT   =   -0.00050  -0.00050  -0.00050  -0.00050
   ROPT   =   -0.00050
 Ionic relaxation
   EDIFFG = 0.1E-02   stopping-criterion for IOM
   NSW    =      0    number of steps for IOM
   NBLOCK =      1;   KBLOCK =      1    inner block; outer block 
   IBRION =     -1    ionic relax: 0-MD 1-quasi-New 2-CG
   NFREE  =      0    steps in history (QN), initial steepest desc. (CG)
   ISIF   =      2    stress and relaxation
   IWAVPR =     10    prediction:  0-non 1-charg 2-wave 3-comb
   ISYM   =      0    0-nonsym 1-usesym 2-fastsym
   LCORR  =      T    Harris-Foulkes like correction to forces

   POTIM  = 0.5000    time-step for ionic-motion
   TEIN   =    0.0    initial temperature
   TEBEG  =    0.0;   TEEND  =   0.0 temperature during run
   SMASS  =  -3.00    Nose mass-parameter (am)
   estimated Nose-frequenzy (Omega)   =  0.10E-29 period in steps = 0.13E+47 mass=  -0.745E-26a.u.
   SCALEE = 1.0000    scale energy and forces
   NPACO  =    256;   APACO  = 16.0  distance and # of slots for P.C.
   PSTRESS=    0.0 pullay stress

  Mass of Ions in am
   POMASS =   1.00 12.01 14.00126.90207.20
  Ionic Valenz
   ZVAL   =   1.00  4.00  5.00  7.00  4.00
  Atomic Wigner-Seitz radii
   RWIGS  =  -1.00 -1.00 -1.00 -1.00 -1.00
  virtual crystal weights 
   VCA    =   1.00  1.00  1.00  1.00  1.00
   NELECT =    1134.0000    total number of electrons
   NUPDOWN=      -1.0000    fix difference up-down

 DOS related values:
   EMIN   =  10.00;   EMAX   =-10.00  energy-range for DOS
   EFERMI =   0.00
   ISMEAR =     0;   SIGMA  =   0.05  broadening in eV -4-tet -1-fermi 0-gaus

 Electronic relaxation 2 (details)
   IALGO  =     38    algorithm
   LDIAG  =      T    sub-space diagonalisation (order eigenvalues)
   LSUBROT=      F    optimize rotation matrix (better conditioning)
   TURBO    =      0    0=normal 1=particle mesh
   IRESTART =      0    0=no restart 2=restart with 2 vectors
   NREBOOT  =      0    no. of reboots
   NMIN     =      0    reboot dimension
   EREF     =   0.00    reference energy to select bands
   IMIX   =      4    mixing-type and parameters
     AMIX     =   0.40;   BMIX     =  0.01
     AMIX_MAG =   1.60;   BMIX_MAG =  0.01
     AMIN     =   0.01
     WC   =   100.;   INIMIX=   1;  MIXPRE=   1;  MAXMIX= -45

 Intra band minimization:
   WEIMIN = 0.0000     energy-eigenvalue tresh-hold
   EBREAK =  0.34E-07  absolut break condition
   DEPER  =   0.30     relativ break condition  

   TIME   =   0.40     timestep for ELM

  volume/ion in A,a.u.               =      62.72       423.28
  Fermi-wavevector in a.u.,A,eV,Ry     =   0.624944  1.180972  5.313816  0.390554
  Thomas-Fermi vector in A             =   1.685677
 
 Write flags
   LWAVE        =      F    write WAVECAR
   LDOWNSAMPLE  =      F    k-point downsampling of WAVECAR
   LCHARG       =      T    write CHGCAR
   LVTOT        =      T    write LOCPOT, total local potential
   LVHAR        =      F    write LOCPOT, Hartree potential only
   LELF         =      F    write electronic localiz. function (ELF)
   LORBIT       =      0    0 simple, 1 ext, 2 COOP (PROOUT), +10 PAW based schemes


 Dipole corrections
   LMONO  =      F    monopole corrections only (constant potential shift)
   LDIPOL =      T    correct potential (dipole corrections)
   IDIPOL =      3    1-x, 2-y, 3-z, 4-all directions 
   EPSILON=  1.0000000 bulk dielectric constant

 Exchange correlation treatment:
   GGA     =    --    GGA type
   LEXCH   =     8    internal setting for exchange type
   VOSKOWN=      0    Vosko Wilk Nusair interpolation
   LHFCALC =     F    Hartree Fock is set to
   LHFONE  =     F    Hartree Fock one center treatment
   AEXX    =    0.0000 exact exchange contribution

 Linear response parameters
   LEPSILON=     F    determine dielectric tensor
   LRPA    =     F    only Hartree local field effects (RPA)
   LNABLA  =     F    use nabla operator in PAW spheres
   LVEL    =     F    velocity operator in full k-point grid
   LINTERFAST=   F  fast interpolation
   KINTER  =     0    interpolate to denser k-point grid
   CSHIFT  =0.1000    complex shift for real part using Kramers Kronig
   OMEGAMAX=  -1.0    maximum frequency
   DEG_THRESHOLD= 0.2000000E-02 threshold for treating states as degnerate
   RTIME   =   -0.100 relaxation time in fs
  (WPLASMAI=    0.000 imaginary part of plasma frequency in eV, 0.658/RTIME)
   DFIELD  = 0.0000000 0.0000000 0.0000000 field for delta impulse in time
 
 Orbital magnetization related:
   ORBITALMAG=     F  switch on orbital magnetization
   LCHIMAG   =     F  perturbation theory with respect to B field
   DQ        =  0.001000  dq finite difference perturbation B field
   LLRAUG    =     F  two centre corrections for induced B field



--------------------------------------------------------------------------------------------------------


 Static calculation
 charge density and potential will be updated during run
 non-spin polarized calculation
 Variant of blocked Davidson
 Davidson routine will perform the subspace rotation
 perform sub-space diagonalisation
    after iterative eigenvector-optimisation
 modified Broyden-mixing scheme, WC =      100.0
 initial mixing is a Kerker type mixing with AMIX =  0.4000 and BMIX =      0.0100
 Hartree-type preconditioning will be used
 using additional bands           165
 real space projection scheme for non local part
[...]
     13.54561      0.00000     45.35368        -0.000608     -0.007039      0.012993
     13.54315      9.03140     45.35368        -0.004513      0.009528      0.003670
     12.95216      7.92066     33.86892         0.022301     -0.066271      0.036876
     13.30030      8.97811     32.52636        -0.255457      0.204945     -0.446014
     11.80314      9.92885     35.09533        -0.049564     -0.079408     -0.159073
     12.66190     11.47644     34.98565         0.063406     -0.289975     -0.200112
     15.21622      9.11475     35.78893         0.180795     -0.162785      0.068142
     14.05000     10.28263     36.39968         0.038162     -0.028392      0.034142
     15.62310     10.07278     33.36790        -0.087776      0.183510     -0.175516
     14.31220     11.26874     32.98309         0.299009     -0.268736      0.148570
     15.65237      8.44393     32.46267        -0.054896      0.107222     -0.056405
     15.60198      7.76801     34.07075         0.028356     -0.124354     -0.002791
     15.79668      6.01173     32.46745        -0.008847     -0.057312      0.015581
     14.20057      5.85138     33.19498         0.069915      0.064444      0.130078
     11.49069      9.89841     32.57837        -0.023234      0.150942      0.102383
     12.47725     11.40687     32.44505        -0.176567     -0.156132      0.114516
     10.93525     11.42935     33.29460         0.078528     -0.126966     -0.023858
     13.60280      8.08689     37.42135         0.059253      0.081241     -0.140343
     13.41347      7.30132     35.83998         0.040881      0.058683      0.070589
     12.25357      8.52191     36.39317        -0.463101      0.024594     -0.004390
     14.92483     12.37174     35.25413        -0.009340     -0.049782      0.088924
     16.09877     12.41569     33.95786        -0.020947     -0.189779      0.202684
     16.36019     11.24724     35.30016        -0.365948      0.210101     -0.187043
     14.80899      7.05946     30.44306        -0.227423     -0.297839      0.249651
     14.18359      5.41829     30.74512         0.029464      0.302489      0.246787
     11.96748      5.78422     32.66595        -0.149522      0.013267     -0.028211
     13.24905      8.35970     29.46217        -0.286150     -0.047722      0.273612
      9.71793      6.81330     32.57475        -0.242740     -0.003593      0.084403
     10.99774      9.39895     29.37260        -0.048744     -0.263020      0.196744
      9.19238      8.61963     30.91639         0.741455     -0.384945      0.099352
     17.96202      4.41287     34.75749         0.527319     -0.091375     -0.487862
      0.58887     13.96580     35.11725         0.223399     -0.189304     -0.143811
      8.53237      4.15106     34.85170         0.111660      0.692966      0.568843
      8.92394     13.71687     34.80956         0.496299     -0.940210     -0.814487
      4.28620      9.32509     34.94142         0.040601      0.294828     -0.027494
      4.56309     17.82580     34.75433        -0.446658     -0.336570     -0.035895
     13.90691     17.69563     35.22989         0.505993      0.115595      0.009129
      0.11208      4.49834     40.63784         0.510273     -0.617691      1.160455
      0.20842     13.78975     40.73873         0.344633     -0.863349      0.801781
      8.93539      4.40745     40.61358         1.047746     -0.865894      0.532456
      8.97041     13.66334     40.63245         0.896236     -0.881550      0.365114
      4.49377      9.01130     40.60597        -0.366746     -0.589580      0.054272
      4.60440      0.01364     40.53273        -1.439994     -1.302811      0.135218
     13.54530      9.38694     40.68517        -0.784480     -0.381490      0.386819
     13.54135     18.02106     40.57991        -1.309750     -1.287964      0.000037
      9.02897      4.51561     46.44552         0.012403      0.002974      0.037407
      9.02651     13.54701     46.44552         0.027750     -0.012970      0.051584
     18.05937      4.51561     46.44552         0.015644      0.000818      0.049690
     18.05691     13.54701     46.44552         0.022295     -0.003983      0.024470
      4.51521      0.00002     46.44421        -0.008394     -0.010011      0.063232
      4.51275      9.03142     46.44421        -0.000223      0.001738      0.052448
     13.54561      0.00002     46.44421        -0.002436     -0.003787      0.046327
     13.54315      9.03142     46.44421        -0.006701     -0.001102      0.030301
     12.76986      7.01244     31.07730        -0.323683     -0.131131     -0.066417
     11.73479      6.56300     31.93179         0.827705     -0.046507     -0.157826
     12.45964      8.01999     30.15775         0.492443      0.074082     -0.378840
     10.47873      7.14358     31.87666        -0.070839     -0.169529      0.055757
     11.18376      8.58960     30.09517         0.797517      0.471285     -0.831297
     10.20841      8.15185     30.95063        -1.796178      0.333348      0.443558
     13.71102      8.57822     33.43673        -0.147752      0.559420      0.513007
     12.46393     10.52254     34.45462         0.080620      0.208318     -0.192449
     14.15394      9.36962     35.79737         0.312838      0.121155      0.132282
     14.85494     10.73373     33.78436         0.187053      0.038736     -0.175066
     15.01278      7.86995     33.14591         0.274597     -0.286443      0.277783
     14.80400      6.48634     32.53231         0.123919     -0.272946      0.113126
     11.82228     10.80575     33.10225         0.064925      0.150862      0.115875
     13.30245      8.25476     36.37767         0.282134      0.087233     -0.190488
     15.59052     11.73129     34.66441         0.031770     -0.084653      0.128924
     14.17853      6.45892     31.14540         0.030800      0.212122     -0.778315
      1.03178      4.22060     35.39617         0.669316      0.017628     -0.160718
      0.94989     12.84777     35.69930        -0.036066     -0.344535      0.093459
      9.79123      3.90963     35.16521         0.068465      0.314572     -0.004654
      8.87987     12.74616     35.69056        -0.112339      0.224079     -0.024242
      7.84942      5.19135     35.31782         0.502993     -0.008477      0.291359
      8.57205     14.94960     35.01231        -0.715220      0.465031      1.233872
     16.78320      4.51808     35.29593        -0.262633      0.074221      0.462128
     17.65676     14.73106     35.50027         0.517356      0.273308     -0.924580
      4.27081      8.12565     35.47624         0.029595      0.152326     -0.185051
      3.29825     17.94075     35.10531         0.109938     -0.432958     -0.706210
     12.62664     17.63692     35.47444        -0.388700     -0.343794     -0.038773
      5.54494      0.43511     35.30145         0.463079     -0.112141     -0.197570
      5.07416     10.30221     35.33853        -0.389874      0.257593     -0.666719
     14.69672      0.59512     35.66614         0.565909     -0.604684     -0.633286
      1.02491      3.61475     41.02813        -0.835928      0.731096     -0.097385
      0.91561     12.82241     41.31176        -1.098446      0.977075     -0.204778
      9.91625      3.69179     41.16244        -1.074349      0.969544     -0.236769
      9.70810     12.88083     41.39482        -0.301908      0.158554      0.664300
      3.69829      8.07438     41.05663        -0.182907     -0.317105      0.688328
      3.74579     17.27382     41.15173         0.894156      0.966266      1.002709
     12.73008      8.58370     41.34097        -0.189199     -0.130852      0.136656
     12.66379     17.17588     41.09199         0.705084      0.851107      1.219852
      8.23526      5.31540     41.22320        -0.203402      0.703336      1.206920
      8.06226     14.48451     41.04653        -0.844720      0.671185      1.024275
     17.34940      5.13807     41.43486         0.152387     -0.101955     -0.343282
     17.19994     14.35425     41.24615         0.066281      0.229111     -0.419394
      5.40552      0.85249     41.09570         0.653983      0.710708      1.286749
      5.26288      9.76828     41.32820         0.873499      0.945373      0.736379
     14.27596      0.79479     41.24184         0.662007      0.784719      1.214088
     14.80721      9.54570     40.94366         1.161928      0.062321      0.443598
      0.82731      3.68697     47.03596         0.017637     -0.021543     -0.098463
      0.82485     12.71837     47.03596         0.016673     -0.017870     -0.076322
      9.85771      3.68697     47.03596         0.018642     -0.025297     -0.091109
      9.85525     12.71837     47.03596         0.008293     -0.006839     -0.082526
      3.68432      8.20234     47.03465        -0.008659     -0.013928     -0.072836
      3.68186     17.23373     47.03465        -0.002699     -0.000799     -0.073072
     12.71472      8.20234     47.03465        -0.008150     -0.014517     -0.070657
     12.71226     17.23373     47.03465        -0.010734     -0.009218     -0.071387
      8.20068      5.34457     47.03603        -0.023852      0.016052     -0.094325
      8.19822     14.37597     47.03603        -0.027969      0.028261     -0.091214
     17.23108      5.34457     47.03603        -0.024564      0.020677     -0.109656
     17.22862     14.37597     47.03603        -0.026157      0.024680     -0.078338
      5.34365      0.82909     47.03465         0.012841      0.012850     -0.069235
      5.34119      9.86049     47.03465         0.010449      0.009287     -0.074158
     14.37405      0.82909     47.03465         0.013994      0.012713     -0.074034
     14.37159      9.86049     47.03465         0.015097      0.013646     -0.068507
     13.81181      9.78586     34.38481        -0.243398      0.195455     -0.163133
      9.04985      0.31651     34.52588         0.003564      0.012587     -0.021646
      8.71046      9.30594     34.72042        -0.004637     -0.063266     -0.017221
     17.95333      0.07307     34.52354         0.004437     -0.007468     -0.006224
      0.62588      9.11429     34.58479        -0.162238      0.019040      0.108114
      4.43900      4.44960     34.52475         0.028145      0.010983      0.042507
      4.53803     13.78048     34.50516        -0.049437     -0.018611      0.073512
     13.44072      3.84943     34.82067        -0.185591     -0.008948      0.003908
     12.77159     14.29081     34.29563        -0.038856      0.032940      0.319546
      0.12438     18.02943     40.92803        -0.062893     -0.004784     -0.031189
      0.22556      8.85386     40.95494        -0.002693      0.020793      0.023741
      9.04452      0.06762     40.90456        -0.011183     -0.020776      0.011963
      9.14651      8.90840     40.96497        -0.041490     -0.009412     -0.029974
      4.58407      4.42628     40.90990         0.044799      0.011899      0.012515
      4.47769     13.63313     40.90710         0.028400     -0.015012      0.018068
     13.44100      4.63517     40.98707         0.019552      0.015787     -0.069477
     13.50909     13.55510     40.82137         0.044453     -0.036875      0.051119
      2.54780      2.00203     37.93667        -0.036979      0.047872      0.010926
      2.58725     11.04003     38.19012         0.107225      0.033643     -0.005431
     11.66414      1.95461     38.09816        -0.017671      0.045754      0.032894
     11.21644     11.35579     38.41145         0.079837     -0.085524     -0.324726
      6.46478      7.11827     38.16170        -0.006402     -0.078741     -0.053155
      6.68728     15.98087     37.97001         0.036199     -0.018543     -0.076918
     15.97383      6.69264     38.32638         0.002111     -0.002579     -0.120057
     15.61917     15.94870     38.12757         0.006756      0.027244      0.026052
      2.06796      6.45006     38.07278        -0.026035      0.094980     -0.012897
      2.20208     15.81782     38.05382        -0.044706      0.018502     -0.050220
     10.59804      6.18287     37.83333         0.055723      0.029515     -0.019155
     11.05006     15.58381     38.15253        -0.049399      0.071728     -0.054018
      6.94713      2.40499     37.97682         0.005256      0.029501     -0.004037
      6.87501     11.45055     38.33671         0.019474     -0.037614     -0.013164
     16.05855      2.56598     38.33372        -0.075849      0.019424      0.009619
     16.48985     11.76593     38.57109        -0.158508     -0.087187     -0.469079
      0.00000      0.00000     47.17356         0.000147      0.005523      0.398843
     -0.00246      9.03140     47.17356        -0.000993     -0.007216      0.479710
      9.03040      0.00000     47.17356        -0.000621     -0.000022      0.406765
      9.02794      9.03140     47.17356        -0.002700     -0.002841      0.490010
      4.51398      4.51570     47.17425         0.000123     -0.003902      0.400055
      4.51152     13.54710     47.17425         0.004416      0.001557      0.428188
     13.54438      4.51570     47.17425         0.004789      0.000512      0.471545
     13.54192     13.54710     47.17425         0.000248      0.001045      0.347732
      2.45192      2.06295     44.04013         0.011305      0.001057     -0.030747
      2.44946     11.09435     44.04013         0.041923     -0.045336      0.044670
     11.48232      2.06295     44.04013         0.045016     -0.012884     -0.007575
     11.47986     11.09435     44.04013        -0.025522      0.033749      0.039028
      6.57602      6.96845     44.04013        -0.027440      0.002939     -0.028453
      6.57356     15.99985     44.04013         0.014169      0.006294     -0.035093
     15.60642      6.96845     44.04013        -0.053029      0.058543     -0.050608
     15.60396     15.99985     44.04013        -0.040031      0.038597      0.001703
      2.06108      6.57881     44.04000         0.065034     -0.052637      0.002314
      2.05862     15.61021     44.04000         0.024839      0.051292      0.012299
     11.09148      6.57881     44.04000        -0.019712     -0.052682     -0.004893
     11.08902     15.61021     44.04000        -0.012526      0.026282     -0.013870
      6.96686      2.45259     44.04007        -0.026999     -0.027089     -0.015359
      6.96440     11.48399     44.04007         0.024018      0.018408     -0.024924
     15.99726      2.45259     44.04007         0.002398      0.010866     -0.038693
     15.99481     11.48399     44.04007         0.051074      0.034098     -0.097796
      2.43163      2.08322     50.06849         0.008398     -0.011807      0.020023
      2.42917     11.11462     50.06849         0.013919     -0.007741      0.023544
     11.46203      2.08322     50.06849         0.004731     -0.016757      0.021292
     11.45957     11.11462     50.06849         0.019612     -0.000606      0.023462
      6.59631      6.94818     50.06849        -0.018335      0.000937      0.022298
      6.59385     15.97958     50.06849        -0.006026      0.014590      0.021676
     15.62671      6.94818     50.06849        -0.010236      0.006599      0.020814
     15.62425     15.97958     50.06849        -0.011260      0.010956      0.023207
      2.08113      6.59901     50.06905        -0.003845     -0.018428      0.021877
      2.07867     15.63041     50.06905        -0.014112     -0.004587      0.022766
     11.11153      6.59901     50.06905        -0.007493     -0.013952      0.023158
     11.10907     15.63041     50.06905        -0.008513     -0.011511      0.022181
      6.94681      2.43239     50.06905         0.010857      0.007976      0.021749
      6.94435     11.46379     50.06905         0.005573      0.014233      0.023335
     15.97721      2.43239     50.06905         0.016880      0.003029      0.021496
     15.97475     11.46379     50.06905         0.001761      0.018000      0.024012
     17.94622      0.09282     37.84918         0.052249     -0.071917     -0.042248
      0.10769      9.15181     37.75714        -0.002853     -0.015178     -0.008323
      9.09601      0.13715     37.76281        -0.018171     -0.019448      0.016002
      9.00348      9.08465     37.79181        -0.018988      0.011588      0.011960
      4.49019      4.57225     37.78283         0.085123     -0.036504     -0.030190
      4.45282     13.66678     37.73068         0.032577     -0.068848     -0.068415
     13.47388      4.68911     37.88271        -0.006172     -0.071279     -0.000234
     13.34732     13.66694     37.62069         0.037941      0.014227      0.023710
      0.00001      0.00001     44.04300        -0.019071     -0.104013      0.185731
     -0.00245      9.03141     44.04300         0.086894      0.059310      0.099799
      9.03041      0.00001     44.04300         0.010313      0.014010      0.087423
      9.02795      9.03141     44.04300         0.051524      0.063410      0.225963
      4.51397      4.51569     44.04275         0.011147      0.023447      0.141171
      4.51151     13.54709     44.04275        -0.089793     -0.008275      0.078920
     13.54437      4.51569     44.04275        -0.036818     -0.015953      0.263759
     13.54191     13.54709     44.04275        -0.038571     -0.049840     -0.043027
      0.00000      0.00000     50.44728        -0.000274     -0.000636     -0.624230
     -0.00246      9.03140     50.44728        -0.000011     -0.000610     -0.645681
      9.03040      0.00000     50.44728        -0.000287      0.001587     -0.625598
      9.02794      9.03140     50.44728         0.000579     -0.002264     -0.650617
      4.51397      4.51570     50.44728         0.001989      0.009710     -0.623065
      4.51151     13.54710     50.44728         0.001095     -0.010682     -0.634524
     13.54437      4.51570     50.44728        -0.002995      0.009764     -0.640979
     13.54191     13.54710     50.44728         0.000183     -0.010919     -0.614725
 -----------------------------------------------------------------------------------
    total drift:                               -0.007142      0.165939      0.364163


--------------------------------------------------------------------------------------------------------



  FREE ENERGIE OF THE ION-ELECTRON SYSTEM (eV)
  ---------------------------------------------------
  free  energy   TOTEN  =     -1574.39641200 eV

  energy  without entropy=    -1574.39641200  energy(sigma->0) =    -1574.39641200
 


--------------------------------------------------------------------------------------------------------


    POTLOK:  cpu time    0.5016: real time    0.5015


--------------------------------------------------------------------------------------------------------


     LOOP+:  cpu time  304.5063: real time  305.0694
 vacuum level on the upper side and lower side of the slab         2.312         1.576
    4ORBIT:  cpu time    0.0000: real time    0.0000

 total amount of memory used by VASP MPI-rank0  8653571. kBytes
=======================================================================

   base      :      30000. kBytes
   nonlr-proj:      53609. kBytes
   fftplans  :     249280. kBytes
   grid      :     701440. kBytes
   one-center:       2636. kBytes
   wavefun   :    7616606. kBytes
 
  
  
 General timing and accounting informations for this job:
 ========================================================
  
                  Total CPU time used (sec):      516.850
                            User time (sec):      417.206
                          System time (sec):       99.644
                         Elapsed time (sec):      519.770
  
                   Maximum memory used (kb):    10313616.
                   Average memory used (kb):          N/A
  
                          Minor page faults:      3737229
                          Major page faults:           13
                 Voluntary context switches:        11181
