<?xml version="1.0" encoding="ISO-8859-1"?>
<modeling>
 <generator>
  <i name="program" type="string">vasp </i>
  <i name="version" type="string">6.2.1  </i>
  <i name="subversion" type="string">16May21 (build Nov 15 2021 14:57:28) complex                          parallel </i>
  <i name="platform" type="string">LinuxPGI </i>
  <i name="date" type="string">2023 07 30 </i>
  <i name="time" type="string">19:02:41 </i>
 </generator>
 <incar>
  <i type="string" name="SYSTEM">PSC</i>
  <i type="int" name="ISTART">     1</i>
  <i type="string" name="PREC">Normal</i>
  <i name="BMIX">      0.01000000</i>
  <i name="AMIN">      0.01000000</i>
  <i type="int" name="ICHARG">     1</i>
  <i type="int" name="NELM">   600</i>
  <i type="int" name="ISYM">     0</i>
  <i name="ENCUT">    500.00000000</i>
  <i type="string" name="LREAL">Auto</i>
  <i type="int" name="ISMEAR">     0</i>
  <i name="SIGMA">      0.05000000</i>
  <i type="logical" name="LWAVE"> F  </i>
  <i type="logical" name="LVTOT"> T  </i>
  <i type="logical" name="GGA_COMPAT"> F  </i>
  <i type="logical" name="LDIPOL"> T  </i>
  <i type="int" name="IDIPOL">     3</i>
  <i type="int" name="IVDW">    12</i>
 </incar>
 <primitive_cell>
  <structure name="primitive_cell" >
   <crystal>
    <varray name="basis" >
     <v>      18.06080055       0.00000000       0.00000000 </v>
     <v>      -0.00491865      18.06279945       0.00000000 </v>
     <v>       0.00000000       0.00000000      62.48749924 </v>
    </varray>
    <i name="volume">  20385.21054034 </i>
    <varray name="rec_basis" >
     <v>       0.05536853       0.00001508      -0.00000000 </v>
     <v>       0.00000000       0.05536240       0.00000000 </v>
     <v>       0.00000000      -0.00000000       0.01600320 </v>
    </varray>
   </crystal>
   <varray name="positions" >
    <v>       0.45658581       0.32336705       0.57669243 </v>
    <v>       0.44986453       0.84522211       0.57459686 </v>
    <v>       0.92355859       0.24727408       0.58104688 </v>
    <v>       0.94801997       0.80616564       0.58137941 </v>
    <v>       0.29970610       0.06119250       0.57705334 </v>
    <v>       0.31587863       0.56596101       0.57823962 </v>
    <v>       0.79505885       0.07531755       0.57979327 </v>
    <v>       0.10819186       0.23512749       0.55838811 </v>
    <v>       0.09484988       0.67949334       0.56524379 </v>
    <v>       0.56938922       0.17248068       0.55618412 </v>
    <v>       0.49818143       0.65199651       0.56621194 </v>
    <v>       0.36102812       0.01291631       0.56051262 </v>
    <v>       0.27700313       0.62201729       0.55832865 </v>
    <v>       0.86947963       0.03262188       0.56660661 </v>
    <v>       0.06178866       0.22784376       0.58278258 </v>
    <v>       0.02768949       0.69198169       0.58504206 </v>
    <v>       0.57163031       0.25060226       0.57326352 </v>
    <v>       0.47161461       0.71254391       0.58623462 </v>
    <v>       0.27161239       0.43598949       0.58004870 </v>
    <v>       0.16660421       0.02904210       0.57351058 </v>
    <v>       0.67452848       0.01387789       0.57765320 </v>
    <v>       0.37867918       0.28997998       0.56227445 </v>
    <v>       0.48228323       0.86779587       0.54938827 </v>
    <v>       0.88085370       0.24988194       0.55629339 </v>
    <v>       0.97484465       0.86764709       0.56138822 </v>
    <v>       0.20097429       0.41081169       0.56218038 </v>
    <v>       0.14196975       0.96449856       0.55390150 </v>
    <v>       0.67235989       0.92876277       0.56322587 </v>
    <v>       0.44382900       0.19227669       0.54679516 </v>
    <v>       0.51540971       0.74374704       0.54101751 </v>
    <v>       0.99706144       0.24839416       0.53882298 </v>
    <v>       0.06450500       0.79058926       0.54787142 </v>
    <v>       0.19844776       0.52821757       0.54607315 </v>
    <v>       0.26677399       0.94618736       0.54371049 </v>
    <v>       0.79298624       0.93391001       0.55411614 </v>
    <v>       0.46250986       0.31004949       0.67565449 </v>
    <v>       0.43107980       0.81015134       0.67282635 </v>
    <v>       0.95914040       0.27914130       0.67915244 </v>
    <v>       0.92925022       0.77975174       0.67427122 </v>
    <v>       0.30438451       0.05614011       0.67408942 </v>
    <v>       0.29548297       0.53929865       0.67784951 </v>
    <v>       0.79008783       0.05131000       0.67650366 </v>
    <v>       0.84668114       0.50366448       0.66807027 </v>
    <v>       0.08825617       0.17649484       0.64514558 </v>
    <v>       0.09575945       0.69080081       0.65349222 </v>
    <v>       0.57472127       0.16647384       0.64961180 </v>
    <v>       0.57548379       0.67922877       0.65560195 </v>
    <v>       0.17384817       0.41682086       0.64657708 </v>
    <v>       0.17592957       0.92232382       0.64996905 </v>
    <v>       0.64889219       0.47626997       0.65828010 </v>
    <v>       0.67214865       0.91781787       0.64795205 </v>
    <v>       0.06616160       0.18362385       0.67209042 </v>
    <v>       0.03794000       0.68754789       0.67551359 </v>
    <v>       0.56593513       0.21007729       0.67422842 </v>
    <v>       0.53391789       0.71042846       0.67888005 </v>
    <v>       0.19729486       0.43403624       0.67307725 </v>
    <v>       0.20110149       0.95458028       0.67494640 </v>
    <v>       0.72043279       0.44304200       0.67440277 </v>
    <v>       0.69122183       0.94617123       0.67386678 </v>
    <v>       0.41540258       0.32103609       0.65163729 </v>
    <v>       0.41853144       0.83225906       0.64586667 </v>
    <v>       0.92487065       0.32082466       0.65642951 </v>
    <v>       0.92705866       0.83506758       0.65117724 </v>
    <v>       0.33279356       0.07833528       0.64834824 </v>
    <v>       0.32383126       0.57998667       0.65387175 </v>
    <v>       0.82650272       0.07647077       0.65184021 </v>
    <v>       0.85192257       0.56295920       0.64581801 </v>
    <v>       0.00170397       0.26220556       0.63362258 </v>
    <v>       0.03219762       0.78250842       0.63667867 </v>
    <v>       0.48061295       0.23281007       0.63343852 </v>
    <v>       0.50856899       0.75241953       0.63333413 </v>
    <v>       0.25332057       0.99598672       0.63141206 </v>
    <v>       0.25077913       0.50726824       0.63275589 </v>
    <v>       0.75428747       0.99555715       0.63217936 </v>
    <v>       0.72481957       0.55188652       0.63831194 </v>
    <v>       0.44874502       0.30128397       0.76888902 </v>
    <v>       0.44874501       0.80128391       0.76888902 </v>
    <v>       0.94874497       0.30128397       0.76888902 </v>
    <v>       0.94874501       0.80128391       0.76888902 </v>
    <v>       0.30127600       0.05129450       0.76887296 </v>
    <v>       0.30127601       0.55129450       0.76887296 </v>
    <v>       0.80127594       0.05129450       0.76887296 </v>
    <v>       0.80127598       0.55129450       0.76887296 </v>
    <v>       0.07877100       0.17118050       0.74344197 </v>
    <v>       0.07877101       0.67118045       0.74344197 </v>
    <v>       0.57877100       0.17118050       0.74344197 </v>
    <v>       0.57877099       0.67118045       0.74344197 </v>
    <v>       0.17119950       0.42117448       0.74342103 </v>
    <v>       0.17119950       0.92117451       0.74342103 </v>
    <v>       0.67119951       0.42117448       0.74342103 </v>
    <v>       0.67119950       0.92117451       0.74342103 </v>
    <v>       0.05125600       0.19871499       0.76888902 </v>
    <v>       0.05125600       0.69871493       0.76888902 </v>
    <v>       0.55125603       0.19871499       0.76888902 </v>
    <v>       0.55125602       0.69871493       0.76888902 </v>
    <v>       0.19872349       0.44870397       0.76887205 </v>
    <v>       0.19872349       0.94870397       0.76887205 </v>
    <v>       0.69872352       0.44870397       0.76887205 </v>
    <v>       0.69872351       0.94870397       0.76887205 </v>
    <v>       0.42123152       0.32881747       0.74344197 </v>
    <v>       0.42123151       0.82881744       0.74344197 </v>
    <v>       0.92123147       0.32881747       0.74344197 </v>
    <v>       0.92123151       0.82881744       0.74344197 </v>
    <v>       0.32880050       0.07882500       0.74342103 </v>
    <v>       0.32880049       0.57882496       0.74342103 </v>
    <v>       0.82880048       0.07882500       0.74342103 </v>
    <v>       0.82880052       0.57882496       0.74342103 </v>
    <v>       0.00000350       0.25000148       0.72582199 </v>
    <v>       0.00000350       0.75000145       0.72582199 </v>
    <v>       0.50000351       0.25000148       0.72582199 </v>
    <v>       0.50000350       0.75000145       0.72582199 </v>
    <v>       0.25000050       0.00000000       0.72580398 </v>
    <v>       0.25000052       0.50000000       0.72580398 </v>
    <v>       0.75000050       0.00000000       0.72580398 </v>
    <v>       0.75000049       0.50000000       0.72580398 </v>
    <v>       0.71726139       0.43850670       0.54201112 </v>
    <v>       0.73655332       0.49704988       0.52052593 </v>
    <v>       0.65367237       0.54968501       0.56163766 </v>
    <v>       0.70124382       0.63536328       0.55988243 </v>
    <v>       0.84263712       0.50461426       0.57273742 </v>
    <v>       0.77808270       0.56927085       0.58251135 </v>
    <v>       0.86517978       0.55765351       0.53399316 </v>
    <v>       0.79261564       0.62386431       0.52783500 </v>
    <v>       0.86677613       0.46747609       0.51950668 </v>
    <v>       0.86397611       0.43005579       0.54524101 </v>
    <v>       0.87472985       0.33282370       0.51958305 </v>
    <v>       0.78635304       0.32394651       0.53122600 </v>
    <v>       0.63637204       0.54799961       0.52135825 </v>
    <v>       0.69101905       0.63151158       0.51922458 </v>
    <v>       0.60564128       0.63275602       0.53282013 </v>
    <v>       0.75328890       0.44770974       0.59886136 </v>
    <v>       0.74279434       0.40421847       0.57355442 </v>
    <v>       0.67859064       0.47179336       0.58240720 </v>
    <v>       0.82655253       0.68492923       0.56417888 </v>
    <v>       0.89155224       0.68736263       0.54343450 </v>
    <v>       0.90600945       0.62267414       0.56491560 </v>
    <v>       0.82005844       0.39082890       0.48718634 </v>
    <v>       0.78540634       0.29996962       0.49202041 </v>
    <v>       0.66270909       0.32022834       0.52275971 </v>
    <v>       0.73370649       0.46281336       0.47148896 </v>
    <v>       0.53817033       0.37720054       0.52130019 </v>
    <v>       0.60907046       0.52034860       0.47005560 </v>
    <v>       0.50909848       0.47720317       0.49476113 </v>
    <v>       0.99459714       0.24430685       0.55623107 </v>
    <v>       0.03281538       0.77318007       0.56198844 </v>
    <v>       0.47248741       0.22981272       0.55773875 </v>
    <v>       0.49431241       0.75939892       0.55706430 </v>
    <v>       0.23746112       0.51625926       0.55917452 </v>
    <v>       0.25292026       0.98687907       0.55618058 </v>
    <v>       0.77027195       0.97967267       0.56379105 </v>
    <v>       0.00627360       0.24903913       0.65033546 </v>
    <v>       0.01174804       0.76343393       0.65195004 </v>
    <v>       0.49480564       0.24400722       0.64994726 </v>
    <v>       0.49688429       0.75643512       0.65024926 </v>
    <v>       0.24894926       0.49888708       0.64982553 </v>
    <v>       0.25493882       0.00075531       0.64865342 </v>
    <v>       0.75012492       0.51968372       0.65109300 </v>
    <v>       0.75003641       0.99768915       0.64940845 </v>
    <v>       0.49998898       0.24999498       0.74327702 </v>
    <v>       0.49998903       0.74999496       0.74327702 </v>
    <v>       0.99998898       0.24999498       0.74327702 </v>
    <v>       0.99998903       0.74999496       0.74327702 </v>
    <v>       0.25000050       0.00000100       0.74325596 </v>
    <v>       0.25000052       0.50000100       0.74325596 </v>
    <v>       0.75000050       0.00000100       0.74325596 </v>
    <v>       0.75000049       0.50000100       0.74325596 </v>
    <v>       0.70715435       0.38822539       0.49733623 </v>
    <v>       0.64983698       0.36334336       0.51101084 </v>
    <v>       0.68999307       0.44400614       0.48262055 </v>
    <v>       0.58029950       0.39548571       0.51012852 </v>
    <v>       0.61935786       0.47554078       0.48161903 </v>
    <v>       0.56534775       0.45130589       0.49530918 </v>
    <v>       0.75928819       0.47491101       0.53509476 </v>
    <v>       0.69026810       0.58255285       0.55138415 </v>
    <v>       0.78382404       0.51872476       0.57287252 </v>
    <v>       0.82265823       0.59424485       0.54065788 </v>
    <v>       0.83135409       0.43569955       0.53044063 </v>
    <v>       0.81977374       0.35909954       0.52062104 </v>
    <v>       0.65474520       0.59823250       0.52974188 </v>
    <v>       0.73666143       0.45700340       0.58215922 </v>
    <v>       0.86340091       0.64947225       0.55474151 </v>
    <v>       0.78514175       0.35758144       0.49842602 </v>
    <v>       0.05719179       0.23366262       0.56645204 </v>
    <v>       0.05278752       0.71128326       0.57130305 </v>
    <v>       0.54218525       0.21644676       0.56275593 </v>
    <v>       0.49185745       0.70565825       0.57116319 </v>
    <v>       0.43468924       0.28740580       0.56519819 </v>
    <v>       0.47484712       0.82764607       0.56030903 </v>
    <v>       0.92932932       0.25013189       0.56484778 </v>
    <v>       0.97785125       0.81554663       0.56811790 </v>
    <v>       0.23659097       0.44985554       0.56773343 </v>
    <v>       0.18288971       0.99324294       0.56179736 </v>
    <v>       0.69938442       0.97642229       0.56770455 </v>
    <v>       0.30702180       0.02408847       0.56493611 </v>
    <v>       0.28110399       0.57035489       0.56552962 </v>
    <v>       0.81374489       0.03294745       0.57077243 </v>
    <v>       0.05680246       0.20012140       0.65658134 </v>
    <v>       0.05088924       0.70987947       0.66112045 </v>
    <v>       0.54910371       0.20438612       0.65873081 </v>
    <v>       0.53771736       0.71311381       0.66244964 </v>
    <v>       0.20489078       0.44701719       0.65703748 </v>
    <v>       0.20765945       0.95632043       0.65855945 </v>
    <v>       0.70497507       0.47521407       0.66158783 </v>
    <v>       0.70143469       0.95089798       0.65760339 </v>
    <v>       0.45605460       0.29427357       0.65970312 </v>
    <v>       0.44661376       0.80189716       0.65687589 </v>
    <v>       0.96068843       0.28445565       0.66309033 </v>
    <v>       0.95255188       0.79468557       0.66007038 </v>
    <v>       0.29930850       0.04719589       0.65766279 </v>
    <v>       0.29154523       0.54079557       0.66138351 </v>
    <v>       0.79045097       0.04400140       0.66000145 </v>
    <v>       0.81999750       0.52847290       0.65522969 </v>
    <v>       0.04586250       0.20411950       0.75272599 </v>
    <v>       0.04586250       0.70411946       0.75272599 </v>
    <v>       0.54586251       0.20411950       0.75272599 </v>
    <v>       0.54586250       0.70411946       0.75272599 </v>
    <v>       0.20411900       0.45410100       0.75270499 </v>
    <v>       0.20411899       0.95410095       0.75270499 </v>
    <v>       0.70411898       0.45410100       0.75270499 </v>
    <v>       0.70411896       0.95410095       0.75270499 </v>
    <v>       0.45414002       0.29588849       0.75272697 </v>
    <v>       0.45414001       0.79588852       0.75272697 </v>
    <v>       0.95414002       0.29588849       0.75272697 </v>
    <v>       0.95414006       0.79588852       0.75272697 </v>
    <v>       0.29588249       0.04590050       0.75270499 </v>
    <v>       0.29588248       0.54590053       0.75270499 </v>
    <v>       0.79588244       0.04590050       0.75270499 </v>
    <v>       0.79588248       0.54590053       0.75270499 </v>
    <v>       0.76488726       0.54176858       0.55026704 </v>
    <v>       0.50108144       0.01752303       0.55252457 </v>
    <v>       0.48242593       0.51519930       0.55563781 </v>
    <v>       0.99405034       0.00404541       0.55248709 </v>
    <v>       0.03479137       0.50458918       0.55346733 </v>
    <v>       0.24584790       0.24634046       0.55250650 </v>
    <v>       0.25147202       0.76292036       0.55219296 </v>
    <v>       0.74425110       0.21311366       0.55724225 </v>
    <v>       0.70735982       0.79117347       0.54883988 </v>
    <v>       0.00715855       0.99815269       0.65497951 </v>
    <v>       0.01262242       0.49017086       0.65541020 </v>
    <v>       0.50078299       0.00374338       0.65460383 </v>
    <v>       0.50656325       0.49319021       0.65557058 </v>
    <v>       0.25388005       0.24504963       0.65468942 </v>
    <v>       0.24812863       0.75476291       0.65464455 </v>
    <v>       0.74427842       0.25661423       0.65592428 </v>
    <v>       0.74818298       0.75044316       0.65327257 </v>
    <v>       0.14109836       0.11083741       0.60710818 </v>
    <v>       0.14341845       0.61120257       0.61116417 </v>
    <v>       0.64585570       0.10821182       0.60969244 </v>
    <v>       0.62120930       0.62868395       0.61470614 </v>
    <v>       0.35805256       0.39408464       0.61070937 </v>
    <v>       0.37050609       0.88473955       0.60764174 </v>
    <v>       0.88454816       0.37052076       0.61334478 </v>
    <v>       0.86505092       0.88295853       0.61016318 </v>
    <v>       0.11459733       0.35709072       0.60928642 </v>
    <v>       0.12216453       0.87571236       0.60898289 </v>
    <v>       0.58689095       0.34229854       0.60545441 </v>
    <v>       0.61206057       0.86275728       0.61056261 </v>
    <v>       0.38468868       0.13314588       0.60775065 </v>
    <v>       0.38083204       0.63393003       0.61351010 </v>
    <v>       0.88917690       0.14205885       0.61346230 </v>
    <v>       0.91319591       0.65139002       0.61726091 </v>
    <v>       0.00000000       0.00000000       0.75492797 </v>
    <v>       0.00000000       0.50000000       0.75492797 </v>
    <v>       0.50000000       0.00000000       0.75492797 </v>
    <v>       0.49999999       0.50000000       0.75492797 </v>
    <v>       0.25000050       0.25000000       0.75493902 </v>
    <v>       0.25000051       0.74999997       0.75493902 </v>
    <v>       0.75000047       0.25000000       0.75493902 </v>
    <v>       0.75000046       0.74999997       0.75493902 </v>
    <v>       0.13579050       0.11421000       0.70478299 </v>
    <v>       0.13579050       0.61420998       0.70478299 </v>
    <v>       0.63579045       0.11421000       0.70478299 </v>
    <v>       0.63579049       0.61420998       0.70478299 </v>
    <v>       0.36420952       0.38578999       0.70478299 </v>
    <v>       0.36420950       0.88578996       0.70478299 </v>
    <v>       0.86420954       0.38578999       0.70478299 </v>
    <v>       0.86420953       0.88578996       0.70478299 </v>
    <v>       0.11421799       0.36421899       0.70478098 </v>
    <v>       0.11421799       0.86421899       0.70478098 </v>
    <v>       0.61421800       0.36421899       0.70478098 </v>
    <v>       0.61421799       0.86421899       0.70478098 </v>
    <v>       0.38578201       0.13578149       0.70478202 </v>
    <v>       0.38578200       0.63578149       0.70478202 </v>
    <v>       0.88578199       0.13578149       0.70478202 </v>
    <v>       0.88578203       0.63578149       0.70478202 </v>
    <v>       0.13466700       0.11533200       0.80125603 </v>
    <v>       0.13466699       0.61533199       0.80125603 </v>
    <v>       0.63466699       0.11533200       0.80125603 </v>
    <v>       0.63466698       0.61533199       0.80125603 </v>
    <v>       0.36533300       0.38466799       0.80125603 </v>
    <v>       0.36533299       0.88466796       0.80125603 </v>
    <v>       0.86533295       0.38466799       0.80125603 </v>
    <v>       0.86533294       0.88466796       0.80125603 </v>
    <v>       0.11532850       0.36533700       0.80126500 </v>
    <v>       0.11532850       0.86533698       0.80126500 </v>
    <v>       0.61532850       0.36533700       0.80126500 </v>
    <v>       0.61532849       0.86533698       0.80126500 </v>
    <v>       0.38467151       0.13466300       0.80126500 </v>
    <v>       0.38467150       0.63466297       0.80126500 </v>
    <v>       0.88467149       0.13466300       0.80126500 </v>
    <v>       0.88467153       0.63466297       0.80126500 </v>
    <v>       0.99365711       0.00513879       0.60570800 </v>
    <v>       0.00610038       0.50666640       0.60423511 </v>
    <v>       0.50363464       0.00759300       0.60432583 </v>
    <v>       0.49864622       0.50294828       0.60478991 </v>
    <v>       0.24868414       0.25313048       0.60464621 </v>
    <v>       0.24675220       0.75662582       0.60381163 </v>
    <v>       0.74609963       0.25960029       0.60624467 </v>
    <v>       0.73922765       0.75663459       0.60205145 </v>
    <v>       0.00000050       0.00000050       0.70482896 </v>
    <v>       0.00000050       0.50000048       0.70482896 </v>
    <v>       0.50000048       0.00000050       0.70482896 </v>
    <v>       0.50000046       0.50000048       0.70482896 </v>
    <v>       0.24999999       0.24999947       0.70482499 </v>
    <v>       0.25000001       0.74999950       0.70482499 </v>
    <v>       0.74999999       0.24999947       0.70482499 </v>
    <v>       0.74999998       0.74999950       0.70482499 </v>
    <v>       0.00000000       0.00000000       0.80731797 </v>
    <v>       0.00000000       0.50000000       0.80731797 </v>
    <v>       0.50000000       0.00000000       0.80731797 </v>
    <v>       0.49999999       0.50000000       0.80731797 </v>
    <v>       0.24999999       0.25000000       0.80731797 </v>
    <v>       0.25000001       0.74999997       0.80731797 </v>
    <v>       0.74999999       0.25000000       0.80731797 </v>
    <v>       0.74999998       0.74999997       0.80731797 </v>
   </varray>
  </structure>
  <varray name="primitive_index" >
   <v type="int" >        1 </v>
   <v type="int" >        2 </v>
   <v type="int" >        3 </v>
   <v type="int" >        4 </v>
   <v type="int" >        5 </v>
   <v type="int" >        6 </v>
   <v type="int" >        7 </v>
   <v type="int" >        8 </v>
   <v type="int" >        9 </v>
   <v type="int" >       10 </v>
   <v type="int" >       11 </v>
   <v type="int" >       12 </v>
   <v type="int" >       13 </v>
   <v type="int" >       14 </v>
   <v type="int" >       15 </v>
   <v type="int" >       16 </v>
   <v type="int" >       17 </v>
   <v type="int" >       18 </v>
   <v type="int" >       19 </v>
   <v type="int" >       20 </v>
   <v type="int" >       21 </v>
   <v type="int" >       22 </v>
   <v type="int" >       23 </v>
   <v type="int" >       24 </v>
   <v type="int" >       25 </v>
   <v type="int" >       26 </v>
   <v type="int" >       27 </v>
   <v type="int" >       28 </v>
   <v type="int" >       29 </v>
   <v type="int" >       30 </v>
   <v type="int" >       31 </v>
   <v type="int" >       32 </v>
   <v type="int" >       33 </v>
   <v type="int" >       34 </v>
   <v type="int" >       35 </v>
   <v type="int" >       36 </v>
   <v type="int" >       37 </v>
   <v type="int" >       38 </v>
   <v type="int" >       39 </v>
   <v type="int" >       40 </v>
   <v type="int" >       41 </v>
   <v type="int" >       42 </v>
   <v type="int" >       43 </v>
   <v type="int" >       44 </v>
   <v type="int" >       45 </v>
   <v type="int" >       46 </v>
   <v type="int" >       47 </v>
   <v type="int" >       48 </v>
   <v type="int" >       49 </v>
   <v type="int" >       50 </v>
   <v type="int" >       51 </v>
   <v type="int" >       52 </v>
   <v type="int" >       53 </v>
   <v type="int" >       54 </v>
   <v type="int" >       55 </v>
   <v type="int" >       56 </v>
   <v type="int" >       57 </v>
   <v type="int" >       58 </v>
   <v type="int" >       59 </v>
   <v type="int" >       60 </v>
   <v type="int" >       61 </v>
   <v type="int" >       62 </v>
   <v type="int" >       63 </v>
   <v type="int" >       64 </v>
   <v type="int" >       65 </v>
   <v type="int" >       66 </v>
   <v type="int" >       67 </v>
   <v type="int" >       68 </v>
   <v type="int" >       69 </v>
   <v type="int" >       70 </v>
   <v type="int" >       71 </v>
   <v type="int" >       72 </v>
   <v type="int" >       73 </v>
   <v type="int" >       74 </v>
   <v type="int" >       75 </v>
   <v type="int" >       76 </v>
   <v type="int" >       77 </v>
   <v type="int" >       78 </v>
   <v type="int" >       79 </v>
   <v type="int" >       80 </v>
   <v type="int" >       81 </v>
   <v type="int" >       82 </v>
   <v type="int" >       83 </v>
   <v type="int" >       84 </v>
   <v type="int" >       85 </v>
   <v type="int" >       86 </v>
   <v type="int" >       87 </v>
   <v type="int" >       88 </v>
   <v type="int" >       89 </v>
   <v type="int" >       90 </v>
   <v type="int" >       91 </v>
   <v type="int" >       92 </v>
   <v type="int" >       93 </v>
   <v type="int" >       94 </v>
   <v type="int" >       95 </v>
   <v type="int" >       96 </v>
   <v type="int" >       97 </v>
   <v type="int" >       98 </v>
   <v type="int" >       99 </v>
   <v type="int" >      100 </v>
   <v type="int" >      101 </v>
   <v type="int" >      102 </v>
   <v type="int" >      103 </v>
   <v type="int" >      104 </v>
   <v type="int" >      105 </v>
   <v type="int" >      106 </v>
   <v type="int" >      107 </v>
   <v type="int" >      108 </v>
   <v type="int" >      109 </v>
   <v type="int" >      110 </v>
   <v type="int" >      111 </v>
   <v type="int" >      112 </v>
   <v type="int" >      113 </v>
   <v type="int" >      114 </v>
   <v type="int" >      115 </v>
   <v type="int" >      116 </v>
   <v type="int" >      117 </v>
   <v type="int" >      118 </v>
   <v type="int" >      119 </v>
   <v type="int" >      120 </v>
   <v type="int" >      121 </v>
   <v type="int" >      122 </v>
   <v type="int" >      123 </v>
   <v type="int" >      124 </v>
   <v type="int" >      125 </v>
   <v type="int" >      126 </v>
   <v type="int" >      127 </v>
   <v type="int" >      128 </v>
   <v type="int" >      129 </v>
   <v type="int" >      130 </v>
   <v type="int" >      131 </v>
   <v type="int" >      132 </v>
   <v type="int" >      133 </v>
   <v type="int" >      134 </v>
   <v type="int" >      135 </v>
   <v type="int" >      136 </v>
   <v type="int" >      137 </v>
   <v type="int" >      138 </v>
   <v type="int" >      139 </v>
   <v type="int" >      140 </v>
   <v type="int" >      141 </v>
   <v type="int" >      142 </v>
   <v type="int" >      143 </v>
   <v type="int" >      144 </v>
   <v type="int" >      145 </v>
   <v type="int" >      146 </v>
   <v type="int" >      147 </v>
   <v type="int" >      148 </v>
   <v type="int" >      149 </v>
   <v type="int" >      150 </v>
   <v type="int" >      151 </v>
   <v type="int" >      152 </v>
   <v type="int" >      153 </v>
   <v type="int" >      154 </v>
   <v type="int" >      155 </v>
   <v type="int" >      156 </v>
   <v type="int" >      157 </v>
   <v type="int" >      158 </v>
   <v type="int" >      159 </v>
   <v type="int" >      160 </v>
   <v type="int" >      161 </v>
   <v type="int" >      162 </v>
   <v type="int" >      163 </v>
   <v type="int" >      164 </v>
   <v type="int" >      165 </v>
   <v type="int" >      166 </v>
   <v type="int" >      167 </v>
   <v type="int" >      168 </v>
   <v type="int" >      169 </v>
   <v type="int" >      170 </v>
   <v type="int" >      171 </v>
   <v type="int" >      172 </v>
   <v type="int" >      173 </v>
   <v type="int" >      174 </v>
   <v type="int" >      175 </v>
   <v type="int" >      176 </v>
   <v type="int" >      177 </v>
   <v type="int" >      178 </v>
   <v type="int" >      179 </v>
   <v type="int" >      180 </v>
   <v type="int" >      181 </v>
   <v type="int" >      182 </v>
   <v type="int" >      183 </v>
   <v type="int" >      184 </v>
   <v type="int" >      185 </v>
   <v type="int" >      186 </v>
   <v type="int" >      187 </v>
   <v type="int" >      188 </v>
   <v type="int" >      189 </v>
   <v type="int" >      190 </v>
   <v type="int" >      191 </v>
   <v type="int" >      192 </v>
   <v type="int" >      193 </v>
   <v type="int" >      194 </v>
   <v type="int" >      195 </v>
   <v type="int" >      196 </v>
   <v type="int" >      197 </v>
   <v type="int" >      198 </v>
   <v type="int" >      199 </v>
   <v type="int" >      200 </v>
   <v type="int" >      201 </v>
   <v type="int" >      202 </v>
   <v type="int" >      203 </v>
   <v type="int" >      204 </v>
   <v type="int" >      205 </v>
   <v type="int" >      206 </v>
   <v type="int" >      207 </v>
   <v type="int" >      208 </v>
   <v type="int" >      209 </v>
   <v type="int" >      210 </v>
   <v type="int" >      211 </v>
   <v type="int" >      212 </v>
   <v type="int" >      213 </v>
   <v type="int" >      214 </v>
   <v type="int" >      215 </v>
   <v type="int" >      216 </v>
   <v type="int" >      217 </v>
   <v type="int" >      218 </v>
   <v type="int" >      219 </v>
   <v type="int" >      220 </v>
   <v type="int" >      221 </v>
   <v type="int" >      222 </v>
   <v type="int" >      223 </v>
   <v type="int" >      224 </v>
   <v type="int" >      225 </v>
   <v type="int" >      226 </v>
   <v type="int" >      227 </v>
   <v type="int" >      228 </v>
   <v type="int" >      229 </v>
   <v type="int" >      230 </v>
   <v type="int" >      231 </v>
   <v type="int" >      232 </v>
   <v type="int" >      233 </v>
   <v type="int" >      234 </v>
   <v type="int" >      235 </v>
   <v type="int" >      236 </v>
   <v type="int" >      237 </v>
   <v type="int" >      238 </v>
   <v type="int" >      239 </v>
   <v type="int" >      240 </v>
   <v type="int" >      241 </v>
   <v type="int" >      242 </v>
   <v type="int" >      243 </v>
   <v type="int" >      244 </v>
   <v type="int" >      245 </v>
   <v type="int" >      246 </v>
   <v type="int" >      247 </v>
   <v type="int" >      248 </v>
   <v type="int" >      249 </v>
   <v type="int" >      250 </v>
   <v type="int" >      251 </v>
   <v type="int" >      252 </v>
   <v type="int" >      253 </v>
   <v type="int" >      254 </v>
   <v type="int" >      255 </v>
   <v type="int" >      256 </v>
   <v type="int" >      257 </v>
   <v type="int" >      258 </v>
   <v type="int" >      259 </v>
   <v type="int" >      260 </v>
   <v type="int" >      261 </v>
   <v type="int" >      262 </v>
   <v type="int" >      263 </v>
   <v type="int" >      264 </v>
   <v type="int" >      265 </v>
   <v type="int" >      266 </v>
   <v type="int" >      267 </v>
   <v type="int" >      268 </v>
   <v type="int" >      269 </v>
   <v type="int" >      270 </v>
   <v type="int" >      271 </v>
   <v type="int" >      272 </v>
   <v type="int" >      273 </v>
   <v type="int" >      274 </v>
   <v type="int" >      275 </v>
   <v type="int" >      276 </v>
   <v type="int" >      277 </v>
   <v type="int" >      278 </v>
   <v type="int" >      279 </v>
   <v type="int" >      280 </v>
   <v type="int" >      281 </v>
   <v type="int" >      282 </v>
   <v type="int" >      283 </v>
   <v type="int" >      284 </v>
   <v type="int" >      285 </v>
   <v type="int" >      286 </v>
   <v type="int" >      287 </v>
   <v type="int" >      288 </v>
   <v type="int" >      289 </v>
   <v type="int" >      290 </v>
   <v type="int" >      291 </v>
   <v type="int" >      292 </v>
   <v type="int" >      293 </v>
   <v type="int" >      294 </v>
   <v type="int" >      295 </v>
   <v type="int" >      296 </v>
   <v type="int" >      297 </v>
   <v type="int" >      298 </v>
   <v type="int" >      299 </v>
   <v type="int" >      300 </v>
   <v type="int" >      301 </v>
   <v type="int" >      302 </v>
   <v type="int" >      303 </v>
   <v type="int" >      304 </v>
   <v type="int" >      305 </v>
   <v type="int" >      306 </v>
   <v type="int" >      307 </v>
   <v type="int" >      308 </v>
   <v type="int" >      309 </v>
   <v type="int" >      310 </v>
   <v type="int" >      311 </v>
   <v type="int" >      312 </v>
   <v type="int" >      313 </v>
   <v type="int" >      314 </v>
   <v type="int" >      315 </v>
   <v type="int" >      316 </v>
   <v type="int" >      317 </v>
   <v type="int" >      318 </v>
   <v type="int" >      319 </v>
   <v type="int" >      320 </v>
   <v type="int" >      321 </v>
   <v type="int" >      322 </v>
   <v type="int" >      323 </v>
   <v type="int" >      324 </v>
   <v type="int" >      325 </v>
  </varray>
 </primitive_cell>
 <kpoints>
  <generation param="Gamma">
   <v type="int" name="divisions">       3        3        1 </v>
   <v name="usershift">      0.00000000       0.00000000       0.00000000 </v>
   <v name="genvec1">      0.33333333       0.00000000       0.00000000 </v>
   <v name="genvec2">      0.00000000       0.33333333       0.00000000 </v>
   <v name="genvec3">      0.00000000       0.00000000       1.00000000 </v>
   <v name="shift">      0.00000000       0.00000000       0.00000000 </v>
  </generation>
  <varray name="kpointlist" >
   <v>       0.00000000       0.00000000       0.00000000 </v>
   <v>       0.33333333       0.00000000       0.00000000 </v>
   <v>       0.00000000       0.33333333       0.00000000 </v>
   <v>       0.33333333       0.33333333       0.00000000 </v>
   <v>      -0.33333333       0.33333333       0.00000000 </v>
  </varray>
  <varray name="weights" >
   <v>       0.11111111 </v>
   <v>       0.22222222 </v>
   <v>       0.22222222 </v>
   <v>       0.22222222 </v>
   <v>       0.22222222 </v>
  </varray>
 </kpoints>
 <parameters>
  <separator name="general" >
   <i type="string" name="SYSTEM">PSC</i>
   <i type="logical" name="LCOMPAT"> F  </i>
  </separator>
  <separator name="electronic" >
   <i type="string" name="PREC">normal</i>
   <i name="ENMAX">    500.00000000</i>
   <i name="ENAUG">    644.87300000</i>
   <i name="EDIFF">      0.00010000</i>
   <i type="int" name="IALGO">    38</i>
   <i type="int" name="IWAVPR">    10</i>
   <i type="int" name="NBANDS">   732</i>
   <i type="int" name="NBANDSLOW">    -1</i>
   <i type="int" name="NBANDSHIGH">    -1</i>
   <i name="NELECT">   1134.00000000</i>
   <i type="int" name="TURBO">     0</i>
   <i type="int" name="IRESTART">     0</i>
   <i type="int" name="NREBOOT">     0</i>
   <i type="int" name="NMIN">     0</i>
   <i name="EREF">      0.00000000</i>
   <separator name="electronic smearing" >
    <i type="int" name="ISMEAR">     0</i>
    <i name="SIGMA">      0.05000000</i>
    <i name="KSPACING">      0.50000000</i>
    <i type="logical" name="KGAMMA"> T  </i>
    <i type="logical" name="KBLOWUP"> T  </i>
   </separator>
   <separator name="electronic projectors" >
    <i type="logical" name="LREAL"> T  </i>
    <v name="ROPT">     -0.00050000     -0.00050000     -0.00050000     -0.00050000     -0.00050000</v>
    <i type="int" name="LMAXPAW">  -100</i>
    <i type="int" name="LMAXMIX">     2</i>
    <i type="logical" name="NLSPLINE"> F  </i>
   </separator>
   <separator name="electronic startup" >
    <i type="int" name="ISTART">     0</i>
    <i type="int" name="ICHARG">     1</i>
    <i type="int" name="INIWAV">     1</i>
   </separator>
   <separator name="electronic spin" >
    <i type="int" name="ISPIN">     1</i>
    <i type="logical" name="LNONCOLLINEAR"> F  </i>
    <v name="MAGMOM">      1.00000000      1.00000000      1.00000000      1.00000000      1.00000000      1.00000000      1.00000000      1.00000000      1.00000000      1.00000000      1.00000000      1.00000000      1.00000000      1.00000000      1.00000000      1.00000000      1.00000000      1.00000000      1.00000000      1.00000000
      1.00000000      1.00000000      1.00000000      1.00000000      1.00000000      1.00000000      1.00000000      1.00000000      1.00000000      1.00000000      1.00000000      1.00000000      1.00000000      1.00000000      1.00000000      1.00000000      1.00000000      1.00000000      1.00000000      1.00000000
      1.00000000      1.00000000      1.00000000      1.00000000      1.00000000      1.00000000      1.00000000      1.00000000      1.00000000      1.00000000      1.00000000      1.00000000      1.00000000      1.00000000      1.00000000      1.00000000      1.00000000      1.00000000      1.00000000      1.00000000
      1.00000000      1.00000000      1.00000000      1.00000000      1.00000000      1.00000000      1.00000000      1.00000000      1.00000000      1.00000000      1.00000000      1.00000000      1.00000000      1.00000000      1.00000000      1.00000000      1.00000000      1.00000000      1.00000000      1.00000000
      1.00000000      1.00000000      1.00000000      1.00000000      1.00000000      1.00000000      1.00000000      1.00000000      1.00000000      1.00000000      1.00000000      1.00000000      1.00000000      1.00000000      1.00000000      1.00000000      1.00000000      1.00000000      1.00000000      1.00000000
      1.00000000      1.00000000      1.00000000      1.00000000      1.00000000      1.00000000      1.00000000      1.00000000      1.00000000      1.00000000      1.00000000      1.00000000      1.00000000      1.00000000      1.00000000      1.00000000      1.00000000      1.00000000      1.00000000      1.00000000
      1.00000000      1.00000000      1.00000000      1.00000000      1.00000000      1.00000000      1.00000000      1.00000000      1.00000000      1.00000000      1.00000000      1.00000000      1.00000000      1.00000000      1.00000000      1.00000000      1.00000000      1.00000000      1.00000000      1.00000000
      1.00000000      1.00000000      1.00000000      1.00000000      1.00000000      1.00000000      1.00000000      1.00000000      1.00000000      1.00000000      1.00000000      1.00000000      1.00000000      1.00000000      1.00000000      1.00000000      1.00000000      1.00000000      1.00000000      1.00000000
      1.00000000      1.00000000      1.00000000      1.00000000      1.00000000      1.00000000      1.00000000      1.00000000      1.00000000      1.00000000      1.00000000      1.00000000      1.00000000      1.00000000      1.00000000      1.00000000      1.00000000      1.00000000      1.00000000      1.00000000
      1.00000000      1.00000000      1.00000000      1.00000000      1.00000000      1.00000000      1.00000000      1.00000000      1.00000000      1.00000000      1.00000000      1.00000000      1.00000000      1.00000000      1.00000000      1.00000000      1.00000000      1.00000000      1.00000000      1.00000000
      1.00000000      1.00000000      1.00000000      1.00000000      1.00000000      1.00000000      1.00000000      1.00000000      1.00000000      1.00000000      1.00000000      1.00000000      1.00000000      1.00000000      1.00000000      1.00000000      1.00000000      1.00000000      1.00000000      1.00000000
      1.00000000      1.00000000      1.00000000      1.00000000      1.00000000      1.00000000      1.00000000      1.00000000      1.00000000      1.00000000      1.00000000      1.00000000      1.00000000      1.00000000      1.00000000      1.00000000      1.00000000      1.00000000      1.00000000      1.00000000
      1.00000000      1.00000000      1.00000000      1.00000000      1.00000000      1.00000000      1.00000000      1.00000000      1.00000000      1.00000000      1.00000000      1.00000000      1.00000000      1.00000000      1.00000000      1.00000000      1.00000000      1.00000000      1.00000000      1.00000000
      1.00000000      1.00000000      1.00000000      1.00000000      1.00000000      1.00000000      1.00000000      1.00000000      1.00000000      1.00000000      1.00000000      1.00000000      1.00000000      1.00000000      1.00000000      1.00000000      1.00000000      1.00000000      1.00000000      1.00000000
      1.00000000      1.00000000      1.00000000      1.00000000      1.00000000      1.00000000      1.00000000      1.00000000      1.00000000      1.00000000      1.00000000      1.00000000      1.00000000      1.00000000      1.00000000      1.00000000      1.00000000      1.00000000      1.00000000      1.00000000
      1.00000000      1.00000000      1.00000000      1.00000000      1.00000000      1.00000000      1.00000000      1.00000000      1.00000000      1.00000000      1.00000000      1.00000000      1.00000000      1.00000000      1.00000000      1.00000000      1.00000000      1.00000000      1.00000000      1.00000000
      1.00000000      1.00000000      1.00000000      1.00000000      1.00000000</v>
    <i name="NUPDOWN">     -1.00000000</i>
    <i type="logical" name="LSORBIT"> F  </i>
    <v name="SAXIS">      0.00000000      0.00000000      1.00000000</v>
    <i type="logical" name="LSPIRAL"> F  </i>
    <v name="QSPIRAL">      0.00000000      0.00000000      0.00000000</v>
    <i type="logical" name="LZEROZ"> F  </i>
   </separator>
   <separator name="electronic exchange-correlation" >
    <i type="logical" name="LASPH"> F  </i>
    <i type="logical" name="LMETAGGA"> F  </i>
   </separator>
   <separator name="electronic convergence" >
    <i type="int" name="NELM">   600</i>
    <i type="int" name="NELMDL">     0</i>
    <i type="int" name="NELMIN">     2</i>
    <i name="ENINI">    500.00000000</i>
    <separator name="electronic convergence detail" >
     <i type="logical" name="LDIAG"> T  </i>
     <i type="logical" name="LSUBROT"> F  </i>
     <i name="WEIMIN">      0.00000000</i>
     <i name="EBREAK">      0.00000003</i>
     <i name="DEPER">      0.30000000</i>
     <i type="int" name="NRMM">     4</i>
     <i name="TIME">      0.40000000</i>
    </separator>
   </separator>
   <separator name="electronic mixer" >
    <i name="AMIX">      0.40000000</i>
    <i name="BMIX">      0.01000000</i>
    <i name="AMIN">      0.01000000</i>
    <i name="AMIX_MAG">      1.60000000</i>
    <i name="BMIX_MAG">      0.01000000</i>
    <separator name="electronic mixer details" >
     <i type="int" name="IMIX">     4</i>
     <i type="logical" name="MIXFIRST"> F  </i>
     <i type="int" name="MAXMIX">   -45</i>
     <i name="WC">    100.00000000</i>
     <i type="int" name="INIMIX">     1</i>
     <i type="int" name="MIXPRE">     1</i>
     <i type="int" name="MREMOVE">     5</i>
    </separator>
   </separator>
   <separator name="electronic dipolcorrection" >
    <i type="logical" name="LDIPOL"> T  </i>
    <i type="logical" name="LMONO"> F  </i>
    <i type="int" name="IDIPOL">     3</i>
    <i name="EPSILON">      1.00000000</i>
    <v name="DIPOL">   -100.00000000   -100.00000000   -100.00000000</v>
    <i name="EFIELD">      0.00000000</i>
   </separator>
  </separator>
  <separator name="grids" >
   <i type="int" name="NGX">   100</i>
   <i type="int" name="NGY">   100</i>
   <i type="int" name="NGZ">   350</i>
   <i type="int" name="NGXF">   200</i>
   <i type="int" name="NGYF">   200</i>
   <i type="int" name="NGZF">   700</i>
   <i type="logical" name="ADDGRID"> F  </i>
  </separator>
  <separator name="ionic" >
   <i type="int" name="NSW">     0</i>
   <i type="int" name="IBRION">    -1</i>
   <i type="int" name="MDALGO">     0</i>
   <i type="int" name="ISIF">     2</i>
   <i name="PSTRESS">      0.00000000</i>
   <i name="EDIFFG">      0.00100000</i>
   <i type="int" name="NFREE">     0</i>
   <i name="POTIM">      0.50000000</i>
   <i name="SMASS">     -3.00000000</i>
   <i name="SCALEE">      1.00000000</i>
  </separator>
  <separator name="ionic md" >
   <i name="TEBEG">      0.00010000</i>
   <i name="TEEND">      0.00010000</i>
   <i type="int" name="NBLOCK">     1</i>
   <i type="int" name="KBLOCK">     1</i>
   <i type="int" name="NPACO">   256</i>
   <i name="APACO">     16.00000000</i>
  </separator>
  <separator name="symmetry" >
   <i type="int" name="ISYM">     0</i>
   <i name="SYMPREC">      0.00001000</i>
  </separator>
  <separator name="dos" >
   <i type="int" name="LORBIT">     0</i>
   <v name="RWIGS">     -1.00000000     -1.00000000     -1.00000000     -1.00000000     -1.00000000</v>
   <i type="int" name="NEDOS">   301</i>
   <i name="EMIN">     10.00000000</i>
   <i name="EMAX">    -10.00000000</i>
   <i name="EFERMI">      0.00000000</i>
  </separator>
  <separator name="writing" >
   <i type="int" name="NWRITE">     2</i>
   <i type="logical" name="LWAVE"> F  </i>
   <i type="logical" name="LDOWNSAMPLE"> F  </i>
   <i type="logical" name="LCHARG"> T  </i>
   <i type="logical" name="LPARD"> F  </i>
   <i type="logical" name="LVTOT"> T  </i>
   <i type="logical" name="LVHAR"> F  </i>
   <i type="logical" name="LELF"> F  </i>
   <i type="logical" name="LOPTICS"> F  </i>
   <v name="STM">      0.00000000      0.00000000      0.00000000      0.00000000      0.00000000      0.00000000      0.00000000</v>
  </separator>
  <separator name="performance" >
   <i type="int" name="NPAR">     4</i>
   <i type="int" name="NSIM">     4</i>
   <i type="int" name="NBLK">    -1</i>
   <i type="logical" name="LPLANE"> T  </i>
   <i type="logical" name="LSCALAPACK"> T  </i>
   <i type="logical" name="LSCAAWARE"> F  </i>
   <i type="logical" name="LSCALU"> F  </i>
   <i type="logical" name="LASYNC"> F  </i>
   <i type="logical" name="LORBITALREAL"> F  </i>
  </separator>
  <separator name="miscellaneous" >
   <i type="int" name="IDIOT">     3</i>
   <i type="int" name="PHON_NSTRUCT">    -1</i>
   <i type="logical" name="LMUSIC"> F  </i>
   <v name="POMASS">      1.00000000     12.01100000     14.00100000    126.90400000    207.20000000</v>
   <v name="DARWINR">      0.00000000      0.00000000      0.00000000      0.00000000      0.00000000</v>
   <v name="DARWINV">      1.00000000      1.00000000      1.00000000      1.00000000      1.00000000</v>
   <i type="logical" name="LCORR"> T  </i>
  </separator>
  <i type="logical" name="GGA_COMPAT"> F  </i>
  <i type="logical" name="LBERRY"> F  </i>
  <i type="int" name="ICORELEVEL">     0</i>
  <i type="logical" name="LDAU"> F  </i>
  <i type="int" name="I_CONSTRAINED_M">     0</i>
  <separator name="electronic exchange-correlation" >
   <i type="string" name="GGA">--</i>
   <i type="int" name="VOSKOWN">     0</i>
   <i type="logical" name="LHFCALC"> F  </i>
   <i type="string" name="PRECFOCK"></i>
   <i type="logical" name="LSYMGRAD"> F  </i>
   <i type="logical" name="LHFONE"> F  </i>
   <i type="logical" name="LRHFCALC"> F  </i>
   <i type="logical" name="LTHOMAS"> F  </i>
   <i type="logical" name="LMODELHF"> F  </i>
   <i type="logical" name="LFOCKACE"> F  </i>
   <i name="ENCUT4O">     -1.00000000</i>
   <i type="int" name="EXXOEP">     0</i>
   <i type="int" name="FOURORBIT">     0</i>
   <i name="AEXX">      0.00000000</i>
   <i name="HFALPHA">      0.00000000</i>
   <i name="MCALPHA">      0.00000000</i>
   <i name="ALDAX">      1.00000000</i>
   <i name="AGGAX">      1.00000000</i>
   <i name="ALDAC">      1.00000000</i>
   <i name="AGGAC">      1.00000000</i>
   <i type="int" name="NKREDX">     1</i>
   <i type="int" name="NKREDY">     1</i>
   <i type="int" name="NKREDZ">     1</i>
   <i type="logical" name="SHIFTRED"> F  </i>
   <i type="logical" name="ODDONLY"> F  </i>
   <i type="logical" name="EVENONLY"> F  </i>
   <i type="int" name="LMAXFOCK">     0</i>
   <i type="int" name="NMAXFOCKAE">     0</i>
   <i type="logical" name="LFOCKAEDFT"> F  </i>
   <i name="HFSCREEN">      0.00000000</i>
   <i name="HFSCREENC">      0.00000000</i>
   <i type="int" name="NBANDSGWLOW">     0</i>
  </separator>
  <separator name="vdW DFT" >
   <i type="logical" name="LUSE_VDW"> F  </i>
   <i name="Zab_VDW">     -0.84910000</i>
   <i name="PARAM1">      0.12340000</i>
   <i name="PARAM2">      1.00000000</i>
   <i name="PARAM3">      0.00000000</i>
  </separator>
  <separator name="model GW" >
   <i type="int" name="MODEL_GW">     0</i>
   <i name="MODEL_EPS0">     37.63423484</i>
   <i name="MODEL_ALPHA">      1.00000000</i>
  </separator>
  <separator name="linear response parameters" >
   <i type="logical" name="LEPSILON"> F  </i>
   <i type="logical" name="LRPA"> F  </i>
   <i type="logical" name="LNABLA"> F  </i>
   <i type="logical" name="LVEL"> F  </i>
   <i type="int" name="KINTER">     0</i>
   <i name="CSHIFT">      0.10000000</i>
   <i name="OMEGAMAX">     -1.00000000</i>
   <i name="DEG_THRESHOLD">      0.00200000</i>
   <i name="RTIME">     -0.10000000</i>
   <i name="WPLASMAI">      0.00000000</i>
   <v name="DFIELD">      0.00000000      0.00000000      0.00000000</v>
   <v name="WPLASMA">      0.00000000      0.00000000      0.00000000      0.00000000      0.00000000      0.00000000      0.00000000      0.00000000      0.00000000</v>
  </separator>
  <separator name="orbital magnetization" >
   <i type="logical" name="NUCIND"> F  </i>
   <v name="MAGPOS">      0.00000000      0.00000000      0.00000000</v>
   <i type="logical" name="LNICSALL"> T  </i>
   <i type="logical" name="ORBITALMAG"> F  </i>
   <i type="logical" name="LMAGBLOCH"> F  </i>
   <i type="logical" name="LCHIMAG"> F  </i>
   <i type="logical" name="LGAUGE"> T  </i>
   <i type="int" name="MAGATOM">     0</i>
   <v name="MAGDIPOL">      0.00000000      0.00000000      0.00000000</v>
   <v name="AVECCONST">      0.00000000      0.00000000      0.00000000</v>
  </separator>
  <separator name="response functions" >
   <i type="logical" name="LFINITE_TEMPERATURE"> F  </i>
   <i type="logical" name="LADDER"> F  </i>
   <i type="logical" name="LRPAFORCE"> F  </i>
   <i type="logical" name="LFXC"> F  </i>
   <i type="logical" name="LHARTREE"> T  </i>
   <i type="int" name="IBSE">     0</i>
   <v type="int" name="KPOINT">    -1     0     0     0</v>
   <i type="logical" name="LTCTC"> F  </i>
   <i type="logical" name="LTCTE"> F  </i>
   <i type="logical" name="LTETE"> F  </i>
   <i type="logical" name="LTRIPLET"> F  </i>
   <i type="logical" name="LFXCEPS"> F  </i>
   <i type="logical" name="LFXHEG"> F  </i>
   <i type="int" name="NATURALO">     2</i>
   <i type="logical" name="LHOLEGF"> F  </i>
   <i type="logical" name="L2ORDER"> F  </i>
   <i type="logical" name="LDMP1"> F  </i>
   <i type="logical" name="LMP2LT"> F  </i>
   <i type="logical" name="LSMP2LT"> F  </i>
   <i type="logical" name="LGWLF"> F  </i>
   <i name="ENCUTGW">     -2.00000000</i>
   <i name="ENCUTGWSOFT">     -2.00000000</i>
   <i name="ENCUTLF">     -1.00000000</i>
   <i type="logical" name="LESF_SPLINES"> F  </i>
   <i type="int" name="LMAXMP2">    -1</i>
   <i name="SCISSOR">      0.00000000</i>
   <i type="int" name="NOMEGA">     0</i>
   <i type="int" name="NOMEGAR">     0</i>
   <i type="int" name="NBANDSGW">    -1</i>
   <i type="int" name="NBANDSO">    -1</i>
   <i type="int" name="NBANDSV">    -1</i>
   <i type="int" name="NELM">   600</i>
   <i type="int" name="NELMHF">     1</i>
   <i type="int" name="DIM">     3</i>
   <i type="int" name="IESPILON">     4</i>
   <i type="int" name="ANTIRES">     0</i>
   <i name="OMEGAMAX">    -30.00000000</i>
   <i name="OMEGAMIN">    -30.00000000</i>
   <i name="OMEGATL">   -200.00000000</i>
   <i type="int" name="OMEGAGRID">     0</i>
   <i name="CSHIFT">     -0.10000000</i>
   <i type="logical" name="LSELFENERGY"> F  </i>
   <i type="logical" name="LSPECTRAL"> F  </i>
   <i type="logical" name="LSPECTRALGW"> F  </i>
   <i type="logical" name="LSINGLES"> F  </i>
   <i type="logical" name="LFERMIGW"> F  </i>
   <i type="logical" name="ODDONLYGW"> F  </i>
   <i type="logical" name="EVENONLYGW"> F  </i>
   <i type="int" name="NKREDLFX">     1</i>
   <i type="int" name="NKREDLFY">     1</i>
   <i type="int" name="NKREDLFZ">     1</i>
   <i type="int" name="MAXMEM">  2800</i>
   <i type="int" name="TELESCOPE">     0</i>
   <i type="int" name="NTAUPAR">    -1</i>
   <i type="int" name="NOMEGAPAR">    -1</i>
   <i name="DAMP_NEWTON">      0.80000001</i>
   <i name="LAMBDA">      1.00000000</i>
  </separator>
  <separator name="External order field" >
   <i name="OFIELD_KAPPA">      0.00000000</i>
   <v name="OFIELD_K">      0.00000000      0.00000000      0.00000000</v>
   <i name="OFIELD_Q6_NEAR">      0.00000000</i>
   <i name="OFIELD_Q6_FAR">      0.00000000</i>
   <i name="OFIELD_A">      0.00000000</i>
  </separator>
 </parameters>
 <atominfo>
  <atoms>     325 </atoms>
  <types>       5 </types>
  <array name="atoms" >
   <dimension dim="1">ion</dimension>
   <field type="string">element</field>
   <field type="int">atomtype</field>
   <set>
    <rc><c>H </c><c>   1</c></rc>
    <rc><c>H </c><c>   1</c></rc>
    <rc><c>H </c><c>   1</c></rc>
    <rc><c>H </c><c>   1</c></rc>
    <rc><c>H </c><c>   1</c></rc>
    <rc><c>H </c><c>   1</c></rc>
    <rc><c>H </c><c>   1</c></rc>
    <rc><c>H </c><c>   1</c></rc>
    <rc><c>H </c><c>   1</c></rc>
    <rc><c>H </c><c>   1</c></rc>
    <rc><c>H </c><c>   1</c></rc>
    <rc><c>H </c><c>   1</c></rc>
    <rc><c>H </c><c>   1</c></rc>
    <rc><c>H </c><c>   1</c></rc>
    <rc><c>H </c><c>   1</c></rc>
    <rc><c>H </c><c>   1</c></rc>
    <rc><c>H </c><c>   1</c></rc>
    <rc><c>H </c><c>   1</c></rc>
    <rc><c>H </c><c>   1</c></rc>
    <rc><c>H </c><c>   1</c></rc>
    <rc><c>H </c><c>   1</c></rc>
    <rc><c>H </c><c>   1</c></rc>
    <rc><c>H </c><c>   1</c></rc>
    <rc><c>H </c><c>   1</c></rc>
    <rc><c>H </c><c>   1</c></rc>
    <rc><c>H </c><c>   1</c></rc>
    <rc><c>H </c><c>   1</c></rc>
    <rc><c>H </c><c>   1</c></rc>
    <rc><c>H </c><c>   1</c></rc>
    <rc><c>H </c><c>   1</c></rc>
    <rc><c>H </c><c>   1</c></rc>
    <rc><c>H </c><c>   1</c></rc>
    <rc><c>H </c><c>   1</c></rc>
    <rc><c>H </c><c>   1</c></rc>
    <rc><c>H </c><c>   1</c></rc>
    <rc><c>H </c><c>   1</c></rc>
    <rc><c>H </c><c>   1</c></rc>
    <rc><c>H </c><c>   1</c></rc>
    <rc><c>H </c><c>   1</c></rc>
    <rc><c>H </c><c>   1</c></rc>
    <rc><c>H </c><c>   1</c></rc>
    <rc><c>H </c><c>   1</c></rc>
    <rc><c>H </c><c>   1</c></rc>
    <rc><c>H </c><c>   1</c></rc>
    <rc><c>H </c><c>   1</c></rc>
    <rc><c>H </c><c>   1</c></rc>
    <rc><c>H </c><c>   1</c></rc>
    <rc><c>H </c><c>   1</c></rc>
    <rc><c>H </c><c>   1</c></rc>
    <rc><c>H </c><c>   1</c></rc>
    <rc><c>H </c><c>   1</c></rc>
    <rc><c>H </c><c>   1</c></rc>
    <rc><c>H </c><c>   1</c></rc>
    <rc><c>H </c><c>   1</c></rc>
    <rc><c>H </c><c>   1</c></rc>
    <rc><c>H </c><c>   1</c></rc>
    <rc><c>H </c><c>   1</c></rc>
    <rc><c>H </c><c>   1</c></rc>
    <rc><c>H </c><c>   1</c></rc>
    <rc><c>H </c><c>   1</c></rc>
    <rc><c>H </c><c>   1</c></rc>
    <rc><c>H </c><c>   1</c></rc>
    <rc><c>H </c><c>   1</c></rc>
    <rc><c>H </c><c>   1</c></rc>
    <rc><c>H </c><c>   1</c></rc>
    <rc><c>H </c><c>   1</c></rc>
    <rc><c>H </c><c>   1</c></rc>
    <rc><c>H </c><c>   1</c></rc>
    <rc><c>H </c><c>   1</c></rc>
    <rc><c>H </c><c>   1</c></rc>
    <rc><c>H </c><c>   1</c></rc>
    <rc><c>H </c><c>   1</c></rc>
    <rc><c>H </c><c>   1</c></rc>
    <rc><c>H </c><c>   1</c></rc>
    <rc><c>H </c><c>   1</c></rc>
    <rc><c>H </c><c>   1</c></rc>
    <rc><c>H </c><c>   1</c></rc>
    <rc><c>H </c><c>   1</c></rc>
    <rc><c>H </c><c>   1</c></rc>
    <rc><c>H </c><c>   1</c></rc>
    <rc><c>H </c><c>   1</c></rc>
    <rc><c>H </c><c>   1</c></rc>
    <rc><c>H </c><c>   1</c></rc>
    <rc><c>H </c><c>   1</c></rc>
    <rc><c>H </c><c>   1</c></rc>
    <rc><c>H </c><c>   1</c></rc>
    <rc><c>H </c><c>   1</c></rc>
    <rc><c>H </c><c>   1</c></rc>
    <rc><c>H </c><c>   1</c></rc>
    <rc><c>H </c><c>   1</c></rc>
    <rc><c>H </c><c>   1</c></rc>
    <rc><c>H </c><c>   1</c></rc>
    <rc><c>H </c><c>   1</c></rc>
    <rc><c>H </c><c>   1</c></rc>
    <rc><c>H </c><c>   1</c></rc>
    <rc><c>H </c><c>   1</c></rc>
    <rc><c>H </c><c>   1</c></rc>
    <rc><c>H </c><c>   1</c></rc>
    <rc><c>H </c><c>   1</c></rc>
    <rc><c>H </c><c>   1</c></rc>
    <rc><c>H </c><c>   1</c></rc>
    <rc><c>H </c><c>   1</c></rc>
    <rc><c>H </c><c>   1</c></rc>
    <rc><c>H </c><c>   1</c></rc>
    <rc><c>H </c><c>   1</c></rc>
    <rc><c>H </c><c>   1</c></rc>
    <rc><c>H </c><c>   1</c></rc>
    <rc><c>H </c><c>   1</c></rc>
    <rc><c>H </c><c>   1</c></rc>
    <rc><c>H </c><c>   1</c></rc>
    <rc><c>H </c><c>   1</c></rc>
    <rc><c>H </c><c>   1</c></rc>
    <rc><c>H </c><c>   1</c></rc>
    <rc><c>H </c><c>   1</c></rc>
    <rc><c>H </c><c>   1</c></rc>
    <rc><c>H </c><c>   1</c></rc>
    <rc><c>H </c><c>   1</c></rc>
    <rc><c>H </c><c>   1</c></rc>
    <rc><c>H </c><c>   1</c></rc>
    <rc><c>H </c><c>   1</c></rc>
    <rc><c>H </c><c>   1</c></rc>
    <rc><c>H </c><c>   1</c></rc>
    <rc><c>H </c><c>   1</c></rc>
    <rc><c>H </c><c>   1</c></rc>
    <rc><c>H </c><c>   1</c></rc>
    <rc><c>H </c><c>   1</c></rc>
    <rc><c>H </c><c>   1</c></rc>
    <rc><c>H </c><c>   1</c></rc>
    <rc><c>H </c><c>   1</c></rc>
    <rc><c>H </c><c>   1</c></rc>
    <rc><c>H </c><c>   1</c></rc>
    <rc><c>H </c><c>   1</c></rc>
    <rc><c>H </c><c>   1</c></rc>
    <rc><c>H </c><c>   1</c></rc>
    <rc><c>H </c><c>   1</c></rc>
    <rc><c>H </c><c>   1</c></rc>
    <rc><c>H </c><c>   1</c></rc>
    <rc><c>H </c><c>   1</c></rc>
    <rc><c>H </c><c>   1</c></rc>
    <rc><c>H </c><c>   1</c></rc>
    <rc><c>H </c><c>   1</c></rc>
    <rc><c>H </c><c>   1</c></rc>
    <rc><c>H </c><c>   1</c></rc>
    <rc><c>C </c><c>   2</c></rc>
    <rc><c>C </c><c>   2</c></rc>
    <rc><c>C </c><c>   2</c></rc>
    <rc><c>C </c><c>   2</c></rc>
    <rc><c>C </c><c>   2</c></rc>
    <rc><c>C </c><c>   2</c></rc>
    <rc><c>C </c><c>   2</c></rc>
    <rc><c>C </c><c>   2</c></rc>
    <rc><c>C </c><c>   2</c></rc>
    <rc><c>C </c><c>   2</c></rc>
    <rc><c>C </c><c>   2</c></rc>
    <rc><c>C </c><c>   2</c></rc>
    <rc><c>C </c><c>   2</c></rc>
    <rc><c>C </c><c>   2</c></rc>
    <rc><c>C </c><c>   2</c></rc>
    <rc><c>C </c><c>   2</c></rc>
    <rc><c>C </c><c>   2</c></rc>
    <rc><c>C </c><c>   2</c></rc>
    <rc><c>C </c><c>   2</c></rc>
    <rc><c>C </c><c>   2</c></rc>
    <rc><c>C </c><c>   2</c></rc>
    <rc><c>C </c><c>   2</c></rc>
    <rc><c>C </c><c>   2</c></rc>
    <rc><c>C </c><c>   2</c></rc>
    <rc><c>C </c><c>   2</c></rc>
    <rc><c>C </c><c>   2</c></rc>
    <rc><c>C </c><c>   2</c></rc>
    <rc><c>C </c><c>   2</c></rc>
    <rc><c>C </c><c>   2</c></rc>
    <rc><c>C </c><c>   2</c></rc>
    <rc><c>C </c><c>   2</c></rc>
    <rc><c>C </c><c>   2</c></rc>
    <rc><c>C </c><c>   2</c></rc>
    <rc><c>C </c><c>   2</c></rc>
    <rc><c>C </c><c>   2</c></rc>
    <rc><c>C </c><c>   2</c></rc>
    <rc><c>C </c><c>   2</c></rc>
    <rc><c>C </c><c>   2</c></rc>
    <rc><c>C </c><c>   2</c></rc>
    <rc><c>N </c><c>   3</c></rc>
    <rc><c>N </c><c>   3</c></rc>
    <rc><c>N </c><c>   3</c></rc>
    <rc><c>N </c><c>   3</c></rc>
    <rc><c>N </c><c>   3</c></rc>
    <rc><c>N </c><c>   3</c></rc>
    <rc><c>N </c><c>   3</c></rc>
    <rc><c>N </c><c>   3</c></rc>
    <rc><c>N </c><c>   3</c></rc>
    <rc><c>N </c><c>   3</c></rc>
    <rc><c>N </c><c>   3</c></rc>
    <rc><c>N </c><c>   3</c></rc>
    <rc><c>N </c><c>   3</c></rc>
    <rc><c>N </c><c>   3</c></rc>
    <rc><c>N </c><c>   3</c></rc>
    <rc><c>N </c><c>   3</c></rc>
    <rc><c>N </c><c>   3</c></rc>
    <rc><c>N </c><c>   3</c></rc>
    <rc><c>N </c><c>   3</c></rc>
    <rc><c>N </c><c>   3</c></rc>
    <rc><c>N </c><c>   3</c></rc>
    <rc><c>N </c><c>   3</c></rc>
    <rc><c>N </c><c>   3</c></rc>
    <rc><c>N </c><c>   3</c></rc>
    <rc><c>N </c><c>   3</c></rc>
    <rc><c>N </c><c>   3</c></rc>
    <rc><c>N </c><c>   3</c></rc>
    <rc><c>N </c><c>   3</c></rc>
    <rc><c>N </c><c>   3</c></rc>
    <rc><c>N </c><c>   3</c></rc>
    <rc><c>N </c><c>   3</c></rc>
    <rc><c>N </c><c>   3</c></rc>
    <rc><c>N </c><c>   3</c></rc>
    <rc><c>N </c><c>   3</c></rc>
    <rc><c>N </c><c>   3</c></rc>
    <rc><c>N </c><c>   3</c></rc>
    <rc><c>N </c><c>   3</c></rc>
    <rc><c>N </c><c>   3</c></rc>
    <rc><c>N </c><c>   3</c></rc>
    <rc><c>N </c><c>   3</c></rc>
    <rc><c>N </c><c>   3</c></rc>
    <rc><c>N </c><c>   3</c></rc>
    <rc><c>N </c><c>   3</c></rc>
    <rc><c>N </c><c>   3</c></rc>
    <rc><c>N </c><c>   3</c></rc>
    <rc><c>N </c><c>   3</c></rc>
    <rc><c>N </c><c>   3</c></rc>
    <rc><c>I </c><c>   4</c></rc>
    <rc><c>I </c><c>   4</c></rc>
    <rc><c>I </c><c>   4</c></rc>
    <rc><c>I </c><c>   4</c></rc>
    <rc><c>I </c><c>   4</c></rc>
    <rc><c>I </c><c>   4</c></rc>
    <rc><c>I </c><c>   4</c></rc>
    <rc><c>I </c><c>   4</c></rc>
    <rc><c>I </c><c>   4</c></rc>
    <rc><c>I </c><c>   4</c></rc>
    <rc><c>I </c><c>   4</c></rc>
    <rc><c>I </c><c>   4</c></rc>
    <rc><c>I </c><c>   4</c></rc>
    <rc><c>I </c><c>   4</c></rc>
    <rc><c>I </c><c>   4</c></rc>
    <rc><c>I </c><c>   4</c></rc>
    <rc><c>I </c><c>   4</c></rc>
    <rc><c>I </c><c>   4</c></rc>
    <rc><c>I </c><c>   4</c></rc>
    <rc><c>I </c><c>   4</c></rc>
    <rc><c>I </c><c>   4</c></rc>
    <rc><c>I </c><c>   4</c></rc>
    <rc><c>I </c><c>   4</c></rc>
    <rc><c>I </c><c>   4</c></rc>
    <rc><c>I </c><c>   4</c></rc>
    <rc><c>I </c><c>   4</c></rc>
    <rc><c>I </c><c>   4</c></rc>
    <rc><c>I </c><c>   4</c></rc>
    <rc><c>I </c><c>   4</c></rc>
    <rc><c>I </c><c>   4</c></rc>
    <rc><c>I </c><c>   4</c></rc>
    <rc><c>I </c><c>   4</c></rc>
    <rc><c>I </c><c>   4</c></rc>
    <rc><c>I </c><c>   4</c></rc>
    <rc><c>I </c><c>   4</c></rc>
    <rc><c>I </c><c>   4</c></rc>
    <rc><c>I </c><c>   4</c></rc>
    <rc><c>I </c><c>   4</c></rc>
    <rc><c>I </c><c>   4</c></rc>
    <rc><c>I </c><c>   4</c></rc>
    <rc><c>I </c><c>   4</c></rc>
    <rc><c>I </c><c>   4</c></rc>
    <rc><c>I </c><c>   4</c></rc>
    <rc><c>I </c><c>   4</c></rc>
    <rc><c>I </c><c>   4</c></rc>
    <rc><c>I </c><c>   4</c></rc>
    <rc><c>I </c><c>   4</c></rc>
    <rc><c>I </c><c>   4</c></rc>
    <rc><c>I </c><c>   4</c></rc>
    <rc><c>I </c><c>   4</c></rc>
    <rc><c>I </c><c>   4</c></rc>
    <rc><c>I </c><c>   4</c></rc>
    <rc><c>I </c><c>   4</c></rc>
    <rc><c>I </c><c>   4</c></rc>
    <rc><c>I </c><c>   4</c></rc>
    <rc><c>I </c><c>   4</c></rc>
    <rc><c>I </c><c>   4</c></rc>
    <rc><c>I </c><c>   4</c></rc>
    <rc><c>I </c><c>   4</c></rc>
    <rc><c>I </c><c>   4</c></rc>
    <rc><c>I </c><c>   4</c></rc>
    <rc><c>I </c><c>   4</c></rc>
    <rc><c>I </c><c>   4</c></rc>
    <rc><c>I </c><c>   4</c></rc>
    <rc><c>I </c><c>   4</c></rc>
    <rc><c>I </c><c>   4</c></rc>
    <rc><c>I </c><c>   4</c></rc>
    <rc><c>I </c><c>   4</c></rc>
    <rc><c>I </c><c>   4</c></rc>
    <rc><c>I </c><c>   4</c></rc>
    <rc><c>I </c><c>   4</c></rc>
    <rc><c>I </c><c>   4</c></rc>
    <rc><c>Pb</c><c>   5</c></rc>
    <rc><c>Pb</c><c>   5</c></rc>
    <rc><c>Pb</c><c>   5</c></rc>
    <rc><c>Pb</c><c>   5</c></rc>
    <rc><c>Pb</c><c>   5</c></rc>
    <rc><c>Pb</c><c>   5</c></rc>
    <rc><c>Pb</c><c>   5</c></rc>
    <rc><c>Pb</c><c>   5</c></rc>
    <rc><c>Pb</c><c>   5</c></rc>
    <rc><c>Pb</c><c>   5</c></rc>
    <rc><c>Pb</c><c>   5</c></rc>
    <rc><c>Pb</c><c>   5</c></rc>
    <rc><c>Pb</c><c>   5</c></rc>
    <rc><c>Pb</c><c>   5</c></rc>
    <rc><c>Pb</c><c>   5</c></rc>
    <rc><c>Pb</c><c>   5</c></rc>
    <rc><c>Pb</c><c>   5</c></rc>
    <rc><c>Pb</c><c>   5</c></rc>
    <rc><c>Pb</c><c>   5</c></rc>
    <rc><c>Pb</c><c>   5</c></rc>
    <rc><c>Pb</c><c>   5</c></rc>
    <rc><c>Pb</c><c>   5</c></rc>
    <rc><c>Pb</c><c>   5</c></rc>
    <rc><c>Pb</c><c>   5</c></rc>
   </set>
  </array>
  <array name="atomtypes" >
   <dimension dim="1">type</dimension>
   <field type="int">atomspertype</field>
   <field type="string">element</field>
   <field>mass</field>
   <field>valence</field>
   <field type="string">pseudopotential</field>
   <set>
    <rc><c> 143</c><c>H </c><c>      1.00000000</c><c>      1.00000000</c><c>  PAW_PBE H 15Jun2001                   </c></rc>
    <rc><c>  39</c><c>C </c><c>     12.01100000</c><c>      4.00000000</c><c>  PAW_PBE C 08Apr2002                   </c></rc>
    <rc><c>  47</c><c>N </c><c>     14.00100000</c><c>      5.00000000</c><c>  PAW_PBE N 08Apr2002                   </c></rc>
    <rc><c>  72</c><c>I </c><c>    126.90400000</c><c>      7.00000000</c><c>  PAW_PBE I 08Apr2002                   </c></rc>
    <rc><c>  24</c><c>Pb</c><c>    207.20000000</c><c>      4.00000000</c><c>  PAW_PBE Pb 08Apr2002                  </c></rc>
   </set>
  </array>
 </atominfo>
 <structure name="initialpos" >
  <crystal>
   <varray name="basis" >
    <v>      18.06080055       0.00000000       0.00000000 </v>
    <v>      -0.00491865      18.06279945       0.00000000 </v>
    <v>       0.00000000       0.00000000      62.48749924 </v>
   </varray>
   <i name="volume">  20385.21054034 </i>
   <varray name="rec_basis" >
    <v>       0.05536853       0.00001508      -0.00000000 </v>
    <v>       0.00000000       0.05536240       0.00000000 </v>
    <v>       0.00000000      -0.00000000       0.01600320 </v>
   </varray>
  </crystal>
  <varray name="positions" >
   <v>       0.45658581       0.32336705       0.57669243 </v>
   <v>       0.44986453       0.84522211       0.57459686 </v>
   <v>       0.92355859       0.24727408       0.58104688 </v>
   <v>       0.94801997       0.80616564       0.58137941 </v>
   <v>       0.29970610       0.06119250       0.57705334 </v>
   <v>       0.31587863       0.56596101       0.57823962 </v>
   <v>       0.79505885       0.07531755       0.57979327 </v>
   <v>       0.10819186       0.23512749       0.55838811 </v>
   <v>       0.09484988       0.67949334       0.56524379 </v>
   <v>       0.56938922       0.17248068       0.55618412 </v>
   <v>       0.49818143       0.65199651       0.56621194 </v>
   <v>       0.36102812       0.01291631       0.56051262 </v>
   <v>       0.27700313       0.62201729       0.55832865 </v>
   <v>       0.86947963       0.03262188       0.56660661 </v>
   <v>       0.06178866       0.22784376       0.58278258 </v>
   <v>       0.02768949       0.69198169       0.58504206 </v>
   <v>       0.57163031       0.25060226       0.57326352 </v>
   <v>       0.47161461       0.71254391       0.58623462 </v>
   <v>       0.27161239       0.43598949       0.58004870 </v>
   <v>       0.16660421       0.02904210       0.57351058 </v>
   <v>       0.67452848       0.01387789       0.57765320 </v>
   <v>       0.37867918       0.28997998       0.56227445 </v>
   <v>       0.48228323       0.86779587       0.54938827 </v>
   <v>       0.88085370       0.24988194       0.55629339 </v>
   <v>       0.97484465       0.86764709       0.56138822 </v>
   <v>       0.20097429       0.41081169       0.56218038 </v>
   <v>       0.14196975       0.96449856       0.55390150 </v>
   <v>       0.67235989       0.92876277       0.56322587 </v>
   <v>       0.44382900       0.19227669       0.54679516 </v>
   <v>       0.51540971       0.74374704       0.54101751 </v>
   <v>       0.99706144       0.24839416       0.53882298 </v>
   <v>       0.06450500       0.79058926       0.54787142 </v>
   <v>       0.19844776       0.52821757       0.54607315 </v>
   <v>       0.26677399       0.94618736       0.54371049 </v>
   <v>       0.79298624       0.93391001       0.55411614 </v>
   <v>       0.46250986       0.31004949       0.67565449 </v>
   <v>       0.43107980       0.81015134       0.67282635 </v>
   <v>       0.95914040       0.27914130       0.67915244 </v>
   <v>       0.92925022       0.77975174       0.67427122 </v>
   <v>       0.30438451       0.05614011       0.67408942 </v>
   <v>       0.29548297       0.53929865       0.67784951 </v>
   <v>       0.79008783       0.05131000       0.67650366 </v>
   <v>       0.84668114       0.50366448       0.66807027 </v>
   <v>       0.08825617       0.17649484       0.64514558 </v>
   <v>       0.09575945       0.69080081       0.65349222 </v>
   <v>       0.57472127       0.16647384       0.64961180 </v>
   <v>       0.57548379       0.67922877       0.65560195 </v>
   <v>       0.17384817       0.41682086       0.64657708 </v>
   <v>       0.17592957       0.92232382       0.64996905 </v>
   <v>       0.64889219       0.47626997       0.65828010 </v>
   <v>       0.67214865       0.91781787       0.64795205 </v>
   <v>       0.06616160       0.18362385       0.67209042 </v>
   <v>       0.03794000       0.68754789       0.67551359 </v>
   <v>       0.56593513       0.21007729       0.67422842 </v>
   <v>       0.53391789       0.71042846       0.67888005 </v>
   <v>       0.19729486       0.43403624       0.67307725 </v>
   <v>       0.20110149       0.95458028       0.67494640 </v>
   <v>       0.72043279       0.44304200       0.67440277 </v>
   <v>       0.69122183       0.94617123       0.67386678 </v>
   <v>       0.41540258       0.32103609       0.65163729 </v>
   <v>       0.41853144       0.83225906       0.64586667 </v>
   <v>       0.92487065       0.32082466       0.65642951 </v>
   <v>       0.92705866       0.83506758       0.65117724 </v>
   <v>       0.33279356       0.07833528       0.64834824 </v>
   <v>       0.32383126       0.57998667       0.65387175 </v>
   <v>       0.82650272       0.07647077       0.65184021 </v>
   <v>       0.85192257       0.56295920       0.64581801 </v>
   <v>       0.00170397       0.26220556       0.63362258 </v>
   <v>       0.03219762       0.78250842       0.63667867 </v>
   <v>       0.48061295       0.23281007       0.63343852 </v>
   <v>       0.50856899       0.75241953       0.63333413 </v>
   <v>       0.25332057       0.99598672       0.63141206 </v>
   <v>       0.25077913       0.50726824       0.63275589 </v>
   <v>       0.75428747       0.99555715       0.63217936 </v>
   <v>       0.72481957       0.55188652       0.63831194 </v>
   <v>       0.44874502       0.30128397       0.76888902 </v>
   <v>       0.44874501       0.80128391       0.76888902 </v>
   <v>       0.94874497       0.30128397       0.76888902 </v>
   <v>       0.94874501       0.80128391       0.76888902 </v>
   <v>       0.30127600       0.05129450       0.76887296 </v>
   <v>       0.30127601       0.55129450       0.76887296 </v>
   <v>       0.80127594       0.05129450       0.76887296 </v>
   <v>       0.80127598       0.55129450       0.76887296 </v>
   <v>       0.07877100       0.17118050       0.74344197 </v>
   <v>       0.07877101       0.67118045       0.74344197 </v>
   <v>       0.57877100       0.17118050       0.74344197 </v>
   <v>       0.57877099       0.67118045       0.74344197 </v>
   <v>       0.17119950       0.42117448       0.74342103 </v>
   <v>       0.17119950       0.92117451       0.74342103 </v>
   <v>       0.67119951       0.42117448       0.74342103 </v>
   <v>       0.67119950       0.92117451       0.74342103 </v>
   <v>       0.05125600       0.19871499       0.76888902 </v>
   <v>       0.05125600       0.69871493       0.76888902 </v>
   <v>       0.55125603       0.19871499       0.76888902 </v>
   <v>       0.55125602       0.69871493       0.76888902 </v>
   <v>       0.19872349       0.44870397       0.76887205 </v>
   <v>       0.19872349       0.94870397       0.76887205 </v>
   <v>       0.69872352       0.44870397       0.76887205 </v>
   <v>       0.69872351       0.94870397       0.76887205 </v>
   <v>       0.42123152       0.32881747       0.74344197 </v>
   <v>       0.42123151       0.82881744       0.74344197 </v>
   <v>       0.92123147       0.32881747       0.74344197 </v>
   <v>       0.92123151       0.82881744       0.74344197 </v>
   <v>       0.32880050       0.07882500       0.74342103 </v>
   <v>       0.32880049       0.57882496       0.74342103 </v>
   <v>       0.82880048       0.07882500       0.74342103 </v>
   <v>       0.82880052       0.57882496       0.74342103 </v>
   <v>       0.00000350       0.25000148       0.72582199 </v>
   <v>       0.00000350       0.75000145       0.72582199 </v>
   <v>       0.50000351       0.25000148       0.72582199 </v>
   <v>       0.50000350       0.75000145       0.72582199 </v>
   <v>       0.25000050       0.00000000       0.72580398 </v>
   <v>       0.25000052       0.50000000       0.72580398 </v>
   <v>       0.75000050       0.00000000       0.72580398 </v>
   <v>       0.75000049       0.50000000       0.72580398 </v>
   <v>       0.71726139       0.43850670       0.54201112 </v>
   <v>       0.73655332       0.49704988       0.52052593 </v>
   <v>       0.65367237       0.54968501       0.56163766 </v>
   <v>       0.70124382       0.63536328       0.55988243 </v>
   <v>       0.84263712       0.50461426       0.57273742 </v>
   <v>       0.77808270       0.56927085       0.58251135 </v>
   <v>       0.86517978       0.55765351       0.53399316 </v>
   <v>       0.79261564       0.62386431       0.52783500 </v>
   <v>       0.86677613       0.46747609       0.51950668 </v>
   <v>       0.86397611       0.43005579       0.54524101 </v>
   <v>       0.87472985       0.33282370       0.51958305 </v>
   <v>       0.78635304       0.32394651       0.53122600 </v>
   <v>       0.63637204       0.54799961       0.52135825 </v>
   <v>       0.69101905       0.63151158       0.51922458 </v>
   <v>       0.60564128       0.63275602       0.53282013 </v>
   <v>       0.75328890       0.44770974       0.59886136 </v>
   <v>       0.74279434       0.40421847       0.57355442 </v>
   <v>       0.67859064       0.47179336       0.58240720 </v>
   <v>       0.82655253       0.68492923       0.56417888 </v>
   <v>       0.89155224       0.68736263       0.54343450 </v>
   <v>       0.90600945       0.62267414       0.56491560 </v>
   <v>       0.82005844       0.39082890       0.48718634 </v>
   <v>       0.78540634       0.29996962       0.49202041 </v>
   <v>       0.66270909       0.32022834       0.52275971 </v>
   <v>       0.73370649       0.46281336       0.47148896 </v>
   <v>       0.53817033       0.37720054       0.52130019 </v>
   <v>       0.60907046       0.52034860       0.47005560 </v>
   <v>       0.50909848       0.47720317       0.49476113 </v>
   <v>       0.99459714       0.24430685       0.55623107 </v>
   <v>       0.03281538       0.77318007       0.56198844 </v>
   <v>       0.47248741       0.22981272       0.55773875 </v>
   <v>       0.49431241       0.75939892       0.55706430 </v>
   <v>       0.23746112       0.51625926       0.55917452 </v>
   <v>       0.25292026       0.98687907       0.55618058 </v>
   <v>       0.77027195       0.97967267       0.56379105 </v>
   <v>       0.00627360       0.24903913       0.65033546 </v>
   <v>       0.01174804       0.76343393       0.65195004 </v>
   <v>       0.49480564       0.24400722       0.64994726 </v>
   <v>       0.49688429       0.75643512       0.65024926 </v>
   <v>       0.24894926       0.49888708       0.64982553 </v>
   <v>       0.25493882       0.00075531       0.64865342 </v>
   <v>       0.75012492       0.51968372       0.65109300 </v>
   <v>       0.75003641       0.99768915       0.64940845 </v>
   <v>       0.49998898       0.24999498       0.74327702 </v>
   <v>       0.49998903       0.74999496       0.74327702 </v>
   <v>       0.99998898       0.24999498       0.74327702 </v>
   <v>       0.99998903       0.74999496       0.74327702 </v>
   <v>       0.25000050       0.00000100       0.74325596 </v>
   <v>       0.25000052       0.50000100       0.74325596 </v>
   <v>       0.75000050       0.00000100       0.74325596 </v>
   <v>       0.75000049       0.50000100       0.74325596 </v>
   <v>       0.70715435       0.38822539       0.49733623 </v>
   <v>       0.64983698       0.36334336       0.51101084 </v>
   <v>       0.68999307       0.44400614       0.48262055 </v>
   <v>       0.58029950       0.39548571       0.51012852 </v>
   <v>       0.61935786       0.47554078       0.48161903 </v>
   <v>       0.56534775       0.45130589       0.49530918 </v>
   <v>       0.75928819       0.47491101       0.53509476 </v>
   <v>       0.69026810       0.58255285       0.55138415 </v>
   <v>       0.78382404       0.51872476       0.57287252 </v>
   <v>       0.82265823       0.59424485       0.54065788 </v>
   <v>       0.83135409       0.43569955       0.53044063 </v>
   <v>       0.81977374       0.35909954       0.52062104 </v>
   <v>       0.65474520       0.59823250       0.52974188 </v>
   <v>       0.73666143       0.45700340       0.58215922 </v>
   <v>       0.86340091       0.64947225       0.55474151 </v>
   <v>       0.78514175       0.35758144       0.49842602 </v>
   <v>       0.05719179       0.23366262       0.56645204 </v>
   <v>       0.05278752       0.71128326       0.57130305 </v>
   <v>       0.54218525       0.21644676       0.56275593 </v>
   <v>       0.49185745       0.70565825       0.57116319 </v>
   <v>       0.43468924       0.28740580       0.56519819 </v>
   <v>       0.47484712       0.82764607       0.56030903 </v>
   <v>       0.92932932       0.25013189       0.56484778 </v>
   <v>       0.97785125       0.81554663       0.56811790 </v>
   <v>       0.23659097       0.44985554       0.56773343 </v>
   <v>       0.18288971       0.99324294       0.56179736 </v>
   <v>       0.69938442       0.97642229       0.56770455 </v>
   <v>       0.30702180       0.02408847       0.56493611 </v>
   <v>       0.28110399       0.57035489       0.56552962 </v>
   <v>       0.81374489       0.03294745       0.57077243 </v>
   <v>       0.05680246       0.20012140       0.65658134 </v>
   <v>       0.05088924       0.70987947       0.66112045 </v>
   <v>       0.54910371       0.20438612       0.65873081 </v>
   <v>       0.53771736       0.71311381       0.66244964 </v>
   <v>       0.20489078       0.44701719       0.65703748 </v>
   <v>       0.20765945       0.95632043       0.65855945 </v>
   <v>       0.70497507       0.47521407       0.66158783 </v>
   <v>       0.70143469       0.95089798       0.65760339 </v>
   <v>       0.45605460       0.29427357       0.65970312 </v>
   <v>       0.44661376       0.80189716       0.65687589 </v>
   <v>       0.96068843       0.28445565       0.66309033 </v>
   <v>       0.95255188       0.79468557       0.66007038 </v>
   <v>       0.29930850       0.04719589       0.65766279 </v>
   <v>       0.29154523       0.54079557       0.66138351 </v>
   <v>       0.79045097       0.04400140       0.66000145 </v>
   <v>       0.81999750       0.52847290       0.65522969 </v>
   <v>       0.04586250       0.20411950       0.75272599 </v>
   <v>       0.04586250       0.70411946       0.75272599 </v>
   <v>       0.54586251       0.20411950       0.75272599 </v>
   <v>       0.54586250       0.70411946       0.75272599 </v>
   <v>       0.20411900       0.45410100       0.75270499 </v>
   <v>       0.20411899       0.95410095       0.75270499 </v>
   <v>       0.70411898       0.45410100       0.75270499 </v>
   <v>       0.70411896       0.95410095       0.75270499 </v>
   <v>       0.45414002       0.29588849       0.75272697 </v>
   <v>       0.45414001       0.79588852       0.75272697 </v>
   <v>       0.95414002       0.29588849       0.75272697 </v>
[...]
   <v>       0.56938922       0.17248068       0.55618412 </v>
   <v>       0.49818143       0.65199651       0.56621194 </v>
   <v>       0.36102812       0.01291631       0.56051262 </v>
   <v>       0.27700313       0.62201729       0.55832865 </v>
   <v>       0.86947963       0.03262188       0.56660661 </v>
   <v>       0.06178866       0.22784376       0.58278258 </v>
   <v>       0.02768949       0.69198169       0.58504206 </v>
   <v>       0.57163031       0.25060226       0.57326352 </v>
   <v>       0.47161461       0.71254391       0.58623462 </v>
   <v>       0.27161239       0.43598949       0.58004870 </v>
   <v>       0.16660421       0.02904210       0.57351058 </v>
   <v>       0.67452848       0.01387789       0.57765320 </v>
   <v>       0.37867918       0.28997998       0.56227445 </v>
   <v>       0.48228323       0.86779587       0.54938827 </v>
   <v>       0.88085370       0.24988194       0.55629339 </v>
   <v>       0.97484465       0.86764709       0.56138822 </v>
   <v>       0.20097429       0.41081169       0.56218038 </v>
   <v>       0.14196975       0.96449856       0.55390150 </v>
   <v>       0.67235989       0.92876277       0.56322587 </v>
   <v>       0.44382900       0.19227669       0.54679516 </v>
   <v>       0.51540971       0.74374704       0.54101751 </v>
   <v>       0.99706144       0.24839416       0.53882298 </v>
   <v>       0.06450500       0.79058926       0.54787142 </v>
   <v>       0.19844776       0.52821757       0.54607315 </v>
   <v>       0.26677399       0.94618736       0.54371049 </v>
   <v>       0.79298624       0.93391001       0.55411614 </v>
   <v>       0.46250986       0.31004949       0.67565449 </v>
   <v>       0.43107980       0.81015134       0.67282635 </v>
   <v>       0.95914040       0.27914130       0.67915244 </v>
   <v>       0.92925022       0.77975174       0.67427122 </v>
   <v>       0.30438451       0.05614011       0.67408942 </v>
   <v>       0.29548297       0.53929865       0.67784951 </v>
   <v>       0.79008783       0.05131000       0.67650366 </v>
   <v>       0.84668114       0.50366448       0.66807027 </v>
   <v>       0.08825617       0.17649484       0.64514558 </v>
   <v>       0.09575945       0.69080081       0.65349222 </v>
   <v>       0.57472127       0.16647384       0.64961180 </v>
   <v>       0.57548379       0.67922877       0.65560195 </v>
   <v>       0.17384817       0.41682086       0.64657708 </v>
   <v>       0.17592957       0.92232382       0.64996905 </v>
   <v>       0.64889219       0.47626997       0.65828010 </v>
   <v>       0.67214865       0.91781787       0.64795205 </v>
   <v>       0.06616160       0.18362385       0.67209042 </v>
   <v>       0.03794000       0.68754789       0.67551359 </v>
   <v>       0.56593513       0.21007729       0.67422842 </v>
   <v>       0.53391789       0.71042846       0.67888005 </v>
   <v>       0.19729486       0.43403624       0.67307725 </v>
   <v>       0.20110149       0.95458028       0.67494640 </v>
   <v>       0.72043279       0.44304200       0.67440277 </v>
   <v>       0.69122183       0.94617123       0.67386678 </v>
   <v>       0.41540258       0.32103609       0.65163729 </v>
   <v>       0.41853144       0.83225906       0.64586667 </v>
   <v>       0.92487065       0.32082466       0.65642951 </v>
   <v>       0.92705866       0.83506758       0.65117724 </v>
   <v>       0.33279356       0.07833528       0.64834824 </v>
   <v>       0.32383126       0.57998667       0.65387175 </v>
   <v>       0.82650272       0.07647077       0.65184021 </v>
   <v>       0.85192257       0.56295920       0.64581801 </v>
   <v>       0.00170397       0.26220556       0.63362258 </v>
   <v>       0.03219762       0.78250842       0.63667867 </v>
   <v>       0.48061295       0.23281007       0.63343852 </v>
   <v>       0.50856899       0.75241953       0.63333413 </v>
   <v>       0.25332057       0.99598672       0.63141206 </v>
   <v>       0.25077913       0.50726824       0.63275589 </v>
   <v>       0.75428747       0.99555715       0.63217936 </v>
   <v>       0.72481957       0.55188652       0.63831194 </v>
   <v>       0.44874502       0.30128397       0.76888902 </v>
   <v>       0.44874501       0.80128391       0.76888902 </v>
   <v>       0.94874497       0.30128397       0.76888902 </v>
   <v>       0.94874501       0.80128391       0.76888902 </v>
   <v>       0.30127600       0.05129450       0.76887296 </v>
   <v>       0.30127601       0.55129450       0.76887296 </v>
   <v>       0.80127594       0.05129450       0.76887296 </v>
   <v>       0.80127598       0.55129450       0.76887296 </v>
   <v>       0.07877100       0.17118050       0.74344197 </v>
   <v>       0.07877101       0.67118045       0.74344197 </v>
   <v>       0.57877100       0.17118050       0.74344197 </v>
   <v>       0.57877099       0.67118045       0.74344197 </v>
   <v>       0.17119950       0.42117448       0.74342103 </v>
   <v>       0.17119950       0.92117451       0.74342103 </v>
   <v>       0.67119951       0.42117448       0.74342103 </v>
   <v>       0.67119950       0.92117451       0.74342103 </v>
   <v>       0.05125600       0.19871499       0.76888902 </v>
   <v>       0.05125600       0.69871493       0.76888902 </v>
   <v>       0.55125603       0.19871499       0.76888902 </v>
   <v>       0.55125602       0.69871493       0.76888902 </v>
   <v>       0.19872349       0.44870397       0.76887205 </v>
   <v>       0.19872349       0.94870397       0.76887205 </v>
   <v>       0.69872352       0.44870397       0.76887205 </v>
   <v>       0.69872351       0.94870397       0.76887205 </v>
   <v>       0.42123152       0.32881747       0.74344197 </v>
   <v>       0.42123151       0.82881744       0.74344197 </v>
   <v>       0.92123147       0.32881747       0.74344197 </v>
   <v>       0.92123151       0.82881744       0.74344197 </v>
   <v>       0.32880050       0.07882500       0.74342103 </v>
   <v>       0.32880049       0.57882496       0.74342103 </v>
   <v>       0.82880048       0.07882500       0.74342103 </v>
   <v>       0.82880052       0.57882496       0.74342103 </v>
   <v>       0.00000350       0.25000148       0.72582199 </v>
   <v>       0.00000350       0.75000145       0.72582199 </v>
   <v>       0.50000351       0.25000148       0.72582199 </v>
   <v>       0.50000350       0.75000145       0.72582199 </v>
   <v>       0.25000050       0.00000000       0.72580398 </v>
   <v>       0.25000052       0.50000000       0.72580398 </v>
   <v>       0.75000050       0.00000000       0.72580398 </v>
   <v>       0.75000049       0.50000000       0.72580398 </v>
   <v>       0.71726139       0.43850670       0.54201112 </v>
   <v>       0.73655332       0.49704988       0.52052593 </v>
   <v>       0.65367237       0.54968501       0.56163766 </v>
   <v>       0.70124382       0.63536328       0.55988243 </v>
   <v>       0.84263712       0.50461426       0.57273742 </v>
   <v>       0.77808270       0.56927085       0.58251135 </v>
   <v>       0.86517978       0.55765351       0.53399316 </v>
   <v>       0.79261564       0.62386431       0.52783500 </v>
   <v>       0.86677613       0.46747609       0.51950668 </v>
   <v>       0.86397611       0.43005579       0.54524101 </v>
   <v>       0.87472985       0.33282370       0.51958305 </v>
   <v>       0.78635304       0.32394651       0.53122600 </v>
   <v>       0.63637204       0.54799961       0.52135825 </v>
   <v>       0.69101905       0.63151158       0.51922458 </v>
   <v>       0.60564128       0.63275602       0.53282013 </v>
   <v>       0.75328890       0.44770974       0.59886136 </v>
   <v>       0.74279434       0.40421847       0.57355442 </v>
   <v>       0.67859064       0.47179336       0.58240720 </v>
   <v>       0.82655253       0.68492923       0.56417888 </v>
   <v>       0.89155224       0.68736263       0.54343450 </v>
   <v>       0.90600945       0.62267414       0.56491560 </v>
   <v>       0.82005844       0.39082890       0.48718634 </v>
   <v>       0.78540634       0.29996962       0.49202041 </v>
   <v>       0.66270909       0.32022834       0.52275971 </v>
   <v>       0.73370649       0.46281336       0.47148896 </v>
   <v>       0.53817033       0.37720054       0.52130019 </v>
   <v>       0.60907046       0.52034860       0.47005560 </v>
   <v>       0.50909848       0.47720317       0.49476113 </v>
   <v>       0.99459714       0.24430685       0.55623107 </v>
   <v>       0.03281538       0.77318007       0.56198844 </v>
   <v>       0.47248741       0.22981272       0.55773875 </v>
   <v>       0.49431241       0.75939892       0.55706430 </v>
   <v>       0.23746112       0.51625926       0.55917452 </v>
   <v>       0.25292026       0.98687907       0.55618058 </v>
   <v>       0.77027195       0.97967267       0.56379105 </v>
   <v>       0.00627360       0.24903913       0.65033546 </v>
   <v>       0.01174804       0.76343393       0.65195004 </v>
   <v>       0.49480564       0.24400722       0.64994726 </v>
   <v>       0.49688429       0.75643512       0.65024926 </v>
   <v>       0.24894926       0.49888708       0.64982553 </v>
   <v>       0.25493882       0.00075531       0.64865342 </v>
   <v>       0.75012492       0.51968372       0.65109300 </v>
   <v>       0.75003641       0.99768915       0.64940845 </v>
   <v>       0.49998898       0.24999498       0.74327702 </v>
   <v>       0.49998903       0.74999496       0.74327702 </v>
   <v>       0.99998898       0.24999498       0.74327702 </v>
   <v>       0.99998903       0.74999496       0.74327702 </v>
   <v>       0.25000050       0.00000100       0.74325596 </v>
   <v>       0.25000052       0.50000100       0.74325596 </v>
   <v>       0.75000050       0.00000100       0.74325596 </v>
   <v>       0.75000049       0.50000100       0.74325596 </v>
   <v>       0.70715435       0.38822539       0.49733623 </v>
   <v>       0.64983698       0.36334336       0.51101084 </v>
   <v>       0.68999307       0.44400614       0.48262055 </v>
   <v>       0.58029950       0.39548571       0.51012852 </v>
   <v>       0.61935786       0.47554078       0.48161903 </v>
   <v>       0.56534775       0.45130589       0.49530918 </v>
   <v>       0.75928819       0.47491101       0.53509476 </v>
   <v>       0.69026810       0.58255285       0.55138415 </v>
   <v>       0.78382404       0.51872476       0.57287252 </v>
   <v>       0.82265823       0.59424485       0.54065788 </v>
   <v>       0.83135409       0.43569955       0.53044063 </v>
   <v>       0.81977374       0.35909954       0.52062104 </v>
   <v>       0.65474520       0.59823250       0.52974188 </v>
   <v>       0.73666143       0.45700340       0.58215922 </v>
   <v>       0.86340091       0.64947225       0.55474151 </v>
   <v>       0.78514175       0.35758144       0.49842602 </v>
   <v>       0.05719179       0.23366262       0.56645204 </v>
   <v>       0.05278752       0.71128326       0.57130305 </v>
   <v>       0.54218525       0.21644676       0.56275593 </v>
   <v>       0.49185745       0.70565825       0.57116319 </v>
   <v>       0.43468924       0.28740580       0.56519819 </v>
   <v>       0.47484712       0.82764607       0.56030903 </v>
   <v>       0.92932932       0.25013189       0.56484778 </v>
   <v>       0.97785125       0.81554663       0.56811790 </v>
   <v>       0.23659097       0.44985554       0.56773343 </v>
   <v>       0.18288971       0.99324294       0.56179736 </v>
   <v>       0.69938442       0.97642229       0.56770455 </v>
   <v>       0.30702180       0.02408847       0.56493611 </v>
   <v>       0.28110399       0.57035489       0.56552962 </v>
   <v>       0.81374489       0.03294745       0.57077243 </v>
   <v>       0.05680246       0.20012140       0.65658134 </v>
   <v>       0.05088924       0.70987947       0.66112045 </v>
   <v>       0.54910371       0.20438612       0.65873081 </v>
   <v>       0.53771736       0.71311381       0.66244964 </v>
   <v>       0.20489078       0.44701719       0.65703748 </v>
   <v>       0.20765945       0.95632043       0.65855945 </v>
   <v>       0.70497507       0.47521407       0.66158783 </v>
   <v>       0.70143469       0.95089798       0.65760339 </v>
   <v>       0.45605460       0.29427357       0.65970312 </v>
   <v>       0.44661376       0.80189716       0.65687589 </v>
   <v>       0.96068843       0.28445565       0.66309033 </v>
   <v>       0.95255188       0.79468557       0.66007038 </v>
   <v>       0.29930850       0.04719589       0.65766279 </v>
   <v>       0.29154523       0.54079557       0.66138351 </v>
   <v>       0.79045097       0.04400140       0.66000145 </v>
   <v>       0.81999750       0.52847290       0.65522969 </v>
   <v>       0.04586250       0.20411950       0.75272599 </v>
   <v>       0.04586250       0.70411946       0.75272599 </v>
   <v>       0.54586251       0.20411950       0.75272599 </v>
   <v>       0.54586250       0.70411946       0.75272599 </v>
   <v>       0.20411900       0.45410100       0.75270499 </v>
   <v>       0.20411899       0.95410095       0.75270499 </v>
   <v>       0.70411898       0.45410100       0.75270499 </v>
   <v>       0.70411896       0.95410095       0.75270499 </v>
   <v>       0.45414002       0.29588849       0.75272697 </v>
   <v>       0.45414001       0.79588852       0.75272697 </v>
   <v>       0.95414002       0.29588849       0.75272697 </v>
   <v>       0.95414006       0.79588852       0.75272697 </v>
   <v>       0.29588249       0.04590050       0.75270499 </v>
   <v>       0.29588248       0.54590053       0.75270499 </v>
   <v>       0.79588244       0.04590050       0.75270499 </v>
   <v>       0.79588248       0.54590053       0.75270499 </v>
   <v>       0.76488726       0.54176858       0.55026704 </v>
   <v>       0.50108144       0.01752303       0.55252457 </v>
   <v>       0.48242593       0.51519930       0.55563781 </v>
   <v>       0.99405034       0.00404541       0.55248709 </v>
   <v>       0.03479137       0.50458918       0.55346733 </v>
   <v>       0.24584790       0.24634046       0.55250650 </v>
   <v>       0.25147202       0.76292036       0.55219296 </v>
   <v>       0.74425110       0.21311366       0.55724225 </v>
   <v>       0.70735982       0.79117347       0.54883988 </v>
   <v>       0.00715855       0.99815269       0.65497951 </v>
   <v>       0.01262242       0.49017086       0.65541020 </v>
   <v>       0.50078299       0.00374338       0.65460383 </v>
   <v>       0.50656325       0.49319021       0.65557058 </v>
   <v>       0.25388005       0.24504963       0.65468942 </v>
   <v>       0.24812863       0.75476291       0.65464455 </v>
   <v>       0.74427842       0.25661423       0.65592428 </v>
   <v>       0.74818298       0.75044316       0.65327257 </v>
   <v>       0.14109836       0.11083741       0.60710818 </v>
   <v>       0.14341845       0.61120257       0.61116417 </v>
   <v>       0.64585570       0.10821182       0.60969244 </v>
   <v>       0.62120930       0.62868395       0.61470614 </v>
   <v>       0.35805256       0.39408464       0.61070937 </v>
   <v>       0.37050609       0.88473955       0.60764174 </v>
   <v>       0.88454816       0.37052076       0.61334478 </v>
   <v>       0.86505092       0.88295853       0.61016318 </v>
   <v>       0.11459733       0.35709072       0.60928642 </v>
   <v>       0.12216453       0.87571236       0.60898289 </v>
   <v>       0.58689095       0.34229854       0.60545441 </v>
   <v>       0.61206057       0.86275728       0.61056261 </v>
   <v>       0.38468868       0.13314588       0.60775065 </v>
   <v>       0.38083204       0.63393003       0.61351010 </v>
   <v>       0.88917690       0.14205885       0.61346230 </v>
   <v>       0.91319591       0.65139002       0.61726091 </v>
   <v>       0.00000000       0.00000000       0.75492797 </v>
   <v>       0.00000000       0.50000000       0.75492797 </v>
   <v>       0.50000000       0.00000000       0.75492797 </v>
   <v>       0.49999999       0.50000000       0.75492797 </v>
   <v>       0.25000050       0.25000000       0.75493902 </v>
   <v>       0.25000051       0.74999997       0.75493902 </v>
   <v>       0.75000047       0.25000000       0.75493902 </v>
   <v>       0.75000046       0.74999997       0.75493902 </v>
   <v>       0.13579050       0.11421000       0.70478299 </v>
   <v>       0.13579050       0.61420998       0.70478299 </v>
   <v>       0.63579045       0.11421000       0.70478299 </v>
   <v>       0.63579049       0.61420998       0.70478299 </v>
   <v>       0.36420952       0.38578999       0.70478299 </v>
   <v>       0.36420950       0.88578996       0.70478299 </v>
   <v>       0.86420954       0.38578999       0.70478299 </v>
   <v>       0.86420953       0.88578996       0.70478299 </v>
   <v>       0.11421799       0.36421899       0.70478098 </v>
   <v>       0.11421799       0.86421899       0.70478098 </v>
   <v>       0.61421800       0.36421899       0.70478098 </v>
   <v>       0.61421799       0.86421899       0.70478098 </v>
   <v>       0.38578201       0.13578149       0.70478202 </v>
   <v>       0.38578200       0.63578149       0.70478202 </v>
   <v>       0.88578199       0.13578149       0.70478202 </v>
   <v>       0.88578203       0.63578149       0.70478202 </v>
   <v>       0.13466700       0.11533200       0.80125603 </v>
   <v>       0.13466699       0.61533199       0.80125603 </v>
   <v>       0.63466699       0.11533200       0.80125603 </v>
   <v>       0.63466698       0.61533199       0.80125603 </v>
   <v>       0.36533300       0.38466799       0.80125603 </v>
   <v>       0.36533299       0.88466796       0.80125603 </v>
   <v>       0.86533295       0.38466799       0.80125603 </v>
   <v>       0.86533294       0.88466796       0.80125603 </v>
   <v>       0.11532850       0.36533700       0.80126500 </v>
   <v>       0.11532850       0.86533698       0.80126500 </v>
   <v>       0.61532850       0.36533700       0.80126500 </v>
   <v>       0.61532849       0.86533698       0.80126500 </v>
   <v>       0.38467151       0.13466300       0.80126500 </v>
   <v>       0.38467150       0.63466297       0.80126500 </v>
   <v>       0.88467149       0.13466300       0.80126500 </v>
   <v>       0.88467153       0.63466297       0.80126500 </v>
   <v>       0.99365711       0.00513879       0.60570800 </v>
   <v>       0.00610038       0.50666640       0.60423511 </v>
   <v>       0.50363464       0.00759300       0.60432583 </v>
   <v>       0.49864622       0.50294828       0.60478991 </v>
   <v>       0.24868414       0.25313048       0.60464621 </v>
   <v>       0.24675220       0.75662582       0.60381163 </v>
   <v>       0.74609963       0.25960029       0.60624467 </v>
   <v>       0.73922765       0.75663459       0.60205145 </v>
   <v>       0.00000050       0.00000050       0.70482896 </v>
   <v>       0.00000050       0.50000048       0.70482896 </v>
   <v>       0.50000048       0.00000050       0.70482896 </v>
   <v>       0.50000046       0.50000048       0.70482896 </v>
   <v>       0.24999999       0.24999947       0.70482499 </v>
   <v>       0.25000001       0.74999950       0.70482499 </v>
   <v>       0.74999999       0.24999947       0.70482499 </v>
   <v>       0.74999998       0.74999950       0.70482499 </v>
   <v>       0.00000000       0.00000000       0.80731797 </v>
   <v>       0.00000000       0.50000000       0.80731797 </v>
   <v>       0.50000000       0.00000000       0.80731797 </v>
   <v>       0.49999999       0.50000000       0.80731797 </v>
   <v>       0.24999999       0.25000000       0.80731797 </v>
   <v>       0.25000001       0.74999997       0.80731797 </v>
   <v>       0.74999999       0.25000000       0.80731797 </v>
   <v>       0.74999998       0.74999997       0.80731797 </v>
  </varray>
 </structure>
</modeling>
