 vasp.6.2.1 16May21 (build Nov 15 2021 14:57:28) complex                         
 executed on             LinuxPGI date 2023.07.30  15:55:37
 running on    4 total cores
 distrk:  each k-point on    4 cores,    1 groups
 distr:  one band on NCORE=   1 cores,    4 groups


--------------------------------------------------------------------------------------------------------


 INCAR:
   SYSTEM = PSC
   ISTART = 1
   ICHARG = 1
   PREC = Normal
   ENCUT = 500
   GGA_COMPAT = F
   NELM = 600
   ISYM = 0
   LREAL = Auto
   ISMEAR = 0
   SIGMA = 0.05
   AMIN = 0.01
   BMIX = 0.01
   LVTOT = T
   LWAVE = F
   LDIPOL = T
   IDIPOL = 3
   LVDW = T
   IVDW = 12

 POTCAR:    PAW_PBE H 15Jun2001                   
 POTCAR:    PAW_PBE C 08Apr2002                   
 POTCAR:    PAW_PBE N 08Apr2002                   
 POTCAR:    PAW_PBE I 08Apr2002                   
 POTCAR:    PAW_PBE Pb 08Apr2002                  
 WARNING: For LVTOT=.TRUE., VASP.5.x writes the TOTAL local potential to the
     file LOCPOT. If you want only the Hartree contributions, use LVHAR=.TRUE.
     instead. 

 POTCAR:    PAW_PBE H 15Jun2001                   
   SHA256 =  030f79b5d3ab3cf0e668861823c8fb652ff669f3e15e46930bd03bfd63a607b6 H/POTCAR              
   COPYR  = (c) Copyright 15Jun2001 Georg Kresse                                                    
   COPYR  = This file is part of the software VASP. Any use, copying, and all other rights are regul
   COPYR  = If you do not have a valid VASP license, you may not use, copy or distribute this file. 
   VRHFIN =H: ultrasoft test                                                                        
   LEXCH  = PE                                                                                      
   EATOM  =    12.4884 eV,    0.9179 Ry                                                             
                                                                                                    
   TITEL  = PAW_PBE H 15Jun2001                                                                     
   LULTRA =        F    use ultrasoft PP ?                                                          
   IUNSCR =        0    unscreen: 0-lin 1-nonlin 2-no                                               
   RPACOR =    0.000    partial core radius                                                         
   POMASS =    1.000; ZVAL   =    1.000    mass and valenz                                          
   RCORE  =    1.100    outmost cutoff radius                                                       
   RWIGS  =    0.700; RWIGS  =    0.370    wigner-seitz radius (au A)                               
   ENMAX  =  250.000; ENMIN  =  200.000 eV                                                          
   RCLOC  =    0.701    cutoff for local pot                                                        
   LCOR   =        T    correct aug charges                                                         
   LPAW   =        T    paw PP                                                                      
   EAUG   =  400.000                                                                                
   RMAX   =    1.123    core radius for proj-oper                                                   
   RAUG   =    1.200    factor for augmentation sphere                                              
   RDEP   =    1.112    radius for radial grids                                                     
   RDEPT  =    0.926    core radius for aug-charge                                                  
                                                                                                    
   Atomic configuration                                                                             
    2 entries                                                                                       
     n  l   j            E        occ.                                                              
     1  0  0.50        -6.4927   1.0000                                                             
     2  1  0.50        -3.4015   0.0000                                                             
   Description                                                                                      
     l       E           TYP  RCUT    TYP  RCUT                                                     
     0     -6.4927494     23  1.100                                                                 
     0      6.8029130     23  1.100                                                                 
     1     -4.0817478     23  1.100                                                                 
  local pseudopotential read in
  atomic valenz-charges read in
  non local Contribution for L=            0  read in
    real space projection operators read in
  non local Contribution for L=            0  read in
    real space projection operators read in
  non local Contribution for L=            1  read in
    real space projection operators read in
    PAW grid and wavefunctions read in
 
   number of l-projection  operators is LMAX  =            3
   number of lm-projection operators is LMMAX =            5
 
 POTCAR:    PAW_PBE C 08Apr2002                   
   SHA256 =  253f7b50bb8d59471dbedb8285d89021f4a42ed1a2c5d38a03a736e69125dd95 C/POTCAR              
   COPYR  = (c) Copyright 08Apr2002 Georg Kresse                                                    
   COPYR  = This file is part of the software VASP. Any use, copying, and all other rights are regul
   COPYR  = If you do not have a valid VASP license, you may not use, copy or distribute this file. 
   VRHFIN =C: s2p2                                                                                  
   LEXCH  = PE                                                                                      
   EATOM  =   147.1560 eV,   10.8157 Ry                                                             
                                                                                                    
   TITEL  = PAW_PBE C 08Apr2002                                                                     
   LULTRA =        F    use ultrasoft PP ?                                                          
   IUNSCR =        1    unscreen: 0-lin 1-nonlin 2-no                                               
   RPACOR =    1.200    partial core radius                                                         
   POMASS =   12.011; ZVAL   =    4.000    mass and valenz                                          
   RCORE  =    1.500    outmost cutoff radius                                                       
   RWIGS  =    1.630; RWIGS  =    0.863    wigner-seitz radius (au A)                               
   ENMAX  =  400.000; ENMIN  =  300.000 eV                                                          
   ICORE  =        2    local potential                                                             
   LCOR   =        T    correct aug charges                                                         
   LPAW   =        T    paw PP                                                                      
   EAUG   =  644.873                                                                                
   DEXC   =    0.000                                                                                
   RMAX   =    1.529    core radius for proj-oper                                                   
   RAUG   =    1.300    factor for augmentation sphere                                              
   RDEP   =    1.501    radius for radial grids                                                     
   RDEPT  =    1.300    core radius for aug-charge                                                  
                                                                                                    
   Atomic configuration                                                                             
    4 entries                                                                                       
     n  l   j            E        occ.                                                              
     1  0  0.50      -273.3789   2.0000                                                             
     2  0  0.50       -13.7508   2.0000                                                             
     2  1  0.50        -5.2854   2.0000                                                             
     3  2  1.50        -5.4423   0.0000                                                             
   Description                                                                                      
     l       E           TYP  RCUT    TYP  RCUT                                                     
     0    -13.7508458     23  1.200                                                                 
     0     -8.2022199     23  1.200                                                                 
     1     -5.2854383     23  1.500                                                                 
     1     34.0145650     23  1.500                                                                 
     2     -5.4423304      7  1.500                                                                 
  local pseudopotential read in
  partial core-charges read in
  partial kinetic energy density read in
  atomic valenz-charges read in
  non local Contribution for L=            0  read in
    real space projection operators read in
  non local Contribution for L=            0  read in
    real space projection operators read in
  non local Contribution for L=            1  read in
    real space projection operators read in
  non local Contribution for L=            1  read in
    real space projection operators read in
    PAW grid and wavefunctions read in
 
   number of l-projection  operators is LMAX  =            4
   number of lm-projection operators is LMMAX =            8
 
 POTCAR:    PAW_PBE N 08Apr2002                   
   SHA256 =  e053789ff3a61a86a1b75d8a110fcc91f86041011e7b0817c7c99e4e8a6349d7 N/POTCAR              
   COPYR  = (c) Copyright 08Apr2002 Georg Kresse                                                    
   COPYR  = This file is part of the software VASP. Any use, copying, and all other rights are regul
   COPYR  = If you do not have a valid VASP license, you may not use, copy or distribute this file. 
   VRHFIN =N: s2p3                                                                                  
   LEXCH  = PE                                                                                      
   EATOM  =   264.5486 eV,   19.4438 Ry                                                             
                                                                                                    
   TITEL  = PAW_PBE N 08Apr2002                                                                     
   LULTRA =        F    use ultrasoft PP ?                                                          
   IUNSCR =        1    unscreen: 0-lin 1-nonlin 2-no                                               
   RPACOR =    1.200    partial core radius                                                         
   POMASS =   14.001; ZVAL   =    5.000    mass and valenz                                          
   RCORE  =    1.500    outmost cutoff radius                                                       
   RWIGS  =    1.400; RWIGS  =    0.741    wigner-seitz radius (au A)                               
   ENMAX  =  400.000; ENMIN  =  300.000 eV                                                          
   ICORE  =        2    local potential                                                             
   LCOR   =        T    correct aug charges                                                         
   LPAW   =        T    paw PP                                                                      
   EAUG   =  627.112                                                                                
   DEXC   =    0.000                                                                                
   RMAX   =    1.529    core radius for proj-oper                                                   
   RAUG   =    1.300    factor for augmentation sphere                                              
   RDEP   =    1.514    radius for radial grids                                                     
   RDEPT  =    1.338    core radius for aug-charge                                                  
                                                                                                    
   Atomic configuration                                                                             
    4 entries                                                                                       
     n  l   j            E        occ.                                                              
     1  0  0.50      -384.7179   2.0000                                                             
     2  0  0.50       -18.5828   2.0000                                                             
     2  1  0.50        -7.0898   3.0000                                                             
     3  2  1.50        -6.8029   0.0000                                                             
   Description                                                                                      
     l       E           TYP  RCUT    TYP  RCUT                                                     
     0    -18.5828119     23  1.200                                                                 
     0    -13.5018863     23  1.200                                                                 
     1     -7.0897853     23  1.500                                                                 
     1      9.5240782     23  1.500                                                                 
     2     -6.8029130      7  1.500                                                                 
  local pseudopotential read in
  partial core-charges read in
  partial kinetic energy density read in
  atomic valenz-charges read in
  non local Contribution for L=            0  read in
    real space projection operators read in
  non local Contribution for L=            0  read in
    real space projection operators read in
  non local Contribution for L=            1  read in
    real space projection operators read in
  non local Contribution for L=            1  read in
    real space projection operators read in
    PAW grid and wavefunctions read in
 
   number of l-projection  operators is LMAX  =            4
   number of lm-projection operators is LMMAX =            8
 
 POTCAR:    PAW_PBE I 08Apr2002                   
   SHA256 =  e40f3f59b681c1fc3e3091736183c4589116986673d2b852a5012aec72758799 I/POTCAR              
   COPYR  = (c) Copyright 08Apr2002 Georg Kresse                                                    
   COPYR  = This file is part of the software VASP. Any use, copying, and all other rights are regul
   COPYR  = If you do not have a valid VASP license, you may not use, copy or distribute this file. 
   VRHFIN =I : s2p5                                                                                 
   LEXCH  = PE                                                                                      
   EATOM  =   315.8678 eV,   23.2156 Ry                                                             
                                                                                                    
   TITEL  = PAW_PBE I 08Apr2002                                                                     
   LULTRA =        F    use ultrasoft PP ?                                                          
   IUNSCR =        1    unscreen: 0-lin 1-nonlin 2-no                                               
   RPACOR =    2.200    partial core radius                                                         
   POMASS =  126.904; ZVAL   =    7.000    mass and valenz                                          
   RCORE  =    2.300    outmost cutoff radius                                                       
   RWIGS  =    2.810; RWIGS  =    1.487    wigner-seitz radius (au A)                               
   ENMAX  =  175.647; ENMIN  =  131.735 eV                                                          
   ICORE  =        3    local potential                                                             
   LCOR   =        T    correct aug charges                                                         
   LPAW   =        T    paw PP                                                                      
   EAUG   =  370.139                                                                                
   DEXC   =    0.000                                                                                
   RMAX   =    2.359    core radius for proj-oper                                                   
   RAUG   =    1.300    factor for augmentation sphere                                              
   RDEP   =    2.392    radius for radial grids                                                     
   RDEPT  =    2.170    core radius for aug-charge                                                  
                                                                                                    
   Atomic configuration                                                                             
   13 entries                                                                                       
     n  l   j            E        occ.                                                              
     1  0  0.50    -32976.3739   2.0000                                                             
     2  0  0.50     -5094.5933   2.0000                                                             
     2  1  1.50     -4572.0131   6.0000                                                             
     3  0  0.50     -1028.2813   2.0000                                                             
     3  1  1.50      -859.0250   6.0000                                                             
     3  2  2.50      -605.7620  10.0000                                                             
     4  0  0.50      -180.5540   2.0000                                                             
     4  1  1.50      -127.5306   6.0000                                                             
     4  2  2.50       -50.2720  10.0000                                                             
     5  0  0.50       -17.4058   2.0000                                                             
     5  1  0.50        -7.0851   5.0000                                                             
     5  2  1.50        -7.0750   0.0000                                                             
     4  3  2.50        -7.0750   0.0000                                                             
   Description                                                                                      
     l       E           TYP  RCUT    TYP  RCUT                                                     
     0    -17.4058016     23  2.300                                                                 
     0    -18.7663842     23  2.300                                                                 
     1     -7.0850686     23  2.300                                                                 
     1     -4.2150896     23  2.300                                                                 
     2     -7.0750295     23  2.300                                                                 
     3     -1.3605826     23  2.300                                                                 
  local pseudopotential read in
  partial core-charges read in
  partial kinetic energy density read in
  atomic valenz-charges read in
  non local Contribution for L=            0  read in
    real space projection operators read in
  non local Contribution for L=            0  read in
    real space projection operators read in
  non local Contribution for L=            1  read in
    real space projection operators read in
  non local Contribution for L=            1  read in
    real space projection operators read in
  non local Contribution for L=            2  read in
    real space projection operators read in
    PAW grid and wavefunctions read in
 
   number of l-projection  operators is LMAX  =            5
   number of lm-projection operators is LMMAX =           13
 
 POTCAR:    PAW_PBE Pb 08Apr2002                  
   SHA256 =  797118a27cf1bcd06b9881c67a26cdde129e3cd1a551dd4a281f9681ce847303 Pb/POTCAR             
   COPYR  = (c) Copyright 08Apr2002 Georg Kresse                                                    
   COPYR  = This file is part of the software VASP. Any use, copying, and all other rights are regul
   COPYR  = If you do not have a valid VASP license, you may not use, copy or distribute this file. 
   VRHFIN =Pb:                                                                                      
   LEXCH  = PE                                                                                      
   EATOM  =    96.9868 eV,    7.1283 Ry                                                             
                                                                                                    
   TITEL  = PAW_PBE Pb 08Apr2002                                                                    
   LULTRA =        F    use ultrasoft PP ?                                                          
   IUNSCR =        1    unscreen: 0-lin 1-nonlin 2-no                                               
   RPACOR =    2.200    partial core radius                                                         
   POMASS =  207.200; ZVAL   =    4.000    mass and valenz                                          
   RCORE  =    3.100    outmost cutoff radius                                                       
   RWIGS  =    3.260; RWIGS  =    1.725    wigner-seitz radius (au A)                               
   ENMAX  =   97.973; ENMIN  =   73.480 eV                                                          
   ICORE  =        3    local potential                                                             
   LCOR   =        T    correct aug charges                                                         
   LPAW   =        T    paw PP                                                                      
   EAUG   =  234.873                                                                                
   DEXC   =    0.000                                                                                
   RMAX   =    3.158    core radius for proj-oper                                                   
   RAUG   =    1.300    factor for augmentation sphere                                              
   RDEP   =    3.202    radius for radial grids                                                     
   RDEPT  =    2.659    core radius for aug-charge                                                  
                                                                                                    
   Atomic configuration                                                                             
   17 entries                                                                                       
     n  l   j            E        occ.                                                              
     1  0  0.50    -88091.8466   2.0000                                                             
     2  0  0.50    -15753.4197   2.0000                                                             
     2  1  1.50    -13508.1797   6.0000                                                             
     3  0  0.50     -3781.7194   2.0000                                                             
     3  1  1.50     -3138.2529   6.0000                                                             
     3  2  2.50     -2483.2977  10.0000                                                             
     4  0  0.50      -856.2895   2.0000                                                             
     4  1  1.50      -645.4943   6.0000                                                             
     4  2  2.50      -401.8768  10.0000                                                             
     4  3  3.50      -132.9059  14.0000                                                             
     5  0  0.50      -144.0950   2.0000                                                             
     5  1  1.50       -85.7879   6.0000                                                             
     5  2  2.50       -21.1769  10.0000                                                             
     6  0  0.50       -12.0372   2.0000                                                             
     6  1  1.50        -3.4971   2.0000                                                             
     6  2  2.50        -1.3606   0.0000                                                             
     5  3  2.50        -2.7212   0.0000                                                             
   Description                                                                                      
     l       E           TYP  RCUT    TYP  RCUT                                                     
     0    -12.0371566     23  3.100                                                                 
     0    -13.3977392     23  3.100                                                                 
     1     -3.4971341     23  3.100                                                                 
     1     -5.4423304     23  3.100                                                                 
     2     -1.3605826     23  3.100                                                                 
     3     -1.3605826     23  3.100                                                                 
  local pseudopotential read in
  partial core-charges read in
  partial kinetic energy density read in
  atomic valenz-charges read in
  non local Contribution for L=            0  read in
    real space projection operators read in
  non local Contribution for L=            0  read in
    real space projection operators read in
  non local Contribution for L=            1  read in
    real space projection operators read in
  non local Contribution for L=            1  read in
    real space projection operators read in
  non local Contribution for L=            2  read in
    real space projection operators read in
    PAW grid and wavefunctions read in
 
   number of l-projection  operators is LMAX  =            5
   number of lm-projection operators is LMMAX =           13
 
 Optimization of the real space projectors (new method)

 maximal supplied QI-value         = 34.20
 optimisation between [QCUT,QGAM] = [ 11.29, 22.57] = [ 35.68,142.71] Ry 
 Optimized for a Real-space Cutoff    1.16 Angstroem

   l    n(q)    QCUT    max X(q) W(low)/X(q) W(high)/X(q)  e(spline) 
   0      8    11.287    19.460    0.40E-03    0.73E-03    0.16E-06
   0      8    11.287    12.209    0.38E-03    0.70E-03    0.15E-06
   1      7    11.287     4.655    0.22E-03    0.25E-04    0.22E-06
 Optimization of the real space projectors (new method)

 maximal supplied QI-value         = 25.13
 optimisation between [QCUT,QGAM] = [ 11.31, 22.87] = [ 35.82,146.48] Ry 
 Optimized for a Real-space Cutoff    1.00 Angstroem

   l    n(q)    QCUT    max X(q) W(low)/X(q) W(high)/X(q)  e(spline) 
   0      7    11.310   115.676    0.43E-03    0.13E-02    0.19E-06
   0      7    11.310    87.132    0.43E-03    0.13E-02    0.18E-06
   1      6    11.310     4.429    0.42E-03    0.74E-03    0.11E-06
   1      6    11.310     2.733    0.34E-03    0.55E-03    0.92E-07
 Optimization of the real space projectors (new method)

 maximal supplied QI-value         = 25.13
 optimisation between [QCUT,QGAM] = [ 11.31, 22.87] = [ 35.82,146.48] Ry 
 Optimized for a Real-space Cutoff    1.27 Angstroem

   l    n(q)    QCUT    max X(q) W(low)/X(q) W(high)/X(q)  e(spline) 
   0      9    11.310    79.467    0.75E-04    0.16E-03    0.36E-06
   0      9    11.310    66.151    0.74E-04    0.16E-03    0.36E-06
   1      8    11.310    17.416    0.35E-03    0.12E-03    0.95E-06
   1      8    11.310    12.382    0.37E-03    0.13E-03    0.98E-06
 Optimization of the real space projectors (new method)

 maximal supplied QI-value         = 16.25
 optimisation between [QCUT,QGAM] = [ 11.38, 22.75] = [ 36.24,144.96] Ry 
 Optimized for a Real-space Cutoff    1.31 Angstroem

   l    n(q)    QCUT    max X(q) W(low)/X(q) W(high)/X(q)  e(spline) 
   0      9    11.376   194.483    0.24E-03    0.23E-03    0.67E-07
   0      9    11.376   190.334    0.23E-03    0.22E-03    0.65E-07
   1      8    11.376   116.687    0.25E-03    0.63E-04    0.16E-06
   1      8    11.376    88.696    0.25E-03    0.61E-04    0.16E-06
   2      8    11.376     4.877    0.17E-03    0.14E-03    0.29E-07
 Optimization of the real space projectors (new method)

 maximal supplied QI-value         = 12.09
 optimisation between [QCUT,QGAM] = [ 11.37, 22.86] = [ 36.19,146.31] Ry 
 Optimized for a Real-space Cutoff    1.66 Angstroem

   l    n(q)    QCUT    max X(q) W(low)/X(q) W(high)/X(q)  e(spline) 
   0     11    11.369   135.111    0.12E-03    0.69E-04    0.19E-05
   0     11    11.369   146.850    0.11E-03    0.65E-04    0.18E-05
   1     11    11.369   148.016    0.17E-03    0.32E-03    0.89E-06
   1     11    11.369   122.989    0.17E-03    0.32E-03    0.91E-06
   2     10    11.369     8.916    0.12E-03    0.45E-04    0.33E-06
  PAW_PBE H 15Jun2001                   :
 energy of atom  1       EATOM=  -12.4884
 kinetic energy error for atom=    0.0020 (will be added to EATOM!!)
  PAW_PBE C 08Apr2002                   :
 energy of atom  2       EATOM= -147.1560
 kinetic energy error for atom=    0.0076 (will be added to EATOM!!)
  PAW_PBE N 08Apr2002                   :
 energy of atom  3       EATOM= -264.5486
 kinetic energy error for atom=    0.0138 (will be added to EATOM!!)
  PAW_PBE I 08Apr2002                   :
 energy of atom  4       EATOM= -315.8678
 kinetic energy error for atom=    0.0009 (will be added to EATOM!!)
  PAW_PBE Pb 08Apr2002                  :
 energy of atom  5       EATOM=  -96.9868
 kinetic energy error for atom=    0.0000 (will be added to EATOM!!)
 
 
 POSCAR:  H  C  N  I Pb
  positions in cartesian coordinates
  No initial velocities read in
 exchange correlation table for  LEXCH =        8
   RHO(1)=    0.500       N(1)  =     2000
   RHO(2)=  100.500       N(2)  =     4000
 


--------------------------------------------------------------------------------------------------------


 ion  position               nearest neighbor table
   1  0.454  0.304  0.581- 187 1.03
   2  0.446  0.803  0.582- 188 1.09
   3  0.954  0.293  0.584- 189 1.02
   4  0.957  0.803  0.584- 190 1.02
   5  0.305  0.052  0.580- 194 0.97
   6  0.305  0.544  0.582- 195 0.97
   7  0.798  0.051  0.581- 196 0.97
   8  0.085  0.171  0.557- 183 0.98
   9  0.080  0.669  0.557- 184 1.06
  10  0.585  0.176  0.557- 185 1.02
  11  0.574  0.668  0.559- 186 1.05
  12  0.334  0.079  0.555- 194 1.11
  13  0.334  0.577  0.557- 195 1.11
  14  0.830  0.081  0.556- 196 1.11
  15  0.053  0.200  0.581- 183 1.02
  16  0.054  0.700  0.582- 184 1.09
  17  0.557  0.207  0.581- 185 1.03
  18  0.543  0.704  0.584- 186 1.02
  19  0.202  0.448  0.582- 191 0.97
  20  0.203  0.955  0.582- 192 0.97
  21  0.702  0.949  0.581- 193 0.97
  22  0.418  0.326  0.557- 187 1.02
  23  0.420  0.834  0.557- 188 1.06
  24  0.921  0.324  0.559- 189 1.02
  25  0.926  0.835  0.559- 190 1.02
  26  0.168  0.421  0.557- 191 1.11
  27  0.168  0.923  0.557- 192 1.11
  28  0.674  0.915  0.556- 193 1.11
  29  0.501  0.251  0.539- 146 1.09
  30  0.499  0.751  0.539- 147 1.15
  31  0.001  0.249  0.539- 144 1.15
  32  0.001  0.753  0.538- 145 1.15
  33  0.248  0.503  0.540- 148 1.09
  34  0.251  0.001  0.538- 149 1.09
  35  0.753  0.994  0.539- 150 1.09
  36  0.445  0.301  0.675- 205 1.09
  37  0.449  0.801  0.675- 206 1.09
  38  0.948  0.305  0.673- 207 1.02
  39  0.949  0.801  0.675- 208 1.02
  40  0.301  0.055  0.674- 209 1.09
  41  0.301  0.552  0.675- 210 1.09
  42  0.805  0.055  0.674- 211 1.09
  43  0.801  0.548  0.675- 212 1.08
  44  0.074  0.172  0.650- 197 0.95
  45  0.073  0.668  0.650- 198 0.95
  46  0.582  0.177  0.650- 199 0.95
  47  0.576  0.666  0.647- 200 1.09
  48  0.169  0.423  0.650- 201 0.95
  49  0.173  0.918  0.651- 202 0.91
  50  0.665  0.424  0.649- 203 1.02
  51  0.668  0.926  0.651- 204 0.91
  52  0.048  0.199  0.675- 197 1.02
  53  0.048  0.696  0.674- 198 0.96
  54  0.554  0.202  0.675- 199 1.02
  55  0.548  0.695  0.673- 200 1.02
  56  0.192  0.449  0.675- 201 1.09
  57  0.199  0.946  0.676- 202 1.08
  58  0.696  0.452  0.675- 203 1.08
  59  0.696  0.952  0.676- 204 1.08
  60  0.423  0.327  0.650- 205 0.99
  61  0.423  0.828  0.650- 206 0.99
  62  0.921  0.334  0.647- 207 1.12
  63  0.923  0.827  0.650- 208 0.98
  64  0.322  0.077  0.648- 209 0.99
  65  0.328  0.573  0.650- 210 0.95
  66  0.827  0.079  0.648- 211 1.02
  67  0.831  0.580  0.649- 212 1.09
  68  0.999  0.251  0.631- 151 1.03
  69  0.994  0.744  0.632- 152 1.03
  70  0.506  0.256  0.632- 153 1.03
  71  0.498  0.749  0.631- 154 1.03
  72  0.244  0.997  0.632- 156 1.03
  73  0.252  0.494  0.632- 155 1.03
  74  0.744  0.001  0.632- 158 1.03
  75  0.744  0.506  0.632- 157 1.09
  76  0.449  0.301  0.769- 221 1.02
  77  0.449  0.801  0.769- 222 1.02
  78  0.949  0.301  0.769- 223 1.02
  79  0.949  0.801  0.769- 224 1.02
  80  0.301  0.051  0.769- 225 1.02
  81  0.301  0.551  0.769- 226 1.02
  82  0.801  0.051  0.769- 227 1.02
  83  0.801  0.551  0.769- 228 1.02
  84  0.079  0.171  0.743- 213 1.02
  85  0.079  0.671  0.743- 214 1.02
  86  0.579  0.171  0.743- 215 1.02
  87  0.579  0.671  0.743- 216 1.02
  88  0.171  0.421  0.743- 217 1.02
  89  0.171  0.921  0.743- 218 1.02
  90  0.671  0.421  0.743- 219 1.02
  91  0.671  0.921  0.743- 220 1.02
  92  0.051  0.199  0.769- 213 1.02
  93  0.051  0.699  0.769- 214 1.02
  94  0.551  0.199  0.769- 215 1.02
  95  0.551  0.699  0.769- 216 1.02
  96  0.199  0.449  0.769- 217 1.02
  97  0.199  0.949  0.769- 218 1.02
  98  0.699  0.449  0.769- 219 1.02
  99  0.699  0.949  0.769- 220 1.02
 100  0.421  0.329  0.743- 221 1.02
 101  0.421  0.829  0.743- 222 1.02
 102  0.921  0.329  0.743- 223 1.02
 103  0.921  0.829  0.743- 224 1.02
 104  0.329  0.079  0.743- 225 1.02
 105  0.329  0.579  0.743- 226 1.02
 106  0.829  0.079  0.743- 227 1.02
 107  0.829  0.579  0.743- 228 1.02
 108  0.000  0.250  0.726- 161 1.09
 109  0.000  0.750  0.726- 162 1.09
 110  0.500  0.250  0.726- 159 1.09
 111  0.500  0.750  0.726- 160 1.09
 112  0.250  0.000  0.726- 163 1.09
 113  0.250  0.500  0.726- 164 1.09
 114  0.750  0.000  0.726- 165 1.09
 115  0.750  0.500  0.726- 166 1.09
 116  0.730  0.468  0.552- 173 1.10
 117  0.752  0.520  0.530- 173 1.11
 118  0.662  0.564  0.568- 174 1.05
 119  0.704  0.649  0.571- 174 1.09
 120  0.850  0.534  0.584- 175 1.09
 121  0.772  0.591  0.592- 175 1.09
 122  0.886  0.584  0.549- 176 1.09
 123  0.814  0.644  0.538- 176 1.16
 124  0.879  0.499  0.533- 177 1.08
 125  0.870  0.462  0.558- 177 1.09
 126  0.899  0.363  0.534- 178 1.12
 127  0.809  0.362  0.545- 178 1.08
 128  0.641  0.572  0.532- 179 1.07
 129  0.713  0.637  0.527- 179 1.09
 130  0.632  0.669  0.538- 179 1.10
 131  0.751  0.477  0.606- 180 1.09
 132  0.763  0.434  0.582- 180 1.07
 133  0.684  0.488  0.586- 180 1.09
 134  0.825  0.689  0.579- 181 1.09 309 2.35
 135  0.868  0.727  0.558- 181 1.05
 136  0.915  0.664  0.573- 181 1.04
 137  0.854  0.418  0.501- 182 1.16
 138  0.826  0.323  0.505- 182 1.11
 139  0.691  0.345  0.533- 168 1.09
 140  0.763  0.487  0.482- 169 1.17
 141  0.567  0.393  0.530- 170 1.09
 142  0.631  0.532  0.478- 171 1.17
 143  0.534  0.487  0.503- 172 1.14
 144  0.999  0.251  0.557-  31 1.15 189 1.24 183 1.36
 145  0.003  0.754  0.557-  32 1.15 184 1.25 190 1.31
 146  0.499  0.253  0.556-  29 1.09 187 1.21 185 1.28
 147  0.497  0.753  0.557-  30 1.15 188 1.21 186 1.31
 148  0.249  0.497  0.557-  33 1.09 191 1.24 195 1.32
 149  0.253  0.003  0.556-  34 1.09 194 1.24 192 1.32
 150  0.751  0.996  0.556-  35 1.09 193 1.24 196 1.32
 151  0.997  0.253  0.648-  68 1.03 207 1.27 197 1.41
 152  0.996  0.749  0.649-  69 1.03 208 1.30 198 1.41
 153  0.501  0.254  0.649-  70 1.03 205 1.24 199 1.41
 154  0.496  0.751  0.648-  71 1.03 206 1.24 200 1.38
 155  0.247  0.496  0.649-  73 1.03 201 1.28 210 1.35
 156  0.249  0.999  0.648-  72 1.03 209 1.24 202 1.39
 157  0.749  0.504  0.649-  75 1.09 212 1.21 203 1.36
 158  0.749  0.003  0.648-  74 1.03 211 1.24 204 1.39
 159  0.500  0.250  0.743- 110 1.09 221 1.31 215 1.31
 160  0.500  0.750  0.743- 111 1.09 222 1.31 216 1.31
 161  1.000  0.250  0.743- 108 1.09 223 1.31 213 1.31
 162  1.000  0.750  0.743- 109 1.09 224 1.31 214 1.31
 163  0.250  0.000  0.743- 112 1.09 225 1.31 218 1.31
 164  0.250  0.500  0.743- 113 1.09 226 1.31 217 1.31
 165  0.750  0.000  0.743- 114 1.09 227 1.31 220 1.31
 166  0.750  0.500  0.743- 115 1.09 228 1.31 219 1.31
 167  0.734  0.412  0.508- 169 1.36 168 1.40 182 1.67
 168  0.678  0.384  0.521- 139 1.09 170 1.31 167 1.40
 169  0.717  0.463  0.492- 140 1.17 167 1.36 171 1.38
 170  0.609  0.408  0.519- 141 1.09 168 1.31 172 1.43
 171  0.644  0.486  0.490- 142 1.17 172 1.30 169 1.38
 172  0.592  0.464  0.503- 143 1.14 171 1.30 170 1.43
 173  0.775  0.500  0.545- 116 1.10 117 1.11 177 1.40 229 1.59
 174  0.698  0.602  0.560- 118 1.05 119 1.09 229 1.45 179 1.52
 175  0.790  0.544  0.583- 121 1.09 120 1.09 180 1.43 229 1.55
 176  0.838  0.618  0.553- 122 1.09 123 1.16 181 1.44 229 1.50
 177  0.843  0.464  0.542- 124 1.08 125 1.09 178 1.38 173 1.40
 178  0.844  0.393  0.534- 127 1.08 126 1.12 177 1.38 182 1.49
 179  0.669  0.621  0.538- 128 1.07 129 1.09 130 1.10 174 1.52
 180  0.743  0.484  0.589- 132 1.07 131 1.09 133 1.09 175 1.43
 181  0.864  0.677  0.567- 136 1.04 135 1.05 134 1.09 176 1.44 237 2.71 261 2.73
 182  0.819  0.379  0.512- 138 1.11 137 1.16 178 1.49 167 1.67
 183  0.051  0.203  0.565-   8 0.98  15 1.02 144 1.36
 184  0.045  0.706  0.565-   9 1.06  16 1.09 145 1.25
 185  0.547  0.210  0.565-  10 1.02  17 1.03 146 1.28
 186  0.541  0.707  0.567-  18 1.02  11 1.05 147 1.31
 187  0.456  0.294  0.565-  22 1.02   1 1.03 146 1.21
 188  0.455  0.797  0.565-  23 1.06   2 1.09 147 1.21
 189  0.957  0.290  0.567-  24 1.02   3 1.02 144 1.24
 190  0.959  0.800  0.567-  25 1.02   4 1.02 145 1.31
 191  0.206  0.455  0.567-  19 0.97  26 1.11 148 1.24
 192  0.207  0.959  0.566-  20 0.97  27 1.11 149 1.32
 193  0.708  0.953  0.566-  21 0.97  28 1.11 150 1.24
 194  0.297  0.045  0.565-   5 0.97  12 1.11 149 1.24
 195  0.298  0.541  0.567-   6 0.97  13 1.11 148 1.32
 196  0.794  0.044  0.566-   7 0.97  14 1.11 150 1.32
 197  0.044  0.203  0.659-  44 0.95  52 1.02 151 1.41
 198  0.045  0.700  0.659-  45 0.95  53 0.96 152 1.41
 199  0.550  0.205  0.659-  46 0.95  54 1.02 153 1.41
 200  0.545  0.702  0.657-  55 1.02  47 1.09 154 1.38
 201  0.203  0.452  0.658-  48 0.95  56 1.09 155 1.28
 202  0.203  0.950  0.659-  49 0.91  57 1.08 156 1.39
 203  0.700  0.455  0.658-  50 1.02  58 1.08 157 1.36
 204  0.700  0.956  0.659-  51 0.91  59 1.08 158 1.39
 205  0.456  0.294  0.658-  60 0.99  36 1.09 153 1.24
 206  0.456  0.794  0.658-  61 0.99  37 1.09 154 1.24
 207  0.955  0.297  0.657-  38 1.02  62 1.12 151 1.27
 208  0.956  0.797  0.659-  63 0.98  39 1.02 152 1.30
 209  0.291  0.044  0.657-  64 0.99  40 1.09 156 1.24
 210  0.294  0.545  0.658-  65 0.95  41 1.09 155 1.35
 211  0.794  0.045  0.657-  66 1.02  42 1.09 158 1.24
 212  0.794  0.544  0.658-  43 1.08  67 1.09 157 1.21
 213  0.046  0.204  0.753-  92 1.02  84 1.02 161 1.31
 214  0.046  0.704  0.753-  93 1.02  85 1.02 162 1.31
 215  0.546  0.204  0.753-  94 1.02  86 1.02 159 1.31
 216  0.546  0.704  0.753-  95 1.02  87 1.02 160 1.31
 217  0.204  0.454  0.753-  96 1.02  88 1.02 164 1.31
 218  0.204  0.954  0.753-  97 1.02  89 1.02 163 1.31
 219  0.704  0.454  0.753-  98 1.02  90 1.02 166 1.31
 220  0.704  0.954  0.753-  99 1.02  91 1.02 165 1.31
 221  0.454  0.296  0.753-  76 1.02 100 1.02 159 1.31
 222  0.454  0.796  0.753-  77 1.02 101 1.02 160 1.31
 223  0.954  0.296  0.753-  78 1.02 102 1.02 161 1.31
 224  0.954  0.796  0.753-  79 1.02 103 1.02 162 1.31
 225  0.296  0.046  0.753-  80 1.02 104 1.02 163 1.31
 226  0.296  0.546  0.753-  81 1.02 105 1.02 164 1.31
 227  0.796  0.046  0.753-  82 1.02 106 1.02 165 1.31
 228  0.796  0.546  0.753-  83 1.02 107 1.02 166 1.31
 229  0.773  0.572  0.560- 174 1.45 176 1.50 175 1.55 173 1.59
 230  0.497  0.997  0.553- 304 3.15
 231  0.497  0.503  0.553- 305 3.03
 232  0.997  0.997  0.553- 302 3.15
 233  0.003  0.503  0.553- 303 3.15
 234  0.247  0.253  0.553- 306 3.14
 235  0.247  0.747  0.551- 307 3.26
 236  0.747  0.247  0.553- 308 3.14
 237  0.747  0.753  0.551- 181 2.71 309 3.26
 238  0.997  0.997  0.655- 310 3.12 302 3.23
 239  0.003  0.497  0.655- 311 3.12 303 3.23
 240  0.503  0.997  0.655- 312 3.12 304 3.23
 241  0.497  0.503  0.655- 313 3.12 305 3.35
 242  0.247  0.247  0.655- 314 3.12 306 3.23
 243  0.253  0.753  0.655- 315 3.12 307 3.23
 244  0.753  0.253  0.655- 316 3.12 308 3.23
 245  0.747  0.753  0.653- 309 3.11 317 3.24
 246  0.140  0.104  0.606- 302 3.07 306 3.33
 247  0.140  0.610  0.606- 307 3.21 303 3.21
 248  0.640  0.104  0.606- 304 3.16 308 3.33
 249  0.640  0.610  0.608- 309 3.24 305 3.33
 250  0.360  0.396  0.606- 305 3.08 306 3.31
 251  0.360  0.890  0.606- 304 3.21 307 3.23
 252  0.860  0.390  0.608- 308 3.22 303 3.24
 253  0.854  0.890  0.606- 309 3.14 302 3.40
 254  0.110  0.360  0.606- 306 3.14 303 3.14
 255  0.104  0.854  0.606- 302 3.26 307 3.33
 256  0.604  0.354  0.606- 308 3.16 305 3.24
 257  0.610  0.854  0.606- 309 3.07 304 3.40
 258  0.396  0.140  0.606- 304 3.07 306 3.40
 259  0.390  0.646  0.606- 307 3.07 305 3.34
 260  0.896  0.140  0.606- 302 3.14 308 3.40
 261  0.896  0.646  0.608- 181 2.73 309 3.34 303 3.34
 262  0.000  0.000  0.755- 310 3.13 318 3.27
 263  0.000  0.500  0.755- 311 3.13 319 3.27
 264  0.500  0.000  0.755- 312 3.13 320 3.27
 265  0.500  0.500  0.755- 313 3.13 321 3.27
 266  0.250  0.250  0.755- 314 3.13 322 3.27
 267  0.250  0.750  0.755- 315 3.13 323 3.27
 268  0.750  0.250  0.755- 316 3.13 324 3.27
 269  0.750  0.750  0.755- 317 3.13 325 3.27
 270  0.136  0.114  0.705- 310 3.20 314 3.20
 271  0.136  0.614  0.705- 311 3.20 315 3.20
 272  0.636  0.114  0.705- 312 3.20 316 3.20
 273  0.636  0.614  0.705- 313 3.20 317 3.20
 274  0.364  0.386  0.705- 313 3.20 314 3.20
 275  0.364  0.886  0.705- 312 3.20 315 3.20
 276  0.864  0.386  0.705- 311 3.20 316 3.20
 277  0.864  0.886  0.705- 310 3.20 317 3.20
 278  0.114  0.364  0.705- 314 3.21 311 3.21
 279  0.114  0.864  0.705- 315 3.21 310 3.21
 280  0.614  0.364  0.705- 316 3.21 313 3.21
 281  0.614  0.864  0.705- 317 3.21 312 3.21
 282  0.386  0.136  0.705- 314 3.21 312 3.21
 283  0.386  0.636  0.705- 315 3.21 313 3.21
 284  0.886  0.136  0.705- 316 3.21 310 3.21
 285  0.886  0.636  0.705- 317 3.21 311 3.21
 286  0.135  0.115  0.801- 318 3.22 322 3.22
 287  0.135  0.615  0.801- 319 3.22 323 3.22
 288  0.635  0.115  0.801- 320 3.22 324 3.22
 289  0.635  0.615  0.801- 321 3.22 325 3.22
 290  0.365  0.385  0.801- 321 3.22 322 3.22
 291  0.365  0.885  0.801- 320 3.22 323 3.22
 292  0.865  0.385  0.801- 319 3.22 324 3.22
 293  0.865  0.885  0.801- 318 3.22 325 3.22
 294  0.115  0.365  0.801- 319 3.23 322 3.23
 295  0.115  0.865  0.801- 318 3.23 323 3.23
 296  0.615  0.365  0.801- 321 3.23 324 3.23
 297  0.615  0.865  0.801- 320 3.23 325 3.23
 298  0.385  0.135  0.801- 320 3.23 322 3.23
 299  0.385  0.635  0.801- 321 3.23 323 3.23
 300  0.885  0.135  0.801- 318 3.23 324 3.23
 301  0.885  0.635  0.801- 319 3.23 325 3.23
 302  0.003  0.003  0.603- 246 3.07 260 3.14 232 3.15 238 3.23 255 3.26 253 3.40
 303  0.003  0.497  0.603- 254 3.14 233 3.15 247 3.21 239 3.23 252 3.24 261 3.34
 304  0.497  0.003  0.603- 258 3.07 230 3.15 248 3.16 251 3.21 240 3.23 257 3.40
 305  0.497  0.497  0.601- 231 3.03 250 3.08 256 3.24 249 3.33 259 3.34 241 3.35
 306  0.247  0.253  0.603- 254 3.14 234 3.14 242 3.23 250 3.31 246 3.33 258 3.40
 307  0.253  0.747  0.603- 259 3.07 247 3.21 251 3.23 243 3.23 235 3.26 255 3.33
 308  0.747  0.253  0.603- 236 3.14 256 3.16 252 3.22 244 3.23 248 3.33 260 3.40
 309  0.747  0.753  0.603- 134 2.35 257 3.07 245 3.11 253 3.14 249 3.24 237 3.26 261 3.34
 310  0.000  0.000  0.705- 238 3.12 262 3.13 270 3.20 277 3.20 279 3.21 284 3.21
 311  0.000  0.500  0.705- 239 3.12 263 3.13 271 3.20 276 3.20 278 3.21 285 3.21
 312  0.500  0.000  0.705- 240 3.12 264 3.13 272 3.20 275 3.20 281 3.21 282 3.21
 313  0.500  0.500  0.705- 241 3.12 265 3.13 273 3.20 274 3.20 280 3.21 283 3.21
 314  0.250  0.250  0.705- 242 3.12 266 3.13 270 3.20 274 3.20 282 3.21 278 3.21
 315  0.250  0.750  0.705- 243 3.12 267 3.13 271 3.20 275 3.20 283 3.21 279 3.21
 316  0.750  0.250  0.705- 244 3.12 268 3.13 272 3.20 276 3.20 284 3.21 280 3.21
 317  0.750  0.750  0.705- 269 3.13 273 3.20 277 3.20 285 3.21 281 3.21 245 3.24
 318  0.000  0.000  0.807- 286 3.22 293 3.22 300 3.23 295 3.23 262 3.27
 319  0.000  0.500  0.807- 287 3.22 292 3.22 301 3.23 294 3.23 263 3.27
 320  0.500  0.000  0.807- 288 3.22 291 3.22 298 3.23 297 3.23 264 3.27
 321  0.500  0.500  0.807- 289 3.22 290 3.22 299 3.23 296 3.23 265 3.27
 322  0.250  0.250  0.807- 290 3.22 286 3.22 294 3.23 298 3.23 266 3.27
 323  0.250  0.750  0.807- 291 3.22 287 3.22 299 3.23 295 3.23 267 3.27
 324  0.750  0.250  0.807- 292 3.22 288 3.22 296 3.23 300 3.23 268 3.27
 325  0.750  0.750  0.807- 293 3.22 289 3.22 297 3.23 301 3.23 269 3.27
 

IMPORTANT INFORMATION: All symmetrisations will be switched off!
NOSYMM: (Re-)initialisation of all symmetry stuff for point group C_1.


----------------------------------------------------------------------------------------

                                     Primitive cell                                     

  volume of cell :   20385.2105

  direct lattice vectors                    reciprocal lattice vectors
    18.060800552  0.000000000  0.000000000     0.055368531  0.000015077 -0.000000000
    -0.004918649 18.062799454  0.000000000     0.000000000  0.055362404  0.000000000
     0.000000000  0.000000000 62.487499237     0.000000000 -0.000000000  0.016003201

  length of vectors
    18.060800552 18.062800123 62.487499237     0.055368533  0.055362404  0.016003201

  position of ions in fractional coordinates (direct lattice)
     0.453518927  0.303584837  0.580877413
     0.446125345  0.803325020  0.581959844
     0.953860644  0.293015978  0.583663859
     0.956719523  0.802517743  0.583681929
     0.304582318  0.051592938  0.580040087
     0.304565856  0.544410682  0.581848982
     0.797750499  0.051241250  0.580892003
     0.084606990  0.170914268  0.556530136
     0.079802362  0.669475927  0.556519453
     0.584746942  0.176423973  0.556932316
     0.574322084  0.668278105  0.559306387
     0.333760892  0.079103736  0.554609708
     0.333956708  0.577088447  0.556955453
     0.830449806  0.080608266  0.555998414
     0.053438699  0.199821789  0.581027162
     0.053839990  0.699998437  0.581946963
     0.556793595  0.207079718  0.580868989
     0.543349735  0.704123891  0.583661967
     0.202468498  0.448293309  0.581846540
     0.202663341  0.955469886  0.581756800
     0.701599814  0.949176608  0.580890416
     0.417515098  0.325709477  0.557004108
     0.420150460  0.833853602  0.556529098
     0.920876163  0.323626766  0.559276535
     0.925630685  0.835051582  0.559294666
     0.168068528  0.420941116  0.556953927
     0.168162548  0.922947561  0.557400977
     0.674221951  0.914798110  0.555997864
     0.500885544  0.250804083  0.538500529
     0.499242614  0.750650547  0.538505169
     0.000671101  0.249223768  0.538505169
     0.000715065  0.752678295  0.538494424
     0.247645762  0.502593001  0.539503903
     0.250801083  0.000875030  0.538496927
     0.752592166  0.994233723  0.538518538
     0.445287328  0.300866152  0.675120628
     0.449097160  0.800726739  0.675088151
     0.948437433  0.304735959  0.673308315
     0.949024345  0.801384176  0.675149381
     0.301486545  0.054864033  0.674189228
     0.300877924  0.551681190  0.675105977
     0.804767971  0.054873821  0.674192830
     0.801342888  0.547615239  0.675102680
     0.073663509  0.171522511  0.650199140
     0.072545018  0.668221823  0.649813748
     0.581771687  0.177445067  0.649813198
     0.575564247  0.666191487  0.646508521
     0.169432830  0.422843417  0.649797204
     0.172983230  0.918228555  0.651135484
     0.664707214  0.424292635  0.648833693
     0.668303821  0.926186700  0.651139086
     0.047592570  0.199272997  0.675085709
     0.048261536  0.695819024  0.674191243
     0.554093748  0.201644643  0.675150419
     0.548252455  0.695263539  0.673312832
     0.191935671  0.449125401  0.675105366
     0.199079050  0.945968342  0.676022115
     0.695926510  0.451597389  0.675130029
     0.696015901  0.952312376  0.676025716
     0.422810342  0.327157850  0.649813748
     0.423028742  0.828475522  0.650202558
     0.921127964  0.333806612  0.646505041
     0.922850625  0.827198557  0.649813198
     0.322486550  0.077193502  0.648459351
     0.328475574  0.572552861  0.649797692
     0.827166474  0.079223210  0.648434199
     0.830595381  0.580439940  0.648835219
     0.999132996  0.250819447  0.631079654
     0.994090465  0.744314717  0.632090232
     0.505686196  0.255910544  0.632090232
     0.497557359  0.749182190  0.631083195
     0.244237085  0.997423995  0.632046949
     0.252348349  0.494092465  0.632075764
     0.744177696  0.000968729  0.632050551
     0.744353800  0.505872372  0.632072040
     0.448745018  0.301283966  0.768889017
     0.448745007  0.801283913  0.768889017
     0.948744965  0.301283966  0.768889017
     0.948745007  0.801283913  0.768889017
     0.301275995  0.051294496  0.768872961
     0.301276011  0.551294499  0.768872961
     0.801275943  0.051294496  0.768872961
     0.801275984  0.551294499  0.768872961
     0.078771004  0.171180501  0.743441971
     0.078771006  0.671180448  0.743441971
     0.578771004  0.171180501  0.743441971
     0.578770992  0.671180448  0.743441971
     0.171199499  0.421174482  0.743421032
     0.171199501  0.921174508  0.743421032
     0.671199512  0.421174482  0.743421032
     0.671199501  0.921174508  0.743421032
     0.051256000  0.198714991  0.768889017
     0.051256002  0.698714925  0.768889017
     0.551256027  0.198714991  0.768889017
     0.551256016  0.698714925  0.768889017
     0.198723491  0.448703970  0.768872046
     0.198723493  0.948703970  0.768872046
     0.698723518  0.448703970  0.768872046
     0.698723507  0.948703970  0.768872046
     0.421231519  0.328817467  0.743441971
     0.421231508  0.828817440  0.743441971
     0.921231466  0.328817467  0.743441971
     0.921231508  0.828817440  0.743441971
     0.328800503  0.078824997  0.743421032
     0.328800492  0.578824964  0.743421032
     0.828800477  0.078824997  0.743421032
     0.828800519  0.578824964  0.743421032
     0.000003500  0.250001478  0.725821992
     0.000003500  0.750001452  0.725821992
     0.500003506  0.250001478  0.725821992
     0.500003495  0.750001452  0.725821992
     0.250000502  0.000000000  0.725803983
     0.250000517  0.500000000  0.725803983
     0.750000502  0.000000000  0.725803983
     0.750000490  0.500000000  0.725803983
     0.729584384  0.468062934  0.552167813
     0.751950611  0.520091215  0.529509656
     0.661976812  0.564339175  0.568050079
     0.703631318  0.649090998  0.570912041
     0.849798528  0.534398759  0.584484214
     0.772086985  0.591269594  0.591928879
     0.885755168  0.584466926  0.548579815
     0.814040766  0.644166662  0.537744213
     0.879133470  0.499053126  0.532505800
     0.869876729  0.462157880  0.557697423
     0.898674163  0.362756675  0.534140587
     0.808916961  0.362203091  0.544878392
     0.641174317  0.572447952  0.532380286
     0.712545779  0.637486749  0.527204568
     0.631792068  0.668968805  0.538351451
     0.750663998  0.477429035  0.606246745
     0.763011223  0.433853058  0.582114111
     0.683929324  0.487822843  0.586272230
     0.824698904  0.688785789  0.579471492
     0.867800806  0.726802511  0.558144534
     0.914863738  0.663698274  0.573211207
     0.853700668  0.418298617  0.500790197
     0.825807925  0.322676698  0.504789013
     0.690860863  0.345376199  0.533316875
     0.763437380  0.486903952  0.481574775
     0.567358553  0.393109863  0.530170921
     0.631461102  0.531721018  0.477529380
     0.533800421  0.487147191  0.502705741
     0.999238166  0.250563615  0.556962046
     0.002684365  0.754002039  0.556922549
     0.499338398  0.252542817  0.555969782
     0.497405157  0.752590598  0.556905211
     0.249297339  0.497409534  0.556915467
     0.252665844  0.002631290  0.555937305
     0.750728363  0.995989983  0.555958855
     0.997484717  0.252569770  0.647544922
     0.995957179  0.749281344  0.648526503
     0.500718405  0.254040635  0.648526503
     0.496007443  0.750829584  0.647605664
     0.247371910  0.495950469  0.648509959
     0.249213507  0.999281970  0.648481206
     0.749425626  0.503907822  0.649465533
     0.749256501  0.002525016  0.648484807
     0.499988984  0.249994984  0.743277021
     0.499989025  0.749994958  0.743277021
     0.999988984  0.249994984  0.743277021
     0.999989025  0.749994958  0.743277021
     0.250000502  0.000001000  0.743255960
     0.250000517  0.500001003  0.743255960
     0.750000502  0.000001000  0.743255960
     0.750000491  0.500001003  0.743255960
     0.734330647  0.412282741  0.507561846
     0.677843622  0.383940591  0.520521957
     0.716610890  0.463291394  0.492463611
     0.609416064  0.407706078  0.518504952
     0.644246300  0.485506344  0.490071256
     0.592357060  0.463642710  0.503039060
     0.774999717  0.500079619  0.544942796
     0.697911777  0.601516836  0.560356158
     0.790359780  0.543655464  0.582593516
     0.838237739  0.617840513  0.553175400
     0.843064742  0.464158596  0.542041337
     0.844420351  0.392747011  0.534047795
     0.668800396  0.620928756  0.538205914
     0.743378588  0.484025633  0.589050373
     0.863579159  0.676959209  0.566676636
     0.819290530  0.379054270  0.511680925
     0.050628171  0.202515211  0.564800345
     0.044564593  0.706475976  0.564847229
     0.547341316  0.209519553  0.564652061
     0.540759798  0.706925073  0.567340526
     0.456470061  0.294266492  0.564664270
     0.455388706  0.796862106  0.564862857
     0.956601911  0.290388474  0.567345593
     0.959298112  0.799730552  0.567363724
     0.206456862  0.455154054  0.566560707
     0.206545881  0.959157083  0.566377504
     0.708436800  0.953185386  0.565604156
     0.297432302  0.044829886  0.564850221
     0.297502272  0.540821177  0.566565713
     0.794181268  0.044156669  0.565609161
     0.044000838  0.203073441  0.658815975
     0.044724259  0.699717501  0.658945457
     0.550272707  0.205262579  0.658945029
     0.544723960  0.702423805  0.657200906
     0.202505686  0.452419977  0.658000199
     0.202547499  0.949684053  0.658795158
     0.699625414  0.455337051  0.657967722
     0.699700852  0.955813510  0.658798760
     0.455972023  0.294285763  0.657988234
     0.455796154  0.793624656  0.657804787
     0.955272582  0.297490768  0.657228011
     0.955928950  0.797458614  0.658918230
     0.291350947  0.044068319  0.657205302
     0.293757557  0.544724881  0.657942632
     0.794003311  0.044705056  0.657208903
     0.794092882  0.544223778  0.657967722
     0.045862501  0.204119496  0.752725994
     0.045862500  0.704119456  0.752725994
     0.545862507  0.204119496  0.752725994
     0.545862496  0.704119456  0.752725994
     0.204119002  0.454101003  0.752704994
     0.204118991  0.954100951  0.752704994
     0.704118976  0.454101003  0.752704994
     0.704118964  0.954100951  0.752704994
     0.454140018  0.295888490  0.752726971
     0.454140007  0.795888516  0.752726971
     0.954140018  0.295888490  0.752726971
     0.954140060  0.795888516  0.752726971
     0.295882492  0.045900498  0.752704994
     0.295882481  0.545900528  0.752704994
     0.795882439  0.045900498  0.752704994
     0.795882481  0.545900528  0.752704994
     0.772814606  0.572029741  0.559709849
     0.496677013  0.996678256  0.552864181
     0.496678811  0.503321715  0.552864181
     0.996676986  0.996678256  0.552864181
     0.003323017  0.503321715  0.552864181
     0.246679794  0.253321715  0.552882190
     0.246677973  0.746678259  0.550961884
     0.746678011  0.246678233  0.552882190
     0.746679862  0.753321688  0.550961884
     0.996676985  0.996678257  0.654856138
     0.003321207  0.496678285  0.654856138
     0.503321178  0.996678256  0.654856138
     0.496678811  0.503321715  0.654856138
     0.246676955  0.246678233  0.654869202
     0.253323049  0.753321688  0.654869202
     0.753322981  0.253321767  0.654869202
     0.746678806  0.753321688  0.652948896
     0.139835988  0.103537754  0.606457847
     0.139837799  0.610181203  0.606457847
     0.639836041  0.103537754  0.606457847
     0.639837839  0.610181203  0.608378153
     0.360163526  0.396463256  0.606457847
     0.360161732  0.889819642  0.606457847
     0.860161664  0.389819721  0.608378153
     0.853517488  0.889819642  0.606457847
     0.110218010  0.360221751  0.606492827
     0.103571985  0.853578243  0.606492827
     0.603571970  0.353578216  0.606492827
     0.610216124  0.853578243  0.606492827
     0.396426236  0.139779265  0.606492827
     0.389783764  0.646422655  0.606492827
     0.896426315  0.139779265  0.606492827
     0.896428166  0.646422655  0.608413133
     0.000000000  0.000000000  0.754927972
     0.000000000  0.500000000  0.754927972
     0.500000000  0.000000000  0.754927972
     0.499999989  0.500000000  0.754927972
     0.250000496  0.250000000  0.754939022
     0.250000511  0.749999974  0.754939022
     0.750000470  0.250000000  0.754939022
     0.750000458  0.749999974  0.754939022
     0.135790500  0.114209997  0.704782994
     0.135790502  0.614209984  0.704782994
     0.635790447  0.114209997  0.704782994
     0.635790488  0.614209984  0.704782994
     0.364209516  0.385789989  0.704782994
     0.364209505  0.885789963  0.704782994
     0.864209542  0.385789989  0.704782994
     0.864209531  0.885789963  0.704782994
     0.114217990  0.364218986  0.704780979
     0.114217992  0.864218986  0.704780979
     0.614218004  0.364218986  0.704780979
     0.614217992  0.864218986  0.704780979
     0.385782012  0.135781489  0.704782017
     0.385782001  0.635781489  0.704782017
     0.885781985  0.135781489  0.704782017
     0.885782027  0.635781489  0.704782017
     0.134667000  0.115332001  0.801256025
     0.134666989  0.615331988  0.801256025
     0.634666987  0.115332001  0.801256025
     0.634666976  0.615331988  0.801256025
     0.365333002  0.384667985  0.801256025
     0.365332990  0.884667959  0.801256025
     0.865332949  0.384667985  0.801256025
     0.865332938  0.884667959  0.801256025
     0.115328503  0.365337004  0.801264999
     0.115328505  0.865336978  0.801264999
     0.615328503  0.365337004  0.801264999
     0.615328492  0.865336978  0.801264999
     0.384671513  0.134662996  0.801264999
     0.384671501  0.634662970  0.801264999
     0.884671486  0.134662996  0.801264999
     0.884671528  0.634662970  0.801264999
     0.003323516  0.003322744  0.603167150
     0.003321707  0.496679288  0.603167150
     0.496679298  0.003322744  0.603167150
     0.496677477  0.496679288  0.601246844
     0.246678764  0.253321239  0.603175147
     0.253321240  0.746677784  0.603175147
     0.746678817  0.253321239  0.603175147
     0.746678805  0.753321213  0.603175147
     0.000000500  0.000000500  0.704828963
     0.000000500  0.500000475  0.704828963
     0.500000475  0.000000500  0.704828963
     0.500000464  0.500000475  0.704828963
     0.249999994  0.249999472  0.704824995
     0.250000010  0.749999498  0.704824995
     0.749999994  0.249999472  0.704824995
     0.749999983  0.749999498  0.704824995
     0.000000000  0.000000000  0.807317968
     0.000000000  0.500000000  0.807317968
     0.500000000  0.000000000  0.807317968
     0.499999989  0.500000000  0.807317968
     0.249999994  0.250000000  0.807317968
     0.250000010  0.749999974  0.807317968
     0.749999994  0.250000000  0.807317968
     0.749999983  0.749999974  0.807317968

  ion indices of the primitive-cell ions
   primitive index   ion index
                 1           1
                 2           2
                 3           3
                 4           4
                 5           5
                 6           6
                 7           7
                 8           8
                 9           9
                10          10
                11          11
                12          12
                13          13
                14          14
                15          15
                16          16
                17          17
                18          18
                19          19
                20          20
                21          21
                22          22
                23          23
                24          24
                25          25
                26          26
                27          27
                28          28
                29          29
                30          30
                31          31
                32          32
                33          33
                34          34
                35          35
                36          36
                37          37
                38          38
                39          39
                40          40
                41          41
                42          42
                43          43
                44          44
                45          45
                46          46
                47          47
                48          48
                49          49
                50          50
                51          51
                52          52
                53          53
                54          54
                55          55
                56          56
                57          57
                58          58
                59          59
                60          60
                61          61
                62          62
                63          63
                64          64
                65          65
                66          66
                67          67
                68          68
                69          69
                70          70
                71          71
                72          72
                73          73
                74          74
                75          75
                76          76
                77          77
                78          78
                79          79
                80          80
                81          81
                82          82
                83          83
                84          84
                85          85
                86          86
                87          87
                88          88
                89          89
                90          90
                91          91
                92          92
                93          93
                94          94
                95          95
                96          96
                97          97
                98          98
                99          99
               100         100
               101         101
               102         102
               103         103
               104         104
               105         105
               106         106
               107         107
               108         108
               109         109
               110         110
               111         111
               112         112
               113         113
               114         114
               115         115
               116         116
               117         117
               118         118
               119         119
               120         120
               121         121
               122         122
               123         123
               124         124
               125         125
               126         126
               127         127
               128         128
               129         129
               130         130
               131         131
               132         132
               133         133
               134         134
               135         135
               136         136
               137         137
               138         138
               139         139
               140         140
               141         141
               142         142
               143         143
               144         144
               145         145
               146         146
               147         147
               148         148
               149         149
               150         150
               151         151
               152         152
               153         153
               154         154
               155         155
               156         156
               157         157
               158         158
               159         159
               160         160
               161         161
               162         162
               163         163
               164         164
               165         165
               166         166
               167         167
               168         168
               169         169
               170         170
               171         171
               172         172
               173         173
               174         174
               175         175
               176         176
               177         177
               178         178
               179         179
               180         180
               181         181
               182         182
               183         183
               184         184
               185         185
               186         186
               187         187
               188         188
               189         189
               190         190
               191         191
               192         192
               193         193
               194         194
               195         195
               196         196
               197         197
               198         198
               199         199
               200         200
               201         201
               202         202
               203         203
               204         204
               205         205
               206         206
               207         207
               208         208
               209         209
               210         210
               211         211
               212         212
               213         213
               214         214
               215         215
               216         216
               217         217
               218         218
               219         219
               220         220
               221         221
               222         222
               223         223
               224         224
               225         225
               226         226
               227         227
               228         228
               229         229
               230         230
               231         231
               232         232
               233         233
               234         234
               235         235
               236         236
               237         237
               238         238
               239         239
               240         240
               241         241
               242         242
               243         243
               244         244
               245         245
               246         246
               247         247
               248         248
               249         249
               250         250
               251         251
               252         252
               253         253
               254         254
               255         255
               256         256
               257         257
               258         258
               259         259
               260         260
               261         261
               262         262
               263         263
               264         264
               265         265
               266         266
               267         267
               268         268
               269         269
               270         270
               271         271
               272         272
               273         273
               274         274
               275         275
               276         276
               277         277
               278         278
               279         279
               280         280
               281         281
               282         282
               283         283
               284         284
               285         285
               286         286
               287         287
               288         288
               289         289
               290         290
               291         291
               292         292
               293         293
               294         294
               295         295
               296         296
               297         297
               298         298
               299         299
               300         300
               301         301
               302         302
               303         303
               304         304
               305         305
               306         306
               307         307
               308         308
               309         309
               310         310
               311         311
               312         312
               313         313
               314         314
               315         315
               316         316
               317         317
               318         318
               319         319
               320         320
               321         321
               322         322
               323         323
               324         324
               325         325

----------------------------------------------------------------------------------------

 
 
 KPOINTS: Automatic Mesh                          

Automatic generation of k-mesh.
 Grid dimensions read from file:
 generate k-points for:    3    3    1

 Generating k-lattice:

  Cartesian coordinates                     Fractional coordinates (reciprocal lattice)
     0.018456177  0.000005026 -0.000000000     0.333333333  0.000000000  0.000000000
     0.000000000  0.018454135  0.000000000     0.000000000  0.333333333  0.000000000
     0.000000000 -0.000000000  0.016003201     0.000000000  0.000000000  1.000000000

  Length of vectors
     0.018456178  0.018454135  0.016003201

  Shift w.r.t. Gamma in fractional coordinates (k-lattice)
     0.000000000  0.000000000  0.000000000

 
 Subroutine IBZKPT returns following result:
 ===========================================
 
 Found      5 irreducible k-points:
 
 Following reciprocal coordinates:
            Coordinates               Weight
  0.000000  0.000000  0.000000      1.000000
  0.333333  0.000000  0.000000      2.000000
  0.000000  0.333333  0.000000      2.000000
  0.333333  0.333333  0.000000      2.000000
 -0.333333  0.333333  0.000000      2.000000
 
 Following cartesian coordinates:
            Coordinates               Weight
  0.000000  0.000000  0.000000      1.000000
  0.018456  0.000005  0.000000      2.000000
  0.000000  0.018454  0.000000      2.000000
  0.018456  0.018459  0.000000      2.000000
 -0.018456  0.018449  0.000000      2.000000
 


--------------------------------------------------------------------------------------------------------




 Dimension of arrays:
   k-points           NKPTS =      5   k-points in BZ     NKDIM =      5   number of bands    NBANDS=    732
   number of dos      NEDOS =    301   number of ions     NIONS =    325
   non local maximal  LDIM  =      5   non local SUM 2l+1 LMDIM =     13
   total plane-waves  NPLWV = ******
   max r-space proj   IRMAX =   3336   max aug-charges    IRDMAX=  19845
   dimension x,y,z NGX =   100 NGY =  100 NGZ =  350
   dimension x,y,z NGXF=   200 NGYF=  200 NGZF=  700
   support grid    NGXF=   200 NGYF=  200 NGZF=  700
   ions per type =             143  39  47  72  24
   NGX,Y,Z   is equivalent  to a cutoff of   9.20,  9.20,  9.31 a.u.
   NGXF,Y,Z  is equivalent  to a cutoff of  18.41, 18.41, 18.62 a.u.

 SYSTEM =  PSC                                     
 POSCAR =   H  C  N  I Pb                          

 Startparameter for this run:
   NWRITE =      2    write-flag & timer
   PREC   = normal    normal or accurate (medium, high low for compatibility)
   ISTART =      0    job   : 0-new  1-cont  2-samecut
   ICHARG =      1    charge: 1-file 2-atom 10-const
   ISPIN  =      1    spin polarized calculation?
   LNONCOLLINEAR =      F non collinear calculations
   LSORBIT =      F    spin-orbit coupling
   INIWAV =      1    electr: 0-lowe 1-rand  2-diag
   LASPH  =      F    aspherical Exc in radial PAW
 Electronic Relaxation 1
   ENCUT  =  500.0 eV  36.75 Ry    6.06 a.u.  32.93 32.93113.93*2*pi/ulx,y,z
   ENINI  =  500.0     initial cutoff
   ENAUG  =  644.9 eV  augmentation charge cutoff
   NELM   =    600;   NELMIN=  2; NELMDL=  0     # of ELM steps 
   EDIFF  = 0.1E-03   stopping-criterion for ELM
   LREAL  =      T    real-space projection
   NLSPLINE    = F    spline interpolate recip. space projectors
   LCOMPAT=      F    compatible to vasp.4.4
   GGA_COMPAT  = F    GGA compatible to vasp.4.4-vasp.4.6
   LMAXPAW     = -100 max onsite density
   LMAXMIX     =    2 max onsite mixed and CHGCAR
   VOSKOWN=      0    Vosko Wilk Nusair interpolation
   ROPT   =   -0.00050  -0.00050  -0.00050  -0.00050
   ROPT   =   -0.00050
 Ionic relaxation
   EDIFFG = 0.1E-02   stopping-criterion for IOM
   NSW    =      0    number of steps for IOM
   NBLOCK =      1;   KBLOCK =      1    inner block; outer block 
   IBRION =     -1    ionic relax: 0-MD 1-quasi-New 2-CG
   NFREE  =      0    steps in history (QN), initial steepest desc. (CG)
   ISIF   =      2    stress and relaxation
   IWAVPR =     10    prediction:  0-non 1-charg 2-wave 3-comb
   ISYM   =      0    0-nonsym 1-usesym 2-fastsym
   LCORR  =      T    Harris-Foulkes like correction to forces

   POTIM  = 0.5000    time-step for ionic-motion
   TEIN   =    0.0    initial temperature
   TEBEG  =    0.0;   TEEND  =   0.0 temperature during run
   SMASS  =  -3.00    Nose mass-parameter (am)
   estimated Nose-frequenzy (Omega)   =  0.10E-29 period in steps = 0.13E+47 mass=  -0.745E-26a.u.
   SCALEE = 1.0000    scale energy and forces
   NPACO  =    256;   APACO  = 16.0  distance and # of slots for P.C.
   PSTRESS=    0.0 pullay stress

  Mass of Ions in am
   POMASS =   1.00 12.01 14.00126.90207.20
  Ionic Valenz
   ZVAL   =   1.00  4.00  5.00  7.00  4.00
  Atomic Wigner-Seitz radii
   RWIGS  =  -1.00 -1.00 -1.00 -1.00 -1.00
  virtual crystal weights 
   VCA    =   1.00  1.00  1.00  1.00  1.00
   NELECT =    1134.0000    total number of electrons
   NUPDOWN=      -1.0000    fix difference up-down

 DOS related values:
   EMIN   =  10.00;   EMAX   =-10.00  energy-range for DOS
   EFERMI =   0.00
   ISMEAR =     0;   SIGMA  =   0.05  broadening in eV -4-tet -1-fermi 0-gaus

 Electronic relaxation 2 (details)
   IALGO  =     38    algorithm
   LDIAG  =      T    sub-space diagonalisation (order eigenvalues)
   LSUBROT=      F    optimize rotation matrix (better conditioning)
   TURBO    =      0    0=normal 1=particle mesh
   IRESTART =      0    0=no restart 2=restart with 2 vectors
   NREBOOT  =      0    no. of reboots
   NMIN     =      0    reboot dimension
   EREF     =   0.00    reference energy to select bands
   IMIX   =      4    mixing-type and parameters
     AMIX     =   0.40;   BMIX     =  0.01
     AMIX_MAG =   1.60;   BMIX_MAG =  0.01
     AMIN     =   0.01
     WC   =   100.;   INIMIX=   1;  MIXPRE=   1;  MAXMIX= -45

 Intra band minimization:
   WEIMIN = 0.0000     energy-eigenvalue tresh-hold
   EBREAK =  0.34E-07  absolut break condition
   DEPER  =   0.30     relativ break condition  

   TIME   =   0.40     timestep for ELM

  volume/ion in A,a.u.               =      62.72       423.28
  Fermi-wavevector in a.u.,A,eV,Ry     =   0.624944  1.180972  5.313816  0.390554
  Thomas-Fermi vector in A             =   1.685677
 
 Write flags
   LWAVE        =      F    write WAVECAR
   LDOWNSAMPLE  =      F    k-point downsampling of WAVECAR
   LCHARG       =      T    write CHGCAR
   LVTOT        =      T    write LOCPOT, total local potential
   LVHAR        =      F    write LOCPOT, Hartree potential only
   LELF         =      F    write electronic localiz. function (ELF)
   LORBIT       =      0    0 simple, 1 ext, 2 COOP (PROOUT), +10 PAW based schemes


 Dipole corrections
   LMONO  =      F    monopole corrections only (constant potential shift)
   LDIPOL =      T    correct potential (dipole corrections)
   IDIPOL =      3    1-x, 2-y, 3-z, 4-all directions 
   EPSILON=  1.0000000 bulk dielectric constant

 Exchange correlation treatment:
   GGA     =    --    GGA type
   LEXCH   =     8    internal setting for exchange type
   VOSKOWN=      0    Vosko Wilk Nusair interpolation
   LHFCALC =     F    Hartree Fock is set to
   LHFONE  =     F    Hartree Fock one center treatment
   AEXX    =    0.0000 exact exchange contribution

 Linear response parameters
   LEPSILON=     F    determine dielectric tensor
   LRPA    =     F    only Hartree local field effects (RPA)
   LNABLA  =     F    use nabla operator in PAW spheres
   LVEL    =     F    velocity operator in full k-point grid
   LINTERFAST=   F  fast interpolation
   KINTER  =     0    interpolate to denser k-point grid
   CSHIFT  =0.1000    complex shift for real part using Kramers Kronig
   OMEGAMAX=  -1.0    maximum frequency
   DEG_THRESHOLD= 0.2000000E-02 threshold for treating states as degnerate
   RTIME   =   -0.100 relaxation time in fs
  (WPLASMAI=    0.000 imaginary part of plasma frequency in eV, 0.658/RTIME)
   DFIELD  = 0.0000000 0.0000000 0.0000000 field for delta impulse in time
 
 Orbital magnetization related:
   ORBITALMAG=     F  switch on orbital magnetization
   LCHIMAG   =     F  perturbation theory with respect to B field
   DQ        =  0.001000  dq finite difference perturbation B field
   LLRAUG    =     F  two centre corrections for induced B field



--------------------------------------------------------------------------------------------------------


 Static calculation
 charge density and potential will be updated during run
 non-spin polarized calculation
 Variant of blocked Davidson
 Davidson routine will perform the subspace rotation
 perform sub-space diagonalisation
    after iterative eigenvector-optimisation
 modified Broyden-mixing scheme, WC =      100.0
 initial mixing is a Kerker type mixing with AMIX =  0.4000 and BMIX =      0.0100
 Hartree-type preconditioning will be used
 using additional bands           165
[...]
     13.54561      0.00000     45.35368        -0.001342     -0.000340      0.009843
     13.54315      9.03140     45.35368        -0.003722      0.001351      0.011855
     13.17458      8.45453     34.50359         0.241349     -0.272657     -0.200981
     13.57827      9.39430     33.08773         0.153919     -0.069875      0.456783
     11.95306     10.19355     35.49603        -0.701448     -1.313793      0.424974
     12.70495     11.72440     35.67487        -0.443740      0.005680     -0.171133
     15.34541      9.65274     36.52296        -0.201939     -0.076489     -0.249503
     13.94160     10.67998     36.98816         0.601358      0.179057      0.249118
     15.99457     10.55711     34.27938        -0.281866     -0.633713      0.179583
     14.69906     11.63545     33.60229         1.015544     -0.711433      0.844569
     15.87540      9.01430     33.27496         0.252327      0.380590     -0.311820
     15.70840      8.34787     34.84912         0.233858     -0.027180      0.271929
     16.22899      6.55240     33.37711         0.024907      0.756194      0.439157
     14.60791      6.54240     34.04809        -0.152941     -0.750058      0.143753
     11.57731     10.34001     33.26711        -0.600788     -0.583356     -0.601412
     12.86601     11.51480     32.94370         0.041238     -0.166217     -0.187838
     11.40738     12.08345     33.64024        -0.039768     -0.185306     -0.034978
     13.55524      8.62370     37.88284        -0.303430     -0.051513     -0.030987
     13.77846      7.83660     36.37486        -0.078128     -1.028209     -0.379894
     12.34991      8.81145     36.63469         0.047242      0.234612     -0.156374
     14.89133     12.44140     36.20972         0.411019     -0.040897     -0.352660
     15.66960     13.12809     34.87706         0.273659      0.791824     -0.787913
     16.51991     11.98825     35.81853         1.480592     -0.465966      0.273118
     15.41646      7.55564     31.29313        -0.539240     -1.069648      0.689536
     14.91317      5.82844     31.54300        -0.231627      0.309688      0.588167
     12.47580      6.23846     33.32564         0.053114     -0.053363     -0.149427
     13.78590      8.79485     30.09240        -1.469368     -0.649140      1.043315
     10.24502      7.10066     33.12906        -0.182920     -0.266701     -0.060947
     11.40208      9.60437     29.83962         0.390866     -1.426349      1.193374
      9.63847      8.79924     31.41282         1.288539     -0.556251     -0.083267
     18.04581      4.52588     34.80317         5.105168     -4.792301     -4.304685
      0.04477     13.61939     34.80070        -2.053493      2.191611     -3.686349
      9.01721      4.56163     34.74116         4.103450     -3.855634     -5.017731
      8.97983     13.59389     34.79961         4.163066     -4.415831     -4.911939
      4.50006      8.98461     34.80025         3.059399      3.267111     -1.622969
      4.56333      0.04753     34.73913        -3.157669     -2.983520     -1.446259
     13.55386     17.99037     34.74048         2.842737      2.937215     -1.589554
     18.01413      4.56212     40.46346         3.472266     -3.695351      4.356812
     17.98410     13.53412     40.52480         2.848082     -2.573526      4.804158
      9.04213      4.58869     40.52480         5.243352     -5.002919      2.500039
      8.95460     13.56208     40.46726         4.876513     -4.798254      1.786426
      4.46530      8.95825     40.52377         2.649034      2.632152      2.288432
      4.49608     18.04983     40.52197        -4.974759     -5.145807      1.794862
     13.53275      9.10199     40.58348        -6.396235     -5.600563     -3.689455
     13.53216      0.04561     40.52219        -5.084632     -4.645517      1.730617
      9.02897      4.51561     46.44552         0.022230     -0.004155      0.049982
      9.02651     13.54701     46.44552         0.012969      0.002602      0.038115
     18.05937      4.51561     46.44552         0.015057     -0.000430      0.054215
     18.05691     13.54701     46.44552         0.016592      0.001971      0.045719
      4.51521      0.00002     46.44421        -0.011921     -0.012642      0.053756
      4.51275      9.03142     46.44421         0.011815      0.013462      0.056147
     13.54561      0.00002     46.44421        -0.001580     -0.002175      0.048777
     13.54315      9.03142     46.44421        -0.009821     -0.008753      0.050779
     13.26057      7.44698     31.71627         2.731671     -2.523237      0.948474
     12.24051      6.93504     32.52612         2.647436     -1.049774      0.507607
     12.94029      8.36834     30.77282         2.973688      0.665306     -2.052962
     11.00454      7.36431     32.40008        -3.388347      2.014585     -0.556396
     11.63322      8.76960     30.62333         1.443484      4.124980     -4.245446
     10.69616      8.37469     31.43365        -4.593835     -1.748452      3.009062
     13.99466      9.03284     34.05211        -4.954625      2.671644     -0.370442
     12.60189     10.86508     35.01525         0.528902      1.620956     -1.581004
     14.27186      9.81994     36.40481        -0.710407      2.221540     -1.219253
     15.13621     11.15993     34.56655        -1.952128      0.338987     -3.954080
     15.22414      8.38400     33.87081         3.063486      3.075891      1.474110
     15.24898      7.09411     33.37131        -0.174053     -5.205212     -1.234831
     12.07602     11.21571     33.63114        -0.090831     -0.354986      0.167082
     13.42363      8.74286     36.80828        -1.222256     -1.617432      0.417167
     15.59360     12.22778     35.41021        -0.411112     -0.045039      0.102391
     14.79518      6.84678     31.97366        -1.837097      3.036265     -2.960276
      0.91339      3.65799     35.29296        -2.792619      2.616719      1.213965
      0.80140     12.76093     35.29589         3.972657     -4.022579      3.594359
      9.88439      3.78451     35.28370         1.811145     -1.517135      1.887434
      9.76308     12.76905     35.45169         1.177094     -1.411707     -0.280054
      8.24277      5.31528     35.28446        -5.409371      5.271952      4.011865
      8.22077     14.39356     35.29687        -6.160852      6.210000      4.547868
     17.27557      5.24523     35.45201        -2.691362      2.558280      2.098254
     17.32176     14.44537     35.45314         0.322634      0.467170     -0.137255
      3.72654      8.22136     35.40296        -4.691562     -4.321552     -2.765109
      3.72567     17.32506     35.39151        -1.926277     -1.859984     -4.479414
     12.79025     17.21720     35.34319        -4.361935     -4.585223     -2.599314
      5.37164      0.80975     35.29608         4.553819      4.406825     -2.889276
      5.37047      9.76874     35.40327         1.628322      1.792297     -4.490285
     14.34333      0.79759     35.34350         1.860766      1.725383     -4.576148
      0.79369      3.66807     41.16776        -3.897292      4.148387     -0.441291
      0.80431     12.63886     41.17585        -4.492484      4.767555     -3.085146
      9.93736      3.70762     41.17583        -4.521552      4.218476     -0.043822
      9.83470     12.68774     41.06684        -0.440180      0.122255     -2.890630
      3.65519      8.17197     41.11679         0.249069      0.580893      4.677838
      3.65350     17.15395     41.16646         5.309512      5.658788      4.216440
     12.63356      8.22466     41.11476         1.645371      1.510351      2.149426
     12.63246     17.26467     41.16669         5.655513      5.224379      4.290745
      8.23377      5.31562     41.11604        -2.992143      2.456784      4.733457
      8.22814     14.33508     41.10458        -2.815908      2.933703      4.793780
     17.25152      5.37352     41.06853        -3.166880      3.370974     -1.609173
     17.26092     14.40434     41.17415         0.534725     -0.877885      0.139691
      5.26181      0.79600     41.06712         2.863762      2.946806      4.796360
      5.30282      9.83926     41.11319        -2.901113     -2.554916      3.608285
     14.34012      0.80750     41.06734         3.930149      3.790010      3.991341
     14.33928      9.83020     41.11476         6.069995      5.390228      4.480592
      0.82731      3.68697     47.03596         0.018396     -0.017358     -0.094314
      0.82485     12.71837     47.03596         0.015955     -0.022049     -0.090581
      9.85771      3.68697     47.03596         0.012137     -0.017919     -0.094047
      9.85525     12.71837     47.03596         0.021539     -0.020487     -0.084633
      3.68432      8.20234     47.03465        -0.016862     -0.021847     -0.076616
      3.68186     17.23373     47.03465        -0.002123     -0.004246     -0.078758
     12.71472      8.20234     47.03465        -0.003710     -0.007542     -0.077935
     12.71226     17.23373     47.03465        -0.008100     -0.012313     -0.071326
      8.20068      5.34457     47.03603        -0.028215      0.020229     -0.095311
      8.19822     14.37597     47.03603        -0.021293      0.020047     -0.089304
     17.23108      5.34457     47.03603        -0.019637      0.019420     -0.097127
     17.22862     14.37597     47.03603        -0.023617      0.016823     -0.092457
      5.34365      0.82909     47.03465         0.019059      0.019127     -0.074055
      5.34119      9.86049     47.03465         0.004139     -0.000079     -0.077846
     14.37405      0.82909     47.03465         0.013141      0.012041     -0.072326
     14.37159      9.86049     47.03465         0.018171      0.017263     -0.071349
     13.95484     10.33246     34.97487         2.946609     -4.004525      0.553592
      8.96548     18.00280     34.54710        -0.025646      0.046699     -0.019125
      8.96794      9.09140     34.54710        -0.269949      0.193187      0.127140
     17.99588     18.00280     34.54710         0.055156      0.054215     -0.022565
      0.05754      9.09140     34.54710         1.750772      0.074933      0.331234
      4.45399      4.57570     34.54823         0.082353      0.012682      0.021022
      4.45153     13.48710     34.42823         0.046557     -0.006745      0.233195
     13.48439      4.45570     34.54823        -0.038654     -1.255618      0.781657
     13.48193     13.60710     34.42823        -1.926727      4.939611     -0.940521
     17.99588     18.00280     40.92032        -0.014772      0.024492     -0.033123
      0.05754      8.97140     40.92032        -0.021183     -0.026586     -0.108495
      9.08548     18.00280     40.92032        -0.131264      0.000406     -0.059713
      8.96794      9.09140     40.92032        -0.034005     -0.108409     -0.151186
      4.45397      4.45570     40.92114         0.090878      0.026206     -0.228128
      4.57151     13.60710     40.92114        -0.008626     -0.061173     -0.130409
     13.60437      4.57570     40.92114         0.013102     -0.071772     -0.152378
     13.48191     13.60710     40.80114         0.090634     -0.060790      0.276273
      2.52504      1.87018     37.89603         0.459047      0.336665      0.089057
      2.52258     11.02158     37.89603         0.018515     -0.130868      0.080818
     11.55544      1.87018     37.89603         0.217978      0.230386      0.013080
     11.55298     11.02158     38.01603        -1.138966      0.519575      1.330325
      6.50289      7.16124     37.89603        -0.366166     -0.382648      0.063052
      6.50043     16.07263     37.89603        -0.091874     -0.004927      0.075415
     15.53329      7.04124     38.01603         1.448735     -1.089159      0.733295
     15.41083     16.07263     37.89603         0.109295      0.185899      0.093296
      1.98885      6.50661     37.89822         0.035560     -0.238341      0.123827
      1.86639     15.41801     37.89822         0.104445      0.013382      0.052958
     10.89925      6.38661     37.89822        -0.122684      0.008463      0.010619
     11.01679     15.41801     37.89822        -0.246150      0.186702      0.026465
      7.15909      2.52480     37.89822        -0.322061      0.362579      0.078371
      7.03663     11.67620     37.89822         0.346286     -0.313569      0.059006
     16.18949      2.52480     37.89822        -0.243970      0.301476      0.073817
     16.18703     11.67620     38.01822         1.590435     -0.514018      4.342530
      0.00000      0.00000     47.17356        -0.001088      0.000929      0.486313
     -0.00246      9.03140     47.17356        -0.000169     -0.001261      0.439276
      9.03040      0.00000     47.17356        -0.001384      0.002114      0.473109
      9.02794      9.03140     47.17356        -0.002396     -0.001709      0.498671
      4.51398      4.51570     47.17425         0.000750      0.000304      0.413247
      4.51152     13.54710     47.17425         0.000859      0.000829      0.468127
     13.54438      4.51570     47.17425         0.002629      0.000792      0.451549
     13.54192     13.54710     47.17425         0.002517     -0.000762      0.340503
      2.45192      2.06295     44.04013         0.022660      0.006389     -0.021169
      2.44946     11.09435     44.04013         0.022022     -0.048652     -0.003826
     11.48232      2.06295     44.04013         0.029251     -0.005876     -0.001205
     11.47986     11.09435     44.04013         0.024381      0.002201     -0.036491
      6.57602      6.96845     44.04013         0.023559     -0.086519     -0.110121
      6.57356     15.99985     44.04013         0.051828     -0.031943     -0.076819
     15.60642      6.96845     44.04013         0.033823     -0.001185     -0.064753
     15.60396     15.99985     44.04013        -0.008590     -0.027675     -0.024071
      2.06108      6.57881     44.04000         0.032331      0.022646     -0.056982
      2.05862     15.61021     44.04000        -0.011151     -0.005134      0.010349
     11.09148      6.57881     44.04000        -0.009062     -0.015302     -0.019948
     11.08902     15.61021     44.04000        -0.001655     -0.013433      0.008947
      6.96686      2.45259     44.04007        -0.075560     -0.031168     -0.132226
      6.96440     11.48399     44.04007        -0.028867     -0.019413     -0.045331
     15.99726      2.45259     44.04007        -0.057392     -0.041507     -0.108337
     15.99481     11.48399     44.04007        -0.024505     -0.026681     -0.085612
      2.43163      2.08322     50.06849         0.015511     -0.004675      0.020446
      2.42917     11.11462     50.06849         0.004938     -0.015885      0.021265
     11.46203      2.08322     50.06849         0.011733     -0.008830      0.021031
     11.45957     11.11462     50.06849         0.020111     -0.001614      0.021418
      6.59631      6.94818     50.06849        -0.016140      0.003527      0.020649
      6.59385     15.97958     50.06849        -0.008476      0.011643      0.021287
     15.62671      6.94818     50.06849        -0.006439      0.012956      0.020611
     15.62425     15.97958     50.06849        -0.018407      0.001319      0.020824
      2.08113      6.59901     50.06905        -0.009354     -0.011058      0.020355
      2.07867     15.63041     50.06905        -0.010726     -0.009052      0.021497
     11.11153      6.59901     50.06905        -0.006855     -0.012921      0.021845
     11.10907     15.63041     50.06905        -0.001553     -0.018114      0.021084
      6.94681      2.43239     50.06905         0.005463      0.014901      0.020575
      6.94435     11.46379     50.06905         0.009760      0.009509      0.021625
     15.97721      2.43239     50.06905         0.008610      0.011891      0.021323
     15.97475     11.46379     50.06905         0.006937      0.013370      0.020819
      0.06001      0.06002     37.69041        -0.280913     -0.499411     -0.103623
      0.05755      8.97142     37.69041        -0.213629      0.535980      0.151962
      8.97041      0.06002     37.69041         0.249985     -0.315553     -0.068695
      8.96795      8.97142     37.57041         0.342441      0.400006      0.368776
      4.45397      4.57569     37.69091         0.177394     -0.234662     -0.000590
      4.57151     13.48709     37.69091        -0.373302      0.291027     -0.219353
     13.48437      4.57569     37.69091         0.083054     -0.307535     -0.003568
     13.48191     13.60709     37.69091        -0.157106      0.422391      0.326281
      0.00001      0.00001     44.04300         0.031080     -0.023638     -0.010339
     -0.00245      9.03141     44.04300         0.010455      0.029591      0.096662
      9.03041      0.00001     44.04300         0.047787     -0.023709      0.012984
      9.02795      9.03141     44.04300         0.041527      0.040885     -0.034113
      4.51397      4.51569     44.04275        -0.036179     -0.022032      0.158987
      4.51151     13.54709     44.04275        -0.021229     -0.019196      0.016260
     13.54437      4.51569     44.04275        -0.045295      0.005435      0.071051
     13.54191     13.54709     44.04275        -0.054985      0.018691     -0.084836
      0.00000      0.00000     50.44728         0.003040     -0.001332     -0.646529
     -0.00246      9.03140     50.44728         0.003043      0.000274     -0.631960
      9.03040      0.00000     50.44728        -0.002565     -0.000788     -0.642752
      9.02794      9.03140     50.44728        -0.002584      0.000862     -0.649697
      4.51397      4.51570     50.44728         0.003859     -0.002445     -0.622991
      4.51151     13.54710     50.44728         0.003568      0.002380     -0.642728
     13.54437      4.51570     50.44728        -0.002788     -0.002591     -0.636456
     13.54191     13.54710     50.44728        -0.003048      0.001998     -0.609722
 -----------------------------------------------------------------------------------
    total drift:                               -0.105920      0.072386      0.204920


--------------------------------------------------------------------------------------------------------



  FREE ENERGIE OF THE ION-ELECTRON SYSTEM (eV)
  ---------------------------------------------------
  free  energy   TOTEN  =     -1555.28965177 eV

  energy  without entropy=    -1555.28965177  energy(sigma->0) =    -1555.28965177
 


--------------------------------------------------------------------------------------------------------


    POTLOK:  cpu time    0.5011: real time    0.5010


--------------------------------------------------------------------------------------------------------


     LOOP+:  cpu time  343.2575: real time  343.7641
 vacuum level on the upper side and lower side of the slab         2.405         1.489
    4ORBIT:  cpu time    0.0000: real time    0.0000

 total amount of memory used by VASP MPI-rank0  8653581. kBytes
=======================================================================

   base      :      30000. kBytes
   nonlr-proj:      53619. kBytes
   fftplans  :     249280. kBytes
   grid      :     701440. kBytes
   one-center:       2636. kBytes
   wavefun   :    7616606. kBytes
 
  
  
 General timing and accounting informations for this job:
 ========================================================
  
                  Total CPU time used (sec):      554.692
                            User time (sec):      443.525
                          System time (sec):      111.166
                         Elapsed time (sec):      557.814
  
                   Maximum memory used (kb):    10366236.
                   Average memory used (kb):          N/A
  
                          Minor page faults:      3828482
                          Major page faults:           13
                 Voluntary context switches:        11521
