<?xml version="1.0" encoding="ISO-8859-1"?>
<modeling>
 <generator>
  <i name="program" type="string">vasp </i>
  <i name="version" type="string">6.2.1  </i>
  <i name="subversion" type="string">16May21 (build Nov 15 2021 14:57:28) complex                          parallel </i>
  <i name="platform" type="string">LinuxPGI </i>
  <i name="date" type="string">2023 07 30 </i>
  <i name="time" type="string">15:55:37 </i>
 </generator>
 <incar>
  <i type="string" name="SYSTEM">PSC</i>
  <i type="int" name="ISTART">     1</i>
  <i type="string" name="PREC">Normal</i>
  <i name="BMIX">      0.01000000</i>
  <i name="AMIN">      0.01000000</i>
  <i type="int" name="ICHARG">     1</i>
  <i type="int" name="NELM">   600</i>
  <i type="int" name="ISYM">     0</i>
  <i name="ENCUT">    500.00000000</i>
  <i type="string" name="LREAL">Auto</i>
  <i type="int" name="ISMEAR">     0</i>
  <i name="SIGMA">      0.05000000</i>
  <i type="logical" name="LWAVE"> F  </i>
  <i type="logical" name="LVTOT"> T  </i>
  <i type="logical" name="GGA_COMPAT"> F  </i>
  <i type="logical" name="LDIPOL"> T  </i>
  <i type="int" name="IDIPOL">     3</i>
  <i type="int" name="IVDW">    12</i>
 </incar>
 <primitive_cell>
  <structure name="primitive_cell" >
   <crystal>
    <varray name="basis" >
     <v>      18.06080055       0.00000000       0.00000000 </v>
     <v>      -0.00491865      18.06279945       0.00000000 </v>
     <v>       0.00000000       0.00000000      62.48749924 </v>
    </varray>
    <i name="volume">  20385.21054034 </i>
    <varray name="rec_basis" >
     <v>       0.05536853       0.00001508      -0.00000000 </v>
     <v>       0.00000000       0.05536240       0.00000000 </v>
     <v>       0.00000000      -0.00000000       0.01600320 </v>
    </varray>
   </crystal>
   <varray name="positions" >
    <v>       0.45351893       0.30358484       0.58087741 </v>
    <v>       0.44612534       0.80332502       0.58195984 </v>
    <v>       0.95386064       0.29301598       0.58366386 </v>
    <v>       0.95671952       0.80251774       0.58368193 </v>
    <v>       0.30458232       0.05159294       0.58004009 </v>
    <v>       0.30456586       0.54441068       0.58184898 </v>
    <v>       0.79775050       0.05124125       0.58089200 </v>
    <v>       0.08460699       0.17091427       0.55653014 </v>
    <v>       0.07980236       0.66947593       0.55651945 </v>
    <v>       0.58474694       0.17642397       0.55693232 </v>
    <v>       0.57432208       0.66827811       0.55930639 </v>
    <v>       0.33376089       0.07910374       0.55460971 </v>
    <v>       0.33395671       0.57708845       0.55695545 </v>
    <v>       0.83044981       0.08060827       0.55599841 </v>
    <v>       0.05343870       0.19982179       0.58102716 </v>
    <v>       0.05383999       0.69999844       0.58194696 </v>
    <v>       0.55679359       0.20707972       0.58086899 </v>
    <v>       0.54334974       0.70412389       0.58366197 </v>
    <v>       0.20246850       0.44829331       0.58184654 </v>
    <v>       0.20266334       0.95546989       0.58175680 </v>
    <v>       0.70159981       0.94917661       0.58089042 </v>
    <v>       0.41751510       0.32570948       0.55700411 </v>
    <v>       0.42015046       0.83385360       0.55652910 </v>
    <v>       0.92087616       0.32362677       0.55927653 </v>
    <v>       0.92563069       0.83505158       0.55929467 </v>
    <v>       0.16806853       0.42094112       0.55695393 </v>
    <v>       0.16816255       0.92294756       0.55740098 </v>
    <v>       0.67422195       0.91479811       0.55599786 </v>
    <v>       0.50088554       0.25080408       0.53850053 </v>
    <v>       0.49924261       0.75065055       0.53850517 </v>
    <v>       0.00067110       0.24922377       0.53850517 </v>
    <v>       0.00071507       0.75267830       0.53849442 </v>
    <v>       0.24764576       0.50259300       0.53950390 </v>
    <v>       0.25080108       0.00087503       0.53849693 </v>
    <v>       0.75259217       0.99423372       0.53851854 </v>
    <v>       0.44528733       0.30086615       0.67512063 </v>
    <v>       0.44909716       0.80072674       0.67508815 </v>
    <v>       0.94843743       0.30473596       0.67330831 </v>
    <v>       0.94902434       0.80138418       0.67514938 </v>
    <v>       0.30148654       0.05486403       0.67418923 </v>
    <v>       0.30087792       0.55168119       0.67510598 </v>
    <v>       0.80476797       0.05487382       0.67419283 </v>
    <v>       0.80134289       0.54761524       0.67510268 </v>
    <v>       0.07366351       0.17152251       0.65019914 </v>
    <v>       0.07254502       0.66822182       0.64981375 </v>
    <v>       0.58177169       0.17744507       0.64981320 </v>
    <v>       0.57556425       0.66619149       0.64650852 </v>
    <v>       0.16943283       0.42284342       0.64979720 </v>
    <v>       0.17298323       0.91822855       0.65113548 </v>
    <v>       0.66470721       0.42429263       0.64883369 </v>
    <v>       0.66830382       0.92618670       0.65113909 </v>
    <v>       0.04759257       0.19927300       0.67508571 </v>
    <v>       0.04826154       0.69581902       0.67419124 </v>
    <v>       0.55409375       0.20164464       0.67515042 </v>
    <v>       0.54825245       0.69526354       0.67331283 </v>
    <v>       0.19193567       0.44912540       0.67510537 </v>
    <v>       0.19907905       0.94596834       0.67602211 </v>
    <v>       0.69592651       0.45159739       0.67513003 </v>
    <v>       0.69601590       0.95231238       0.67602572 </v>
    <v>       0.42281034       0.32715785       0.64981375 </v>
    <v>       0.42302874       0.82847552       0.65020256 </v>
    <v>       0.92112796       0.33380661       0.64650504 </v>
    <v>       0.92285062       0.82719856       0.64981320 </v>
    <v>       0.32248655       0.07719350       0.64845935 </v>
    <v>       0.32847557       0.57255286       0.64979769 </v>
    <v>       0.82716647       0.07922321       0.64843420 </v>
    <v>       0.83059538       0.58043994       0.64883522 </v>
    <v>       0.99913300       0.25081945       0.63107965 </v>
    <v>       0.99409046       0.74431472       0.63209023 </v>
    <v>       0.50568620       0.25591054       0.63209023 </v>
    <v>       0.49755736       0.74918219       0.63108319 </v>
    <v>       0.24423709       0.99742399       0.63204695 </v>
    <v>       0.25234835       0.49409247       0.63207576 </v>
    <v>       0.74417770       0.00096873       0.63205055 </v>
    <v>       0.74435380       0.50587237       0.63207204 </v>
    <v>       0.44874502       0.30128397       0.76888902 </v>
    <v>       0.44874501       0.80128391       0.76888902 </v>
    <v>       0.94874497       0.30128397       0.76888902 </v>
    <v>       0.94874501       0.80128391       0.76888902 </v>
    <v>       0.30127600       0.05129450       0.76887296 </v>
    <v>       0.30127601       0.55129450       0.76887296 </v>
    <v>       0.80127594       0.05129450       0.76887296 </v>
    <v>       0.80127598       0.55129450       0.76887296 </v>
    <v>       0.07877100       0.17118050       0.74344197 </v>
    <v>       0.07877101       0.67118045       0.74344197 </v>
    <v>       0.57877100       0.17118050       0.74344197 </v>
    <v>       0.57877099       0.67118045       0.74344197 </v>
    <v>       0.17119950       0.42117448       0.74342103 </v>
    <v>       0.17119950       0.92117451       0.74342103 </v>
    <v>       0.67119951       0.42117448       0.74342103 </v>
    <v>       0.67119950       0.92117451       0.74342103 </v>
    <v>       0.05125600       0.19871499       0.76888902 </v>
    <v>       0.05125600       0.69871493       0.76888902 </v>
    <v>       0.55125603       0.19871499       0.76888902 </v>
    <v>       0.55125602       0.69871493       0.76888902 </v>
    <v>       0.19872349       0.44870397       0.76887205 </v>
    <v>       0.19872349       0.94870397       0.76887205 </v>
    <v>       0.69872352       0.44870397       0.76887205 </v>
    <v>       0.69872351       0.94870397       0.76887205 </v>
    <v>       0.42123152       0.32881747       0.74344197 </v>
    <v>       0.42123151       0.82881744       0.74344197 </v>
    <v>       0.92123147       0.32881747       0.74344197 </v>
    <v>       0.92123151       0.82881744       0.74344197 </v>
    <v>       0.32880050       0.07882500       0.74342103 </v>
    <v>       0.32880049       0.57882496       0.74342103 </v>
    <v>       0.82880048       0.07882500       0.74342103 </v>
    <v>       0.82880052       0.57882496       0.74342103 </v>
    <v>       0.00000350       0.25000148       0.72582199 </v>
    <v>       0.00000350       0.75000145       0.72582199 </v>
    <v>       0.50000351       0.25000148       0.72582199 </v>
    <v>       0.50000350       0.75000145       0.72582199 </v>
    <v>       0.25000050       0.00000000       0.72580398 </v>
    <v>       0.25000052       0.50000000       0.72580398 </v>
    <v>       0.75000050       0.00000000       0.72580398 </v>
    <v>       0.75000049       0.50000000       0.72580398 </v>
    <v>       0.72958438       0.46806293       0.55216781 </v>
    <v>       0.75195061       0.52009122       0.52950966 </v>
    <v>       0.66197681       0.56433917       0.56805008 </v>
    <v>       0.70363132       0.64909100       0.57091204 </v>
    <v>       0.84979853       0.53439876       0.58448421 </v>
    <v>       0.77208699       0.59126959       0.59192888 </v>
    <v>       0.88575517       0.58446693       0.54857982 </v>
    <v>       0.81404077       0.64416666       0.53774421 </v>
    <v>       0.87913347       0.49905313       0.53250580 </v>
    <v>       0.86987673       0.46215788       0.55769742 </v>
    <v>       0.89867416       0.36275667       0.53414059 </v>
    <v>       0.80891696       0.36220309       0.54487839 </v>
    <v>       0.64117432       0.57244795       0.53238029 </v>
    <v>       0.71254578       0.63748675       0.52720457 </v>
    <v>       0.63179207       0.66896880       0.53835145 </v>
    <v>       0.75066400       0.47742903       0.60624675 </v>
    <v>       0.76301122       0.43385306       0.58211411 </v>
    <v>       0.68392932       0.48782284       0.58627223 </v>
    <v>       0.82469890       0.68878579       0.57947149 </v>
    <v>       0.86780081       0.72680251       0.55814453 </v>
    <v>       0.91486374       0.66369827       0.57321121 </v>
    <v>       0.85370067       0.41829862       0.50079020 </v>
    <v>       0.82580792       0.32267670       0.50478901 </v>
    <v>       0.69086086       0.34537620       0.53331687 </v>
    <v>       0.76343738       0.48690395       0.48157478 </v>
    <v>       0.56735855       0.39310986       0.53017092 </v>
    <v>       0.63146110       0.53172102       0.47752938 </v>
    <v>       0.53380042       0.48714719       0.50270574 </v>
    <v>       0.99923817       0.25056362       0.55696205 </v>
    <v>       0.00268436       0.75400204       0.55692255 </v>
    <v>       0.49933840       0.25254282       0.55596978 </v>
    <v>       0.49740516       0.75259060       0.55690521 </v>
    <v>       0.24929734       0.49740953       0.55691547 </v>
    <v>       0.25266584       0.00263129       0.55593731 </v>
    <v>       0.75072836       0.99598998       0.55595885 </v>
    <v>       0.99748472       0.25256977       0.64754492 </v>
    <v>       0.99595718       0.74928134       0.64852650 </v>
    <v>       0.50071840       0.25404063       0.64852650 </v>
    <v>       0.49600744       0.75082958       0.64760566 </v>
    <v>       0.24737191       0.49595047       0.64850996 </v>
    <v>       0.24921351       0.99928197       0.64848121 </v>
    <v>       0.74942563       0.50390782       0.64946553 </v>
    <v>       0.74925650       0.00252502       0.64848481 </v>
    <v>       0.49998898       0.24999498       0.74327702 </v>
    <v>       0.49998903       0.74999496       0.74327702 </v>
    <v>       0.99998898       0.24999498       0.74327702 </v>
    <v>       0.99998903       0.74999496       0.74327702 </v>
    <v>       0.25000050       0.00000100       0.74325596 </v>
    <v>       0.25000052       0.50000100       0.74325596 </v>
    <v>       0.75000050       0.00000100       0.74325596 </v>
    <v>       0.75000049       0.50000100       0.74325596 </v>
    <v>       0.73433065       0.41228274       0.50756185 </v>
    <v>       0.67784362       0.38394059       0.52052196 </v>
    <v>       0.71661089       0.46329139       0.49246361 </v>
    <v>       0.60941606       0.40770608       0.51850495 </v>
    <v>       0.64424630       0.48550634       0.49007126 </v>
    <v>       0.59235706       0.46364271       0.50303906 </v>
    <v>       0.77499972       0.50007962       0.54494280 </v>
    <v>       0.69791178       0.60151684       0.56035616 </v>
    <v>       0.79035978       0.54365546       0.58259352 </v>
    <v>       0.83823774       0.61784051       0.55317540 </v>
    <v>       0.84306474       0.46415860       0.54204134 </v>
    <v>       0.84442035       0.39274701       0.53404780 </v>
    <v>       0.66880040       0.62092876       0.53820591 </v>
    <v>       0.74337859       0.48402563       0.58905037 </v>
    <v>       0.86357916       0.67695921       0.56667664 </v>
    <v>       0.81929053       0.37905427       0.51168093 </v>
    <v>       0.05062817       0.20251521       0.56480034 </v>
    <v>       0.04456459       0.70647598       0.56484723 </v>
    <v>       0.54734132       0.20951955       0.56465206 </v>
    <v>       0.54075980       0.70692507       0.56734053 </v>
    <v>       0.45647006       0.29426649       0.56466427 </v>
    <v>       0.45538871       0.79686211       0.56486286 </v>
    <v>       0.95660191       0.29038847       0.56734559 </v>
    <v>       0.95929811       0.79973055       0.56736372 </v>
    <v>       0.20645686       0.45515405       0.56656071 </v>
    <v>       0.20654588       0.95915708       0.56637750 </v>
    <v>       0.70843680       0.95318539       0.56560416 </v>
    <v>       0.29743230       0.04482989       0.56485022 </v>
    <v>       0.29750227       0.54082118       0.56656571 </v>
    <v>       0.79418127       0.04415667       0.56560916 </v>
    <v>       0.04400084       0.20307344       0.65881598 </v>
    <v>       0.04472426       0.69971750       0.65894546 </v>
    <v>       0.55027271       0.20526258       0.65894503 </v>
    <v>       0.54472396       0.70242381       0.65720091 </v>
    <v>       0.20250569       0.45241998       0.65800020 </v>
    <v>       0.20254750       0.94968405       0.65879516 </v>
    <v>       0.69962541       0.45533705       0.65796772 </v>
    <v>       0.69970085       0.95581351       0.65879876 </v>
    <v>       0.45597202       0.29428576       0.65798823 </v>
    <v>       0.45579615       0.79362466       0.65780479 </v>
    <v>       0.95527258       0.29749077       0.65722801 </v>
    <v>       0.95592895       0.79745861       0.65891823 </v>
    <v>       0.29135095       0.04406832       0.65720530 </v>
    <v>       0.29375756       0.54472488       0.65794263 </v>
    <v>       0.79400331       0.04470506       0.65720890 </v>
    <v>       0.79409288       0.54422378       0.65796772 </v>
    <v>       0.04586250       0.20411950       0.75272599 </v>
    <v>       0.04586250       0.70411946       0.75272599 </v>
    <v>       0.54586251       0.20411950       0.75272599 </v>
    <v>       0.54586250       0.70411946       0.75272599 </v>
    <v>       0.20411900       0.45410100       0.75270499 </v>
    <v>       0.20411899       0.95410095       0.75270499 </v>
    <v>       0.70411898       0.45410100       0.75270499 </v>
    <v>       0.70411896       0.95410095       0.75270499 </v>
    <v>       0.45414002       0.29588849       0.75272697 </v>
    <v>       0.45414001       0.79588852       0.75272697 </v>
    <v>       0.95414002       0.29588849       0.75272697 </v>
    <v>       0.95414006       0.79588852       0.75272697 </v>
    <v>       0.29588249       0.04590050       0.75270499 </v>
    <v>       0.29588248       0.54590053       0.75270499 </v>
    <v>       0.79588244       0.04590050       0.75270499 </v>
    <v>       0.79588248       0.54590053       0.75270499 </v>
    <v>       0.77281461       0.57202974       0.55970985 </v>
    <v>       0.49667701       0.99667826       0.55286418 </v>
    <v>       0.49667881       0.50332171       0.55286418 </v>
    <v>       0.99667699       0.99667826       0.55286418 </v>
    <v>       0.00332302       0.50332171       0.55286418 </v>
    <v>       0.24667979       0.25332171       0.55288219 </v>
    <v>       0.24667797       0.74667826       0.55096188 </v>
    <v>       0.74667801       0.24667823       0.55288219 </v>
    <v>       0.74667986       0.75332169       0.55096188 </v>
    <v>       0.99667698       0.99667826       0.65485614 </v>
    <v>       0.00332121       0.49667829       0.65485614 </v>
    <v>       0.50332118       0.99667826       0.65485614 </v>
    <v>       0.49667881       0.50332171       0.65485614 </v>
    <v>       0.24667695       0.24667823       0.65486920 </v>
    <v>       0.25332305       0.75332169       0.65486920 </v>
    <v>       0.75332298       0.25332177       0.65486920 </v>
    <v>       0.74667881       0.75332169       0.65294890 </v>
    <v>       0.13983599       0.10353775       0.60645785 </v>
    <v>       0.13983780       0.61018120       0.60645785 </v>
    <v>       0.63983604       0.10353775       0.60645785 </v>
    <v>       0.63983784       0.61018120       0.60837815 </v>
    <v>       0.36016353       0.39646326       0.60645785 </v>
    <v>       0.36016173       0.88981964       0.60645785 </v>
    <v>       0.86016166       0.38981972       0.60837815 </v>
    <v>       0.85351749       0.88981964       0.60645785 </v>
    <v>       0.11021801       0.36022175       0.60649283 </v>
    <v>       0.10357199       0.85357824       0.60649283 </v>
    <v>       0.60357197       0.35357822       0.60649283 </v>
    <v>       0.61021612       0.85357824       0.60649283 </v>
    <v>       0.39642624       0.13977926       0.60649283 </v>
    <v>       0.38978376       0.64642265       0.60649283 </v>
    <v>       0.89642632       0.13977926       0.60649283 </v>
    <v>       0.89642817       0.64642265       0.60841313 </v>
    <v>       0.00000000       0.00000000       0.75492797 </v>
    <v>       0.00000000       0.50000000       0.75492797 </v>
    <v>       0.50000000       0.00000000       0.75492797 </v>
    <v>       0.49999999       0.50000000       0.75492797 </v>
    <v>       0.25000050       0.25000000       0.75493902 </v>
    <v>       0.25000051       0.74999997       0.75493902 </v>
    <v>       0.75000047       0.25000000       0.75493902 </v>
    <v>       0.75000046       0.74999997       0.75493902 </v>
    <v>       0.13579050       0.11421000       0.70478299 </v>
    <v>       0.13579050       0.61420998       0.70478299 </v>
    <v>       0.63579045       0.11421000       0.70478299 </v>
    <v>       0.63579049       0.61420998       0.70478299 </v>
    <v>       0.36420952       0.38578999       0.70478299 </v>
    <v>       0.36420950       0.88578996       0.70478299 </v>
    <v>       0.86420954       0.38578999       0.70478299 </v>
    <v>       0.86420953       0.88578996       0.70478299 </v>
    <v>       0.11421799       0.36421899       0.70478098 </v>
    <v>       0.11421799       0.86421899       0.70478098 </v>
    <v>       0.61421800       0.36421899       0.70478098 </v>
    <v>       0.61421799       0.86421899       0.70478098 </v>
    <v>       0.38578201       0.13578149       0.70478202 </v>
    <v>       0.38578200       0.63578149       0.70478202 </v>
    <v>       0.88578199       0.13578149       0.70478202 </v>
    <v>       0.88578203       0.63578149       0.70478202 </v>
    <v>       0.13466700       0.11533200       0.80125603 </v>
    <v>       0.13466699       0.61533199       0.80125603 </v>
    <v>       0.63466699       0.11533200       0.80125603 </v>
    <v>       0.63466698       0.61533199       0.80125603 </v>
    <v>       0.36533300       0.38466799       0.80125603 </v>
    <v>       0.36533299       0.88466796       0.80125603 </v>
    <v>       0.86533295       0.38466799       0.80125603 </v>
    <v>       0.86533294       0.88466796       0.80125603 </v>
    <v>       0.11532850       0.36533700       0.80126500 </v>
    <v>       0.11532850       0.86533698       0.80126500 </v>
    <v>       0.61532850       0.36533700       0.80126500 </v>
    <v>       0.61532849       0.86533698       0.80126500 </v>
    <v>       0.38467151       0.13466300       0.80126500 </v>
    <v>       0.38467150       0.63466297       0.80126500 </v>
    <v>       0.88467149       0.13466300       0.80126500 </v>
    <v>       0.88467153       0.63466297       0.80126500 </v>
    <v>       0.00332352       0.00332274       0.60316715 </v>
    <v>       0.00332171       0.49667929       0.60316715 </v>
    <v>       0.49667930       0.00332274       0.60316715 </v>
    <v>       0.49667748       0.49667929       0.60124684 </v>
    <v>       0.24667876       0.25332124       0.60317515 </v>
    <v>       0.25332124       0.74667778       0.60317515 </v>
    <v>       0.74667882       0.25332124       0.60317515 </v>
    <v>       0.74667881       0.75332121       0.60317515 </v>
    <v>       0.00000050       0.00000050       0.70482896 </v>
    <v>       0.00000050       0.50000048       0.70482896 </v>
    <v>       0.50000048       0.00000050       0.70482896 </v>
    <v>       0.50000046       0.50000048       0.70482896 </v>
    <v>       0.24999999       0.24999947       0.70482499 </v>
    <v>       0.25000001       0.74999950       0.70482499 </v>
    <v>       0.74999999       0.24999947       0.70482499 </v>
    <v>       0.74999998       0.74999950       0.70482499 </v>
    <v>       0.00000000       0.00000000       0.80731797 </v>
    <v>       0.00000000       0.50000000       0.80731797 </v>
    <v>       0.50000000       0.00000000       0.80731797 </v>
    <v>       0.49999999       0.50000000       0.80731797 </v>
    <v>       0.24999999       0.25000000       0.80731797 </v>
    <v>       0.25000001       0.74999997       0.80731797 </v>
    <v>       0.74999999       0.25000000       0.80731797 </v>
    <v>       0.74999998       0.74999997       0.80731797 </v>
   </varray>
  </structure>
  <varray name="primitive_index" >
   <v type="int" >        1 </v>
   <v type="int" >        2 </v>
   <v type="int" >        3 </v>
   <v type="int" >        4 </v>
   <v type="int" >        5 </v>
   <v type="int" >        6 </v>
   <v type="int" >        7 </v>
   <v type="int" >        8 </v>
   <v type="int" >        9 </v>
   <v type="int" >       10 </v>
   <v type="int" >       11 </v>
   <v type="int" >       12 </v>
   <v type="int" >       13 </v>
   <v type="int" >       14 </v>
   <v type="int" >       15 </v>
   <v type="int" >       16 </v>
   <v type="int" >       17 </v>
   <v type="int" >       18 </v>
   <v type="int" >       19 </v>
   <v type="int" >       20 </v>
   <v type="int" >       21 </v>
   <v type="int" >       22 </v>
   <v type="int" >       23 </v>
   <v type="int" >       24 </v>
   <v type="int" >       25 </v>
   <v type="int" >       26 </v>
   <v type="int" >       27 </v>
   <v type="int" >       28 </v>
   <v type="int" >       29 </v>
   <v type="int" >       30 </v>
   <v type="int" >       31 </v>
   <v type="int" >       32 </v>
   <v type="int" >       33 </v>
   <v type="int" >       34 </v>
   <v type="int" >       35 </v>
   <v type="int" >       36 </v>
   <v type="int" >       37 </v>
   <v type="int" >       38 </v>
   <v type="int" >       39 </v>
   <v type="int" >       40 </v>
   <v type="int" >       41 </v>
   <v type="int" >       42 </v>
   <v type="int" >       43 </v>
   <v type="int" >       44 </v>
   <v type="int" >       45 </v>
   <v type="int" >       46 </v>
   <v type="int" >       47 </v>
   <v type="int" >       48 </v>
   <v type="int" >       49 </v>
   <v type="int" >       50 </v>
   <v type="int" >       51 </v>
   <v type="int" >       52 </v>
   <v type="int" >       53 </v>
   <v type="int" >       54 </v>
   <v type="int" >       55 </v>
   <v type="int" >       56 </v>
   <v type="int" >       57 </v>
   <v type="int" >       58 </v>
   <v type="int" >       59 </v>
   <v type="int" >       60 </v>
   <v type="int" >       61 </v>
   <v type="int" >       62 </v>
   <v type="int" >       63 </v>
   <v type="int" >       64 </v>
   <v type="int" >       65 </v>
   <v type="int" >       66 </v>
   <v type="int" >       67 </v>
   <v type="int" >       68 </v>
   <v type="int" >       69 </v>
   <v type="int" >       70 </v>
   <v type="int" >       71 </v>
   <v type="int" >       72 </v>
   <v type="int" >       73 </v>
   <v type="int" >       74 </v>
   <v type="int" >       75 </v>
   <v type="int" >       76 </v>
   <v type="int" >       77 </v>
   <v type="int" >       78 </v>
   <v type="int" >       79 </v>
   <v type="int" >       80 </v>
   <v type="int" >       81 </v>
   <v type="int" >       82 </v>
   <v type="int" >       83 </v>
   <v type="int" >       84 </v>
   <v type="int" >       85 </v>
   <v type="int" >       86 </v>
   <v type="int" >       87 </v>
   <v type="int" >       88 </v>
   <v type="int" >       89 </v>
   <v type="int" >       90 </v>
   <v type="int" >       91 </v>
   <v type="int" >       92 </v>
   <v type="int" >       93 </v>
   <v type="int" >       94 </v>
   <v type="int" >       95 </v>
   <v type="int" >       96 </v>
   <v type="int" >       97 </v>
   <v type="int" >       98 </v>
   <v type="int" >       99 </v>
   <v type="int" >      100 </v>
   <v type="int" >      101 </v>
   <v type="int" >      102 </v>
   <v type="int" >      103 </v>
   <v type="int" >      104 </v>
   <v type="int" >      105 </v>
   <v type="int" >      106 </v>
   <v type="int" >      107 </v>
   <v type="int" >      108 </v>
   <v type="int" >      109 </v>
   <v type="int" >      110 </v>
   <v type="int" >      111 </v>
   <v type="int" >      112 </v>
   <v type="int" >      113 </v>
   <v type="int" >      114 </v>
   <v type="int" >      115 </v>
   <v type="int" >      116 </v>
   <v type="int" >      117 </v>
   <v type="int" >      118 </v>
   <v type="int" >      119 </v>
   <v type="int" >      120 </v>
   <v type="int" >      121 </v>
   <v type="int" >      122 </v>
   <v type="int" >      123 </v>
   <v type="int" >      124 </v>
   <v type="int" >      125 </v>
   <v type="int" >      126 </v>
   <v type="int" >      127 </v>
   <v type="int" >      128 </v>
   <v type="int" >      129 </v>
   <v type="int" >      130 </v>
   <v type="int" >      131 </v>
   <v type="int" >      132 </v>
   <v type="int" >      133 </v>
   <v type="int" >      134 </v>
   <v type="int" >      135 </v>
   <v type="int" >      136 </v>
   <v type="int" >      137 </v>
   <v type="int" >      138 </v>
   <v type="int" >      139 </v>
   <v type="int" >      140 </v>
   <v type="int" >      141 </v>
   <v type="int" >      142 </v>
   <v type="int" >      143 </v>
   <v type="int" >      144 </v>
   <v type="int" >      145 </v>
   <v type="int" >      146 </v>
   <v type="int" >      147 </v>
   <v type="int" >      148 </v>
   <v type="int" >      149 </v>
   <v type="int" >      150 </v>
   <v type="int" >      151 </v>
   <v type="int" >      152 </v>
   <v type="int" >      153 </v>
   <v type="int" >      154 </v>
   <v type="int" >      155 </v>
   <v type="int" >      156 </v>
   <v type="int" >      157 </v>
   <v type="int" >      158 </v>
   <v type="int" >      159 </v>
   <v type="int" >      160 </v>
   <v type="int" >      161 </v>
   <v type="int" >      162 </v>
   <v type="int" >      163 </v>
   <v type="int" >      164 </v>
   <v type="int" >      165 </v>
   <v type="int" >      166 </v>
   <v type="int" >      167 </v>
   <v type="int" >      168 </v>
   <v type="int" >      169 </v>
   <v type="int" >      170 </v>
   <v type="int" >      171 </v>
   <v type="int" >      172 </v>
   <v type="int" >      173 </v>
   <v type="int" >      174 </v>
   <v type="int" >      175 </v>
   <v type="int" >      176 </v>
   <v type="int" >      177 </v>
   <v type="int" >      178 </v>
   <v type="int" >      179 </v>
   <v type="int" >      180 </v>
   <v type="int" >      181 </v>
   <v type="int" >      182 </v>
   <v type="int" >      183 </v>
   <v type="int" >      184 </v>
   <v type="int" >      185 </v>
   <v type="int" >      186 </v>
   <v type="int" >      187 </v>
   <v type="int" >      188 </v>
   <v type="int" >      189 </v>
   <v type="int" >      190 </v>
   <v type="int" >      191 </v>
   <v type="int" >      192 </v>
   <v type="int" >      193 </v>
   <v type="int" >      194 </v>
   <v type="int" >      195 </v>
   <v type="int" >      196 </v>
   <v type="int" >      197 </v>
   <v type="int" >      198 </v>
   <v type="int" >      199 </v>
   <v type="int" >      200 </v>
   <v type="int" >      201 </v>
   <v type="int" >      202 </v>
   <v type="int" >      203 </v>
   <v type="int" >      204 </v>
   <v type="int" >      205 </v>
   <v type="int" >      206 </v>
   <v type="int" >      207 </v>
   <v type="int" >      208 </v>
   <v type="int" >      209 </v>
   <v type="int" >      210 </v>
   <v type="int" >      211 </v>
   <v type="int" >      212 </v>
   <v type="int" >      213 </v>
   <v type="int" >      214 </v>
   <v type="int" >      215 </v>
   <v type="int" >      216 </v>
   <v type="int" >      217 </v>
   <v type="int" >      218 </v>
   <v type="int" >      219 </v>
   <v type="int" >      220 </v>
   <v type="int" >      221 </v>
   <v type="int" >      222 </v>
   <v type="int" >      223 </v>
   <v type="int" >      224 </v>
   <v type="int" >      225 </v>
   <v type="int" >      226 </v>
   <v type="int" >      227 </v>
   <v type="int" >      228 </v>
   <v type="int" >      229 </v>
   <v type="int" >      230 </v>
   <v type="int" >      231 </v>
   <v type="int" >      232 </v>
   <v type="int" >      233 </v>
   <v type="int" >      234 </v>
   <v type="int" >      235 </v>
   <v type="int" >      236 </v>
   <v type="int" >      237 </v>
   <v type="int" >      238 </v>
   <v type="int" >      239 </v>
   <v type="int" >      240 </v>
   <v type="int" >      241 </v>
   <v type="int" >      242 </v>
   <v type="int" >      243 </v>
   <v type="int" >      244 </v>
   <v type="int" >      245 </v>
   <v type="int" >      246 </v>
   <v type="int" >      247 </v>
   <v type="int" >      248 </v>
   <v type="int" >      249 </v>
   <v type="int" >      250 </v>
   <v type="int" >      251 </v>
   <v type="int" >      252 </v>
   <v type="int" >      253 </v>
   <v type="int" >      254 </v>
   <v type="int" >      255 </v>
   <v type="int" >      256 </v>
   <v type="int" >      257 </v>
   <v type="int" >      258 </v>
   <v type="int" >      259 </v>
   <v type="int" >      260 </v>
   <v type="int" >      261 </v>
   <v type="int" >      262 </v>
   <v type="int" >      263 </v>
   <v type="int" >      264 </v>
   <v type="int" >      265 </v>
   <v type="int" >      266 </v>
   <v type="int" >      267 </v>
   <v type="int" >      268 </v>
   <v type="int" >      269 </v>
   <v type="int" >      270 </v>
   <v type="int" >      271 </v>
   <v type="int" >      272 </v>
   <v type="int" >      273 </v>
   <v type="int" >      274 </v>
   <v type="int" >      275 </v>
   <v type="int" >      276 </v>
   <v type="int" >      277 </v>
   <v type="int" >      278 </v>
   <v type="int" >      279 </v>
   <v type="int" >      280 </v>
   <v type="int" >      281 </v>
   <v type="int" >      282 </v>
   <v type="int" >      283 </v>
   <v type="int" >      284 </v>
   <v type="int" >      285 </v>
   <v type="int" >      286 </v>
   <v type="int" >      287 </v>
   <v type="int" >      288 </v>
   <v type="int" >      289 </v>
   <v type="int" >      290 </v>
   <v type="int" >      291 </v>
   <v type="int" >      292 </v>
   <v type="int" >      293 </v>
   <v type="int" >      294 </v>
   <v type="int" >      295 </v>
   <v type="int" >      296 </v>
   <v type="int" >      297 </v>
   <v type="int" >      298 </v>
   <v type="int" >      299 </v>
   <v type="int" >      300 </v>
   <v type="int" >      301 </v>
   <v type="int" >      302 </v>
   <v type="int" >      303 </v>
   <v type="int" >      304 </v>
   <v type="int" >      305 </v>
   <v type="int" >      306 </v>
   <v type="int" >      307 </v>
   <v type="int" >      308 </v>
   <v type="int" >      309 </v>
   <v type="int" >      310 </v>
   <v type="int" >      311 </v>
   <v type="int" >      312 </v>
   <v type="int" >      313 </v>
   <v type="int" >      314 </v>
   <v type="int" >      315 </v>
   <v type="int" >      316 </v>
   <v type="int" >      317 </v>
   <v type="int" >      318 </v>
   <v type="int" >      319 </v>
   <v type="int" >      320 </v>
   <v type="int" >      321 </v>
   <v type="int" >      322 </v>
   <v type="int" >      323 </v>
   <v type="int" >      324 </v>
   <v type="int" >      325 </v>
  </varray>
 </primitive_cell>
 <kpoints>
  <generation param="Gamma">
   <v type="int" name="divisions">       3        3        1 </v>
   <v name="usershift">      0.00000000       0.00000000       0.00000000 </v>
   <v name="genvec1">      0.33333333       0.00000000       0.00000000 </v>
   <v name="genvec2">      0.00000000       0.33333333       0.00000000 </v>
   <v name="genvec3">      0.00000000       0.00000000       1.00000000 </v>
   <v name="shift">      0.00000000       0.00000000       0.00000000 </v>
  </generation>
  <varray name="kpointlist" >
   <v>       0.00000000       0.00000000       0.00000000 </v>
   <v>       0.33333333       0.00000000       0.00000000 </v>
   <v>       0.00000000       0.33333333       0.00000000 </v>
   <v>       0.33333333       0.33333333       0.00000000 </v>
   <v>      -0.33333333       0.33333333       0.00000000 </v>
  </varray>
  <varray name="weights" >
   <v>       0.11111111 </v>
   <v>       0.22222222 </v>
   <v>       0.22222222 </v>
   <v>       0.22222222 </v>
   <v>       0.22222222 </v>
  </varray>
 </kpoints>
 <parameters>
  <separator name="general" >
   <i type="string" name="SYSTEM">PSC</i>
   <i type="logical" name="LCOMPAT"> F  </i>
  </separator>
  <separator name="electronic" >
   <i type="string" name="PREC">normal</i>
   <i name="ENMAX">    500.00000000</i>
   <i name="ENAUG">    644.87300000</i>
   <i name="EDIFF">      0.00010000</i>
   <i type="int" name="IALGO">    38</i>
   <i type="int" name="IWAVPR">    10</i>
   <i type="int" name="NBANDS">   732</i>
   <i type="int" name="NBANDSLOW">    -1</i>
   <i type="int" name="NBANDSHIGH">    -1</i>
   <i name="NELECT">   1134.00000000</i>
   <i type="int" name="TURBO">     0</i>
   <i type="int" name="IRESTART">     0</i>
   <i type="int" name="NREBOOT">     0</i>
   <i type="int" name="NMIN">     0</i>
   <i name="EREF">      0.00000000</i>
   <separator name="electronic smearing" >
    <i type="int" name="ISMEAR">     0</i>
    <i name="SIGMA">      0.05000000</i>
    <i name="KSPACING">      0.50000000</i>
    <i type="logical" name="KGAMMA"> T  </i>
    <i type="logical" name="KBLOWUP"> T  </i>
   </separator>
   <separator name="electronic projectors" >
    <i type="logical" name="LREAL"> T  </i>
    <v name="ROPT">     -0.00050000     -0.00050000     -0.00050000     -0.00050000     -0.00050000</v>
    <i type="int" name="LMAXPAW">  -100</i>
    <i type="int" name="LMAXMIX">     2</i>
    <i type="logical" name="NLSPLINE"> F  </i>
   </separator>
   <separator name="electronic startup" >
    <i type="int" name="ISTART">     0</i>
    <i type="int" name="ICHARG">     1</i>
    <i type="int" name="INIWAV">     1</i>
   </separator>
   <separator name="electronic spin" >
    <i type="int" name="ISPIN">     1</i>
    <i type="logical" name="LNONCOLLINEAR"> F  </i>
    <v name="MAGMOM">      1.00000000      1.00000000      1.00000000      1.00000000      1.00000000      1.00000000      1.00000000      1.00000000      1.00000000      1.00000000      1.00000000      1.00000000      1.00000000      1.00000000      1.00000000      1.00000000      1.00000000      1.00000000      1.00000000      1.00000000
      1.00000000      1.00000000      1.00000000      1.00000000      1.00000000      1.00000000      1.00000000      1.00000000      1.00000000      1.00000000      1.00000000      1.00000000      1.00000000      1.00000000      1.00000000      1.00000000      1.00000000      1.00000000      1.00000000      1.00000000
      1.00000000      1.00000000      1.00000000      1.00000000      1.00000000      1.00000000      1.00000000      1.00000000      1.00000000      1.00000000      1.00000000      1.00000000      1.00000000      1.00000000      1.00000000      1.00000000      1.00000000      1.00000000      1.00000000      1.00000000
      1.00000000      1.00000000      1.00000000      1.00000000      1.00000000      1.00000000      1.00000000      1.00000000      1.00000000      1.00000000      1.00000000      1.00000000      1.00000000      1.00000000      1.00000000      1.00000000      1.00000000      1.00000000      1.00000000      1.00000000
      1.00000000      1.00000000      1.00000000      1.00000000      1.00000000      1.00000000      1.00000000      1.00000000      1.00000000      1.00000000      1.00000000      1.00000000      1.00000000      1.00000000      1.00000000      1.00000000      1.00000000      1.00000000      1.00000000      1.00000000
      1.00000000      1.00000000      1.00000000      1.00000000      1.00000000      1.00000000      1.00000000      1.00000000      1.00000000      1.00000000      1.00000000      1.00000000      1.00000000      1.00000000      1.00000000      1.00000000      1.00000000      1.00000000      1.00000000      1.00000000
      1.00000000      1.00000000      1.00000000      1.00000000      1.00000000      1.00000000      1.00000000      1.00000000      1.00000000      1.00000000      1.00000000      1.00000000      1.00000000      1.00000000      1.00000000      1.00000000      1.00000000      1.00000000      1.00000000      1.00000000
      1.00000000      1.00000000      1.00000000      1.00000000      1.00000000      1.00000000      1.00000000      1.00000000      1.00000000      1.00000000      1.00000000      1.00000000      1.00000000      1.00000000      1.00000000      1.00000000      1.00000000      1.00000000      1.00000000      1.00000000
      1.00000000      1.00000000      1.00000000      1.00000000      1.00000000      1.00000000      1.00000000      1.00000000      1.00000000      1.00000000      1.00000000      1.00000000      1.00000000      1.00000000      1.00000000      1.00000000      1.00000000      1.00000000      1.00000000      1.00000000
      1.00000000      1.00000000      1.00000000      1.00000000      1.00000000      1.00000000      1.00000000      1.00000000      1.00000000      1.00000000      1.00000000      1.00000000      1.00000000      1.00000000      1.00000000      1.00000000      1.00000000      1.00000000      1.00000000      1.00000000
      1.00000000      1.00000000      1.00000000      1.00000000      1.00000000      1.00000000      1.00000000      1.00000000      1.00000000      1.00000000      1.00000000      1.00000000      1.00000000      1.00000000      1.00000000      1.00000000      1.00000000      1.00000000      1.00000000      1.00000000
      1.00000000      1.00000000      1.00000000      1.00000000      1.00000000      1.00000000      1.00000000      1.00000000      1.00000000      1.00000000      1.00000000      1.00000000      1.00000000      1.00000000      1.00000000      1.00000000      1.00000000      1.00000000      1.00000000      1.00000000
      1.00000000      1.00000000      1.00000000      1.00000000      1.00000000      1.00000000      1.00000000      1.00000000      1.00000000      1.00000000      1.00000000      1.00000000      1.00000000      1.00000000      1.00000000      1.00000000      1.00000000      1.00000000      1.00000000      1.00000000
      1.00000000      1.00000000      1.00000000      1.00000000      1.00000000      1.00000000      1.00000000      1.00000000      1.00000000      1.00000000      1.00000000      1.00000000      1.00000000      1.00000000      1.00000000      1.00000000      1.00000000      1.00000000      1.00000000      1.00000000
      1.00000000      1.00000000      1.00000000      1.00000000      1.00000000      1.00000000      1.00000000      1.00000000      1.00000000      1.00000000      1.00000000      1.00000000      1.00000000      1.00000000      1.00000000      1.00000000      1.00000000      1.00000000      1.00000000      1.00000000
      1.00000000      1.00000000      1.00000000      1.00000000      1.00000000      1.00000000      1.00000000      1.00000000      1.00000000      1.00000000      1.00000000      1.00000000      1.00000000      1.00000000      1.00000000      1.00000000      1.00000000      1.00000000      1.00000000      1.00000000
      1.00000000      1.00000000      1.00000000      1.00000000      1.00000000</v>
    <i name="NUPDOWN">     -1.00000000</i>
    <i type="logical" name="LSORBIT"> F  </i>
    <v name="SAXIS">      0.00000000      0.00000000      1.00000000</v>
    <i type="logical" name="LSPIRAL"> F  </i>
    <v name="QSPIRAL">      0.00000000      0.00000000      0.00000000</v>
    <i type="logical" name="LZEROZ"> F  </i>
   </separator>
   <separator name="electronic exchange-correlation" >
    <i type="logical" name="LASPH"> F  </i>
    <i type="logical" name="LMETAGGA"> F  </i>
   </separator>
   <separator name="electronic convergence" >
    <i type="int" name="NELM">   600</i>
    <i type="int" name="NELMDL">     0</i>
    <i type="int" name="NELMIN">     2</i>
    <i name="ENINI">    500.00000000</i>
    <separator name="electronic convergence detail" >
     <i type="logical" name="LDIAG"> T  </i>
     <i type="logical" name="LSUBROT"> F  </i>
     <i name="WEIMIN">      0.00000000</i>
     <i name="EBREAK">      0.00000003</i>
     <i name="DEPER">      0.30000000</i>
     <i type="int" name="NRMM">     4</i>
     <i name="TIME">      0.40000000</i>
    </separator>
   </separator>
   <separator name="electronic mixer" >
    <i name="AMIX">      0.40000000</i>
    <i name="BMIX">      0.01000000</i>
    <i name="AMIN">      0.01000000</i>
    <i name="AMIX_MAG">      1.60000000</i>
    <i name="BMIX_MAG">      0.01000000</i>
    <separator name="electronic mixer details" >
     <i type="int" name="IMIX">     4</i>
     <i type="logical" name="MIXFIRST"> F  </i>
     <i type="int" name="MAXMIX">   -45</i>
     <i name="WC">    100.00000000</i>
     <i type="int" name="INIMIX">     1</i>
     <i type="int" name="MIXPRE">     1</i>
     <i type="int" name="MREMOVE">     5</i>
    </separator>
   </separator>
   <separator name="electronic dipolcorrection" >
    <i type="logical" name="LDIPOL"> T  </i>
    <i type="logical" name="LMONO"> F  </i>
    <i type="int" name="IDIPOL">     3</i>
    <i name="EPSILON">      1.00000000</i>
    <v name="DIPOL">   -100.00000000   -100.00000000   -100.00000000</v>
    <i name="EFIELD">      0.00000000</i>
   </separator>
  </separator>
  <separator name="grids" >
   <i type="int" name="NGX">   100</i>
   <i type="int" name="NGY">   100</i>
   <i type="int" name="NGZ">   350</i>
   <i type="int" name="NGXF">   200</i>
   <i type="int" name="NGYF">   200</i>
   <i type="int" name="NGZF">   700</i>
   <i type="logical" name="ADDGRID"> F  </i>
  </separator>
  <separator name="ionic" >
   <i type="int" name="NSW">     0</i>
   <i type="int" name="IBRION">    -1</i>
   <i type="int" name="MDALGO">     0</i>
   <i type="int" name="ISIF">     2</i>
   <i name="PSTRESS">      0.00000000</i>
   <i name="EDIFFG">      0.00100000</i>
   <i type="int" name="NFREE">     0</i>
   <i name="POTIM">      0.50000000</i>
   <i name="SMASS">     -3.00000000</i>
   <i name="SCALEE">      1.00000000</i>
  </separator>
  <separator name="ionic md" >
   <i name="TEBEG">      0.00010000</i>
   <i name="TEEND">      0.00010000</i>
   <i type="int" name="NBLOCK">     1</i>
   <i type="int" name="KBLOCK">     1</i>
   <i type="int" name="NPACO">   256</i>
   <i name="APACO">     16.00000000</i>
  </separator>
  <separator name="symmetry" >
   <i type="int" name="ISYM">     0</i>
   <i name="SYMPREC">      0.00001000</i>
  </separator>
  <separator name="dos" >
   <i type="int" name="LORBIT">     0</i>
   <v name="RWIGS">     -1.00000000     -1.00000000     -1.00000000     -1.00000000     -1.00000000</v>
   <i type="int" name="NEDOS">   301</i>
   <i name="EMIN">     10.00000000</i>
   <i name="EMAX">    -10.00000000</i>
   <i name="EFERMI">      0.00000000</i>
  </separator>
  <separator name="writing" >
   <i type="int" name="NWRITE">     2</i>
   <i type="logical" name="LWAVE"> F  </i>
   <i type="logical" name="LDOWNSAMPLE"> F  </i>
   <i type="logical" name="LCHARG"> T  </i>
   <i type="logical" name="LPARD"> F  </i>
   <i type="logical" name="LVTOT"> T  </i>
   <i type="logical" name="LVHAR"> F  </i>
   <i type="logical" name="LELF"> F  </i>
   <i type="logical" name="LOPTICS"> F  </i>
   <v name="STM">      0.00000000      0.00000000      0.00000000      0.00000000      0.00000000      0.00000000      0.00000000</v>
  </separator>
  <separator name="performance" >
   <i type="int" name="NPAR">     4</i>
   <i type="int" name="NSIM">     4</i>
   <i type="int" name="NBLK">    -1</i>
   <i type="logical" name="LPLANE"> T  </i>
   <i type="logical" name="LSCALAPACK"> T  </i>
   <i type="logical" name="LSCAAWARE"> F  </i>
   <i type="logical" name="LSCALU"> F  </i>
   <i type="logical" name="LASYNC"> F  </i>
   <i type="logical" name="LORBITALREAL"> F  </i>
  </separator>
  <separator name="miscellaneous" >
   <i type="int" name="IDIOT">     3</i>
   <i type="int" name="PHON_NSTRUCT">    -1</i>
   <i type="logical" name="LMUSIC"> F  </i>
   <v name="POMASS">      1.00000000     12.01100000     14.00100000    126.90400000    207.20000000</v>
   <v name="DARWINR">      0.00000000      0.00000000      0.00000000      0.00000000      0.00000000</v>
   <v name="DARWINV">      1.00000000      1.00000000      1.00000000      1.00000000      1.00000000</v>
   <i type="logical" name="LCORR"> T  </i>
  </separator>
  <i type="logical" name="GGA_COMPAT"> F  </i>
  <i type="logical" name="LBERRY"> F  </i>
  <i type="int" name="ICORELEVEL">     0</i>
  <i type="logical" name="LDAU"> F  </i>
  <i type="int" name="I_CONSTRAINED_M">     0</i>
  <separator name="electronic exchange-correlation" >
   <i type="string" name="GGA">--</i>
   <i type="int" name="VOSKOWN">     0</i>
   <i type="logical" name="LHFCALC"> F  </i>
   <i type="string" name="PRECFOCK"></i>
   <i type="logical" name="LSYMGRAD"> F  </i>
   <i type="logical" name="LHFONE"> F  </i>
   <i type="logical" name="LRHFCALC"> F  </i>
   <i type="logical" name="LTHOMAS"> F  </i>
   <i type="logical" name="LMODELHF"> F  </i>
   <i type="logical" name="LFOCKACE"> F  </i>
   <i name="ENCUT4O">     -1.00000000</i>
   <i type="int" name="EXXOEP">     0</i>
   <i type="int" name="FOURORBIT">     0</i>
   <i name="AEXX">      0.00000000</i>
   <i name="HFALPHA">      0.00000000</i>
   <i name="MCALPHA">      0.00000000</i>
   <i name="ALDAX">      1.00000000</i>
   <i name="AGGAX">      1.00000000</i>
   <i name="ALDAC">      1.00000000</i>
   <i name="AGGAC">      1.00000000</i>
   <i type="int" name="NKREDX">     1</i>
   <i type="int" name="NKREDY">     1</i>
   <i type="int" name="NKREDZ">     1</i>
   <i type="logical" name="SHIFTRED"> F  </i>
   <i type="logical" name="ODDONLY"> F  </i>
   <i type="logical" name="EVENONLY"> F  </i>
   <i type="int" name="LMAXFOCK">     0</i>
   <i type="int" name="NMAXFOCKAE">     0</i>
   <i type="logical" name="LFOCKAEDFT"> F  </i>
   <i name="HFSCREEN">      0.00000000</i>
   <i name="HFSCREENC">      0.00000000</i>
   <i type="int" name="NBANDSGWLOW">     0</i>
  </separator>
  <separator name="vdW DFT" >
   <i type="logical" name="LUSE_VDW"> F  </i>
   <i name="Zab_VDW">     -0.84910000</i>
   <i name="PARAM1">      0.12340000</i>
   <i name="PARAM2">      1.00000000</i>
   <i name="PARAM3">      0.00000000</i>
  </separator>
  <separator name="model GW" >
   <i type="int" name="MODEL_GW">     0</i>
   <i name="MODEL_EPS0">     37.63423484</i>
   <i name="MODEL_ALPHA">      1.00000000</i>
  </separator>
  <separator name="linear response parameters" >
   <i type="logical" name="LEPSILON"> F  </i>
   <i type="logical" name="LRPA"> F  </i>
   <i type="logical" name="LNABLA"> F  </i>
   <i type="logical" name="LVEL"> F  </i>
   <i type="int" name="KINTER">     0</i>
   <i name="CSHIFT">      0.10000000</i>
   <i name="OMEGAMAX">     -1.00000000</i>
   <i name="DEG_THRESHOLD">      0.00200000</i>
   <i name="RTIME">     -0.10000000</i>
   <i name="WPLASMAI">      0.00000000</i>
   <v name="DFIELD">      0.00000000      0.00000000      0.00000000</v>
   <v name="WPLASMA">      0.00000000      0.00000000      0.00000000      0.00000000      0.00000000      0.00000000      0.00000000      0.00000000      0.00000000</v>
  </separator>
  <separator name="orbital magnetization" >
   <i type="logical" name="NUCIND"> F  </i>
   <v name="MAGPOS">      0.00000000      0.00000000      0.00000000</v>
   <i type="logical" name="LNICSALL"> T  </i>
   <i type="logical" name="ORBITALMAG"> F  </i>
   <i type="logical" name="LMAGBLOCH"> F  </i>
   <i type="logical" name="LCHIMAG"> F  </i>
   <i type="logical" name="LGAUGE"> T  </i>
   <i type="int" name="MAGATOM">     0</i>
   <v name="MAGDIPOL">      0.00000000      0.00000000      0.00000000</v>
   <v name="AVECCONST">      0.00000000      0.00000000      0.00000000</v>
  </separator>
  <separator name="response functions" >
   <i type="logical" name="LFINITE_TEMPERATURE"> F  </i>
   <i type="logical" name="LADDER"> F  </i>
   <i type="logical" name="LRPAFORCE"> F  </i>
   <i type="logical" name="LFXC"> F  </i>
   <i type="logical" name="LHARTREE"> T  </i>
   <i type="int" name="IBSE">     0</i>
   <v type="int" name="KPOINT">    -1     0     0     0</v>
   <i type="logical" name="LTCTC"> F  </i>
   <i type="logical" name="LTCTE"> F  </i>
   <i type="logical" name="LTETE"> F  </i>
   <i type="logical" name="LTRIPLET"> F  </i>
   <i type="logical" name="LFXCEPS"> F  </i>
   <i type="logical" name="LFXHEG"> F  </i>
   <i type="int" name="NATURALO">     2</i>
   <i type="logical" name="LHOLEGF"> F  </i>
   <i type="logical" name="L2ORDER"> F  </i>
   <i type="logical" name="LDMP1"> F  </i>
   <i type="logical" name="LMP2LT"> F  </i>
   <i type="logical" name="LSMP2LT"> F  </i>
   <i type="logical" name="LGWLF"> F  </i>
   <i name="ENCUTGW">     -2.00000000</i>
   <i name="ENCUTGWSOFT">     -2.00000000</i>
   <i name="ENCUTLF">     -1.00000000</i>
   <i type="logical" name="LESF_SPLINES"> F  </i>
   <i type="int" name="LMAXMP2">    -1</i>
   <i name="SCISSOR">      0.00000000</i>
   <i type="int" name="NOMEGA">     0</i>
   <i type="int" name="NOMEGAR">     0</i>
   <i type="int" name="NBANDSGW">    -1</i>
   <i type="int" name="NBANDSO">    -1</i>
   <i type="int" name="NBANDSV">    -1</i>
   <i type="int" name="NELM">   600</i>
   <i type="int" name="NELMHF">     1</i>
   <i type="int" name="DIM">     3</i>
   <i type="int" name="IESPILON">     4</i>
   <i type="int" name="ANTIRES">     0</i>
   <i name="OMEGAMAX">    -30.00000000</i>
   <i name="OMEGAMIN">    -30.00000000</i>
   <i name="OMEGATL">   -200.00000000</i>
   <i type="int" name="OMEGAGRID">     0</i>
   <i name="CSHIFT">     -0.10000000</i>
   <i type="logical" name="LSELFENERGY"> F  </i>
   <i type="logical" name="LSPECTRAL"> F  </i>
   <i type="logical" name="LSPECTRALGW"> F  </i>
   <i type="logical" name="LSINGLES"> F  </i>
   <i type="logical" name="LFERMIGW"> F  </i>
   <i type="logical" name="ODDONLYGW"> F  </i>
   <i type="logical" name="EVENONLYGW"> F  </i>
   <i type="int" name="NKREDLFX">     1</i>
   <i type="int" name="NKREDLFY">     1</i>
   <i type="int" name="NKREDLFZ">     1</i>
   <i type="int" name="MAXMEM">  2800</i>
   <i type="int" name="TELESCOPE">     0</i>
   <i type="int" name="NTAUPAR">    -1</i>
   <i type="int" name="NOMEGAPAR">    -1</i>
   <i name="DAMP_NEWTON">      0.80000001</i>
   <i name="LAMBDA">      1.00000000</i>
  </separator>
  <separator name="External order field" >
   <i name="OFIELD_KAPPA">      0.00000000</i>
   <v name="OFIELD_K">      0.00000000      0.00000000      0.00000000</v>
   <i name="OFIELD_Q6_NEAR">      0.00000000</i>
   <i name="OFIELD_Q6_FAR">      0.00000000</i>
   <i name="OFIELD_A">      0.00000000</i>
  </separator>
 </parameters>
 <atominfo>
  <atoms>     325 </atoms>
  <types>       5 </types>
  <array name="atoms" >
   <dimension dim="1">ion</dimension>
   <field type="string">element</field>
   <field type="int">atomtype</field>
   <set>
    <rc><c>H </c><c>   1</c></rc>
    <rc><c>H </c><c>   1</c></rc>
    <rc><c>H </c><c>   1</c></rc>
    <rc><c>H </c><c>   1</c></rc>
    <rc><c>H </c><c>   1</c></rc>
    <rc><c>H </c><c>   1</c></rc>
    <rc><c>H </c><c>   1</c></rc>
    <rc><c>H </c><c>   1</c></rc>
    <rc><c>H </c><c>   1</c></rc>
    <rc><c>H </c><c>   1</c></rc>
    <rc><c>H </c><c>   1</c></rc>
    <rc><c>H </c><c>   1</c></rc>
    <rc><c>H </c><c>   1</c></rc>
    <rc><c>H </c><c>   1</c></rc>
    <rc><c>H </c><c>   1</c></rc>
    <rc><c>H </c><c>   1</c></rc>
    <rc><c>H </c><c>   1</c></rc>
    <rc><c>H </c><c>   1</c></rc>
    <rc><c>H </c><c>   1</c></rc>
    <rc><c>H </c><c>   1</c></rc>
    <rc><c>H </c><c>   1</c></rc>
    <rc><c>H </c><c>   1</c></rc>
    <rc><c>H </c><c>   1</c></rc>
    <rc><c>H </c><c>   1</c></rc>
    <rc><c>H </c><c>   1</c></rc>
    <rc><c>H </c><c>   1</c></rc>
    <rc><c>H </c><c>   1</c></rc>
    <rc><c>H </c><c>   1</c></rc>
    <rc><c>H </c><c>   1</c></rc>
    <rc><c>H </c><c>   1</c></rc>
    <rc><c>H </c><c>   1</c></rc>
    <rc><c>H </c><c>   1</c></rc>
    <rc><c>H </c><c>   1</c></rc>
    <rc><c>H </c><c>   1</c></rc>
    <rc><c>H </c><c>   1</c></rc>
    <rc><c>H </c><c>   1</c></rc>
    <rc><c>H </c><c>   1</c></rc>
    <rc><c>H </c><c>   1</c></rc>
    <rc><c>H </c><c>   1</c></rc>
    <rc><c>H </c><c>   1</c></rc>
    <rc><c>H </c><c>   1</c></rc>
    <rc><c>H </c><c>   1</c></rc>
    <rc><c>H </c><c>   1</c></rc>
    <rc><c>H </c><c>   1</c></rc>
    <rc><c>H </c><c>   1</c></rc>
    <rc><c>H </c><c>   1</c></rc>
    <rc><c>H </c><c>   1</c></rc>
    <rc><c>H </c><c>   1</c></rc>
    <rc><c>H </c><c>   1</c></rc>
    <rc><c>H </c><c>   1</c></rc>
    <rc><c>H </c><c>   1</c></rc>
    <rc><c>H </c><c>   1</c></rc>
    <rc><c>H </c><c>   1</c></rc>
    <rc><c>H </c><c>   1</c></rc>
    <rc><c>H </c><c>   1</c></rc>
    <rc><c>H </c><c>   1</c></rc>
    <rc><c>H </c><c>   1</c></rc>
    <rc><c>H </c><c>   1</c></rc>
    <rc><c>H </c><c>   1</c></rc>
    <rc><c>H </c><c>   1</c></rc>
    <rc><c>H </c><c>   1</c></rc>
    <rc><c>H </c><c>   1</c></rc>
    <rc><c>H </c><c>   1</c></rc>
    <rc><c>H </c><c>   1</c></rc>
    <rc><c>H </c><c>   1</c></rc>
    <rc><c>H </c><c>   1</c></rc>
    <rc><c>H </c><c>   1</c></rc>
    <rc><c>H </c><c>   1</c></rc>
    <rc><c>H </c><c>   1</c></rc>
    <rc><c>H </c><c>   1</c></rc>
    <rc><c>H </c><c>   1</c></rc>
    <rc><c>H </c><c>   1</c></rc>
    <rc><c>H </c><c>   1</c></rc>
    <rc><c>H </c><c>   1</c></rc>
    <rc><c>H </c><c>   1</c></rc>
    <rc><c>H </c><c>   1</c></rc>
    <rc><c>H </c><c>   1</c></rc>
    <rc><c>H </c><c>   1</c></rc>
    <rc><c>H </c><c>   1</c></rc>
    <rc><c>H </c><c>   1</c></rc>
    <rc><c>H </c><c>   1</c></rc>
    <rc><c>H </c><c>   1</c></rc>
    <rc><c>H </c><c>   1</c></rc>
    <rc><c>H </c><c>   1</c></rc>
    <rc><c>H </c><c>   1</c></rc>
    <rc><c>H </c><c>   1</c></rc>
    <rc><c>H </c><c>   1</c></rc>
    <rc><c>H </c><c>   1</c></rc>
    <rc><c>H </c><c>   1</c></rc>
    <rc><c>H </c><c>   1</c></rc>
    <rc><c>H </c><c>   1</c></rc>
    <rc><c>H </c><c>   1</c></rc>
    <rc><c>H </c><c>   1</c></rc>
    <rc><c>H </c><c>   1</c></rc>
    <rc><c>H </c><c>   1</c></rc>
    <rc><c>H </c><c>   1</c></rc>
    <rc><c>H </c><c>   1</c></rc>
    <rc><c>H </c><c>   1</c></rc>
    <rc><c>H </c><c>   1</c></rc>
    <rc><c>H </c><c>   1</c></rc>
    <rc><c>H </c><c>   1</c></rc>
    <rc><c>H </c><c>   1</c></rc>
    <rc><c>H </c><c>   1</c></rc>
    <rc><c>H </c><c>   1</c></rc>
    <rc><c>H </c><c>   1</c></rc>
    <rc><c>H </c><c>   1</c></rc>
    <rc><c>H </c><c>   1</c></rc>
    <rc><c>H </c><c>   1</c></rc>
    <rc><c>H </c><c>   1</c></rc>
    <rc><c>H </c><c>   1</c></rc>
    <rc><c>H </c><c>   1</c></rc>
    <rc><c>H </c><c>   1</c></rc>
    <rc><c>H </c><c>   1</c></rc>
    <rc><c>H </c><c>   1</c></rc>
    <rc><c>H </c><c>   1</c></rc>
    <rc><c>H </c><c>   1</c></rc>
    <rc><c>H </c><c>   1</c></rc>
    <rc><c>H </c><c>   1</c></rc>
    <rc><c>H </c><c>   1</c></rc>
    <rc><c>H </c><c>   1</c></rc>
    <rc><c>H </c><c>   1</c></rc>
    <rc><c>H </c><c>   1</c></rc>
    <rc><c>H </c><c>   1</c></rc>
    <rc><c>H </c><c>   1</c></rc>
    <rc><c>H </c><c>   1</c></rc>
    <rc><c>H </c><c>   1</c></rc>
    <rc><c>H </c><c>   1</c></rc>
    <rc><c>H </c><c>   1</c></rc>
    <rc><c>H </c><c>   1</c></rc>
    <rc><c>H </c><c>   1</c></rc>
    <rc><c>H </c><c>   1</c></rc>
    <rc><c>H </c><c>   1</c></rc>
    <rc><c>H </c><c>   1</c></rc>
    <rc><c>H </c><c>   1</c></rc>
    <rc><c>H </c><c>   1</c></rc>
    <rc><c>H </c><c>   1</c></rc>
    <rc><c>H </c><c>   1</c></rc>
    <rc><c>H </c><c>   1</c></rc>
    <rc><c>H </c><c>   1</c></rc>
    <rc><c>H </c><c>   1</c></rc>
    <rc><c>H </c><c>   1</c></rc>
    <rc><c>H </c><c>   1</c></rc>
    <rc><c>H </c><c>   1</c></rc>
    <rc><c>C </c><c>   2</c></rc>
    <rc><c>C </c><c>   2</c></rc>
    <rc><c>C </c><c>   2</c></rc>
    <rc><c>C </c><c>   2</c></rc>
    <rc><c>C </c><c>   2</c></rc>
    <rc><c>C </c><c>   2</c></rc>
    <rc><c>C </c><c>   2</c></rc>
    <rc><c>C </c><c>   2</c></rc>
    <rc><c>C </c><c>   2</c></rc>
    <rc><c>C </c><c>   2</c></rc>
    <rc><c>C </c><c>   2</c></rc>
    <rc><c>C </c><c>   2</c></rc>
    <rc><c>C </c><c>   2</c></rc>
    <rc><c>C </c><c>   2</c></rc>
    <rc><c>C </c><c>   2</c></rc>
    <rc><c>C </c><c>   2</c></rc>
    <rc><c>C </c><c>   2</c></rc>
    <rc><c>C </c><c>   2</c></rc>
    <rc><c>C </c><c>   2</c></rc>
    <rc><c>C </c><c>   2</c></rc>
    <rc><c>C </c><c>   2</c></rc>
    <rc><c>C </c><c>   2</c></rc>
    <rc><c>C </c><c>   2</c></rc>
    <rc><c>C </c><c>   2</c></rc>
    <rc><c>C </c><c>   2</c></rc>
    <rc><c>C </c><c>   2</c></rc>
    <rc><c>C </c><c>   2</c></rc>
    <rc><c>C </c><c>   2</c></rc>
    <rc><c>C </c><c>   2</c></rc>
    <rc><c>C </c><c>   2</c></rc>
    <rc><c>C </c><c>   2</c></rc>
    <rc><c>C </c><c>   2</c></rc>
    <rc><c>C </c><c>   2</c></rc>
    <rc><c>C </c><c>   2</c></rc>
    <rc><c>C </c><c>   2</c></rc>
    <rc><c>C </c><c>   2</c></rc>
    <rc><c>C </c><c>   2</c></rc>
    <rc><c>C </c><c>   2</c></rc>
    <rc><c>C </c><c>   2</c></rc>
    <rc><c>N </c><c>   3</c></rc>
    <rc><c>N </c><c>   3</c></rc>
    <rc><c>N </c><c>   3</c></rc>
    <rc><c>N </c><c>   3</c></rc>
    <rc><c>N </c><c>   3</c></rc>
    <rc><c>N </c><c>   3</c></rc>
    <rc><c>N </c><c>   3</c></rc>
    <rc><c>N </c><c>   3</c></rc>
    <rc><c>N </c><c>   3</c></rc>
    <rc><c>N </c><c>   3</c></rc>
    <rc><c>N </c><c>   3</c></rc>
    <rc><c>N </c><c>   3</c></rc>
    <rc><c>N </c><c>   3</c></rc>
    <rc><c>N </c><c>   3</c></rc>
    <rc><c>N </c><c>   3</c></rc>
    <rc><c>N </c><c>   3</c></rc>
    <rc><c>N </c><c>   3</c></rc>
    <rc><c>N </c><c>   3</c></rc>
    <rc><c>N </c><c>   3</c></rc>
    <rc><c>N </c><c>   3</c></rc>
    <rc><c>N </c><c>   3</c></rc>
    <rc><c>N </c><c>   3</c></rc>
    <rc><c>N </c><c>   3</c></rc>
    <rc><c>N </c><c>   3</c></rc>
    <rc><c>N </c><c>   3</c></rc>
    <rc><c>N </c><c>   3</c></rc>
    <rc><c>N </c><c>   3</c></rc>
    <rc><c>N </c><c>   3</c></rc>
    <rc><c>N </c><c>   3</c></rc>
    <rc><c>N </c><c>   3</c></rc>
    <rc><c>N </c><c>   3</c></rc>
    <rc><c>N </c><c>   3</c></rc>
    <rc><c>N </c><c>   3</c></rc>
    <rc><c>N </c><c>   3</c></rc>
    <rc><c>N </c><c>   3</c></rc>
    <rc><c>N </c><c>   3</c></rc>
    <rc><c>N </c><c>   3</c></rc>
    <rc><c>N </c><c>   3</c></rc>
    <rc><c>N </c><c>   3</c></rc>
    <rc><c>N </c><c>   3</c></rc>
    <rc><c>N </c><c>   3</c></rc>
    <rc><c>N </c><c>   3</c></rc>
    <rc><c>N </c><c>   3</c></rc>
    <rc><c>N </c><c>   3</c></rc>
    <rc><c>N </c><c>   3</c></rc>
    <rc><c>N </c><c>   3</c></rc>
    <rc><c>N </c><c>   3</c></rc>
    <rc><c>I </c><c>   4</c></rc>
    <rc><c>I </c><c>   4</c></rc>
    <rc><c>I </c><c>   4</c></rc>
    <rc><c>I </c><c>   4</c></rc>
    <rc><c>I </c><c>   4</c></rc>
    <rc><c>I </c><c>   4</c></rc>
    <rc><c>I </c><c>   4</c></rc>
    <rc><c>I </c><c>   4</c></rc>
    <rc><c>I </c><c>   4</c></rc>
    <rc><c>I </c><c>   4</c></rc>
    <rc><c>I </c><c>   4</c></rc>
    <rc><c>I </c><c>   4</c></rc>
    <rc><c>I </c><c>   4</c></rc>
    <rc><c>I </c><c>   4</c></rc>
    <rc><c>I </c><c>   4</c></rc>
    <rc><c>I </c><c>   4</c></rc>
    <rc><c>I </c><c>   4</c></rc>
    <rc><c>I </c><c>   4</c></rc>
    <rc><c>I </c><c>   4</c></rc>
    <rc><c>I </c><c>   4</c></rc>
    <rc><c>I </c><c>   4</c></rc>
    <rc><c>I </c><c>   4</c></rc>
    <rc><c>I </c><c>   4</c></rc>
    <rc><c>I </c><c>   4</c></rc>
    <rc><c>I </c><c>   4</c></rc>
    <rc><c>I </c><c>   4</c></rc>
    <rc><c>I </c><c>   4</c></rc>
    <rc><c>I </c><c>   4</c></rc>
    <rc><c>I </c><c>   4</c></rc>
    <rc><c>I </c><c>   4</c></rc>
    <rc><c>I </c><c>   4</c></rc>
    <rc><c>I </c><c>   4</c></rc>
    <rc><c>I </c><c>   4</c></rc>
    <rc><c>I </c><c>   4</c></rc>
    <rc><c>I </c><c>   4</c></rc>
    <rc><c>I </c><c>   4</c></rc>
    <rc><c>I </c><c>   4</c></rc>
    <rc><c>I </c><c>   4</c></rc>
    <rc><c>I </c><c>   4</c></rc>
    <rc><c>I </c><c>   4</c></rc>
    <rc><c>I </c><c>   4</c></rc>
    <rc><c>I </c><c>   4</c></rc>
    <rc><c>I </c><c>   4</c></rc>
    <rc><c>I </c><c>   4</c></rc>
    <rc><c>I </c><c>   4</c></rc>
    <rc><c>I </c><c>   4</c></rc>
    <rc><c>I </c><c>   4</c></rc>
    <rc><c>I </c><c>   4</c></rc>
    <rc><c>I </c><c>   4</c></rc>
    <rc><c>I </c><c>   4</c></rc>
    <rc><c>I </c><c>   4</c></rc>
    <rc><c>I </c><c>   4</c></rc>
    <rc><c>I </c><c>   4</c></rc>
    <rc><c>I </c><c>   4</c></rc>
    <rc><c>I </c><c>   4</c></rc>
    <rc><c>I </c><c>   4</c></rc>
    <rc><c>I </c><c>   4</c></rc>
    <rc><c>I </c><c>   4</c></rc>
    <rc><c>I </c><c>   4</c></rc>
    <rc><c>I </c><c>   4</c></rc>
    <rc><c>I </c><c>   4</c></rc>
    <rc><c>I </c><c>   4</c></rc>
    <rc><c>I </c><c>   4</c></rc>
    <rc><c>I </c><c>   4</c></rc>
    <rc><c>I </c><c>   4</c></rc>
    <rc><c>I </c><c>   4</c></rc>
    <rc><c>I </c><c>   4</c></rc>
    <rc><c>I </c><c>   4</c></rc>
    <rc><c>I </c><c>   4</c></rc>
    <rc><c>I </c><c>   4</c></rc>
    <rc><c>I </c><c>   4</c></rc>
    <rc><c>I </c><c>   4</c></rc>
    <rc><c>Pb</c><c>   5</c></rc>
    <rc><c>Pb</c><c>   5</c></rc>
    <rc><c>Pb</c><c>   5</c></rc>
    <rc><c>Pb</c><c>   5</c></rc>
    <rc><c>Pb</c><c>   5</c></rc>
    <rc><c>Pb</c><c>   5</c></rc>
    <rc><c>Pb</c><c>   5</c></rc>
    <rc><c>Pb</c><c>   5</c></rc>
    <rc><c>Pb</c><c>   5</c></rc>
    <rc><c>Pb</c><c>   5</c></rc>
    <rc><c>Pb</c><c>   5</c></rc>
    <rc><c>Pb</c><c>   5</c></rc>
    <rc><c>Pb</c><c>   5</c></rc>
    <rc><c>Pb</c><c>   5</c></rc>
    <rc><c>Pb</c><c>   5</c></rc>
    <rc><c>Pb</c><c>   5</c></rc>
    <rc><c>Pb</c><c>   5</c></rc>
    <rc><c>Pb</c><c>   5</c></rc>
    <rc><c>Pb</c><c>   5</c></rc>
    <rc><c>Pb</c><c>   5</c></rc>
    <rc><c>Pb</c><c>   5</c></rc>
    <rc><c>Pb</c><c>   5</c></rc>
    <rc><c>Pb</c><c>   5</c></rc>
    <rc><c>Pb</c><c>   5</c></rc>
   </set>
  </array>
  <array name="atomtypes" >
   <dimension dim="1">type</dimension>
   <field type="int">atomspertype</field>
   <field type="string">element</field>
   <field>mass</field>
   <field>valence</field>
   <field type="string">pseudopotential</field>
   <set>
    <rc><c> 143</c><c>H </c><c>      1.00000000</c><c>      1.00000000</c><c>  PAW_PBE H 15Jun2001                   </c></rc>
    <rc><c>  39</c><c>C </c><c>     12.01100000</c><c>      4.00000000</c><c>  PAW_PBE C 08Apr2002                   </c></rc>
    <rc><c>  47</c><c>N </c><c>     14.00100000</c><c>      5.00000000</c><c>  PAW_PBE N 08Apr2002                   </c></rc>
    <rc><c>  72</c><c>I </c><c>    126.90400000</c><c>      7.00000000</c><c>  PAW_PBE I 08Apr2002                   </c></rc>
    <rc><c>  24</c><c>Pb</c><c>    207.20000000</c><c>      4.00000000</c><c>  PAW_PBE Pb 08Apr2002                  </c></rc>
   </set>
  </array>
 </atominfo>
 <structure name="initialpos" >
  <crystal>
   <varray name="basis" >
    <v>      18.06080055       0.00000000       0.00000000 </v>
    <v>      -0.00491865      18.06279945       0.00000000 </v>
    <v>       0.00000000       0.00000000      62.48749924 </v>
   </varray>
   <i name="volume">  20385.21054034 </i>
   <varray name="rec_basis" >
    <v>       0.05536853       0.00001508      -0.00000000 </v>
    <v>       0.00000000       0.05536240       0.00000000 </v>
    <v>       0.00000000      -0.00000000       0.01600320 </v>
   </varray>
  </crystal>
  <varray name="positions" >
   <v>       0.45351893       0.30358484       0.58087741 </v>
   <v>       0.44612534       0.80332502       0.58195984 </v>
   <v>       0.95386064       0.29301598       0.58366386 </v>
   <v>       0.95671952       0.80251774       0.58368193 </v>
   <v>       0.30458232       0.05159294       0.58004009 </v>
   <v>       0.30456586       0.54441068       0.58184898 </v>
   <v>       0.79775050       0.05124125       0.58089200 </v>
   <v>       0.08460699       0.17091427       0.55653014 </v>
   <v>       0.07980236       0.66947593       0.55651945 </v>
   <v>       0.58474694       0.17642397       0.55693232 </v>
   <v>       0.57432208       0.66827811       0.55930639 </v>
   <v>       0.33376089       0.07910374       0.55460971 </v>
   <v>       0.33395671       0.57708845       0.55695545 </v>
   <v>       0.83044981       0.08060827       0.55599841 </v>
   <v>       0.05343870       0.19982179       0.58102716 </v>
   <v>       0.05383999       0.69999844       0.58194696 </v>
   <v>       0.55679359       0.20707972       0.58086899 </v>
   <v>       0.54334974       0.70412389       0.58366197 </v>
   <v>       0.20246850       0.44829331       0.58184654 </v>
   <v>       0.20266334       0.95546989       0.58175680 </v>
   <v>       0.70159981       0.94917661       0.58089042 </v>
   <v>       0.41751510       0.32570948       0.55700411 </v>
   <v>       0.42015046       0.83385360       0.55652910 </v>
   <v>       0.92087616       0.32362677       0.55927653 </v>
   <v>       0.92563069       0.83505158       0.55929467 </v>
   <v>       0.16806853       0.42094112       0.55695393 </v>
   <v>       0.16816255       0.92294756       0.55740098 </v>
   <v>       0.67422195       0.91479811       0.55599786 </v>
   <v>       0.50088554       0.25080408       0.53850053 </v>
   <v>       0.49924261       0.75065055       0.53850517 </v>
   <v>       0.00067110       0.24922377       0.53850517 </v>
   <v>       0.00071507       0.75267830       0.53849442 </v>
   <v>       0.24764576       0.50259300       0.53950390 </v>
   <v>       0.25080108       0.00087503       0.53849693 </v>
   <v>       0.75259217       0.99423372       0.53851854 </v>
   <v>       0.44528733       0.30086615       0.67512063 </v>
   <v>       0.44909716       0.80072674       0.67508815 </v>
   <v>       0.94843743       0.30473596       0.67330831 </v>
   <v>       0.94902434       0.80138418       0.67514938 </v>
   <v>       0.30148654       0.05486403       0.67418923 </v>
   <v>       0.30087792       0.55168119       0.67510598 </v>
   <v>       0.80476797       0.05487382       0.67419283 </v>
   <v>       0.80134289       0.54761524       0.67510268 </v>
   <v>       0.07366351       0.17152251       0.65019914 </v>
   <v>       0.07254502       0.66822182       0.64981375 </v>
   <v>       0.58177169       0.17744507       0.64981320 </v>
   <v>       0.57556425       0.66619149       0.64650852 </v>
   <v>       0.16943283       0.42284342       0.64979720 </v>
   <v>       0.17298323       0.91822855       0.65113548 </v>
   <v>       0.66470721       0.42429263       0.64883369 </v>
   <v>       0.66830382       0.92618670       0.65113909 </v>
   <v>       0.04759257       0.19927300       0.67508571 </v>
   <v>       0.04826154       0.69581902       0.67419124 </v>
   <v>       0.55409375       0.20164464       0.67515042 </v>
   <v>       0.54825245       0.69526354       0.67331283 </v>
   <v>       0.19193567       0.44912540       0.67510537 </v>
   <v>       0.19907905       0.94596834       0.67602211 </v>
   <v>       0.69592651       0.45159739       0.67513003 </v>
   <v>       0.69601590       0.95231238       0.67602572 </v>
   <v>       0.42281034       0.32715785       0.64981375 </v>
   <v>       0.42302874       0.82847552       0.65020256 </v>
   <v>       0.92112796       0.33380661       0.64650504 </v>
   <v>       0.92285062       0.82719856       0.64981320 </v>
   <v>       0.32248655       0.07719350       0.64845935 </v>
   <v>       0.32847557       0.57255286       0.64979769 </v>
   <v>       0.82716647       0.07922321       0.64843420 </v>
   <v>       0.83059538       0.58043994       0.64883522 </v>
   <v>       0.99913300       0.25081945       0.63107965 </v>
   <v>       0.99409046       0.74431472       0.63209023 </v>
   <v>       0.50568620       0.25591054       0.63209023 </v>
   <v>       0.49755736       0.74918219       0.63108319 </v>
   <v>       0.24423709       0.99742399       0.63204695 </v>
   <v>       0.25234835       0.49409247       0.63207576 </v>
   <v>       0.74417770       0.00096873       0.63205055 </v>
   <v>       0.74435380       0.50587237       0.63207204 </v>
   <v>       0.44874502       0.30128397       0.76888902 </v>
   <v>       0.44874501       0.80128391       0.76888902 </v>
   <v>       0.94874497       0.30128397       0.76888902 </v>
   <v>       0.94874501       0.80128391       0.76888902 </v>
   <v>       0.30127600       0.05129450       0.76887296 </v>
   <v>       0.30127601       0.55129450       0.76887296 </v>
   <v>       0.80127594       0.05129450       0.76887296 </v>
   <v>       0.80127598       0.55129450       0.76887296 </v>
   <v>       0.07877100       0.17118050       0.74344197 </v>
   <v>       0.07877101       0.67118045       0.74344197 </v>
   <v>       0.57877100       0.17118050       0.74344197 </v>
   <v>       0.57877099       0.67118045       0.74344197 </v>
   <v>       0.17119950       0.42117448       0.74342103 </v>
   <v>       0.17119950       0.92117451       0.74342103 </v>
   <v>       0.67119951       0.42117448       0.74342103 </v>
   <v>       0.67119950       0.92117451       0.74342103 </v>
   <v>       0.05125600       0.19871499       0.76888902 </v>
   <v>       0.05125600       0.69871493       0.76888902 </v>
   <v>       0.55125603       0.19871499       0.76888902 </v>
   <v>       0.55125602       0.69871493       0.76888902 </v>
   <v>       0.19872349       0.44870397       0.76887205 </v>
   <v>       0.19872349       0.94870397       0.76887205 </v>
   <v>       0.69872352       0.44870397       0.76887205 </v>
   <v>       0.69872351       0.94870397       0.76887205 </v>
   <v>       0.42123152       0.32881747       0.74344197 </v>
   <v>       0.42123151       0.82881744       0.74344197 </v>
   <v>       0.92123147       0.32881747       0.74344197 </v>
   <v>       0.92123151       0.82881744       0.74344197 </v>
   <v>       0.32880050       0.07882500       0.74342103 </v>
   <v>       0.32880049       0.57882496       0.74342103 </v>
   <v>       0.82880048       0.07882500       0.74342103 </v>
   <v>       0.82880052       0.57882496       0.74342103 </v>
   <v>       0.00000350       0.25000148       0.72582199 </v>
   <v>       0.00000350       0.75000145       0.72582199 </v>
   <v>       0.50000351       0.25000148       0.72582199 </v>
   <v>       0.50000350       0.75000145       0.72582199 </v>
   <v>       0.25000050       0.00000000       0.72580398 </v>
   <v>       0.25000052       0.50000000       0.72580398 </v>
   <v>       0.75000050       0.00000000       0.72580398 </v>
   <v>       0.75000049       0.50000000       0.72580398 </v>
   <v>       0.72958438       0.46806293       0.55216781 </v>
   <v>       0.75195061       0.52009122       0.52950966 </v>
   <v>       0.66197681       0.56433917       0.56805008 </v>
   <v>       0.70363132       0.64909100       0.57091204 </v>
   <v>       0.84979853       0.53439876       0.58448421 </v>
   <v>       0.77208699       0.59126959       0.59192888 </v>
   <v>       0.88575517       0.58446693       0.54857982 </v>
   <v>       0.81404077       0.64416666       0.53774421 </v>
   <v>       0.87913347       0.49905313       0.53250580 </v>
   <v>       0.86987673       0.46215788       0.55769742 </v>
   <v>       0.89867416       0.36275667       0.53414059 </v>
   <v>       0.80891696       0.36220309       0.54487839 </v>
   <v>       0.64117432       0.57244795       0.53238029 </v>
   <v>       0.71254578       0.63748675       0.52720457 </v>
   <v>       0.63179207       0.66896880       0.53835145 </v>
   <v>       0.75066400       0.47742903       0.60624675 </v>
   <v>       0.76301122       0.43385306       0.58211411 </v>
   <v>       0.68392932       0.48782284       0.58627223 </v>
   <v>       0.82469890       0.68878579       0.57947149 </v>
   <v>       0.86780081       0.72680251       0.55814453 </v>
   <v>       0.91486374       0.66369827       0.57321121 </v>
   <v>       0.85370067       0.41829862       0.50079020 </v>
   <v>       0.82580792       0.32267670       0.50478901 </v>
   <v>       0.69086086       0.34537620       0.53331687 </v>
   <v>       0.76343738       0.48690395       0.48157478 </v>
   <v>       0.56735855       0.39310986       0.53017092 </v>
   <v>       0.63146110       0.53172102       0.47752938 </v>
   <v>       0.53380042       0.48714719       0.50270574 </v>
   <v>       0.99923817       0.25056362       0.55696205 </v>
   <v>       0.00268436       0.75400204       0.55692255 </v>
   <v>       0.49933840       0.25254282       0.55596978 </v>
   <v>       0.49740516       0.75259060       0.55690521 </v>
   <v>       0.24929734       0.49740953       0.55691547 </v>
   <v>       0.25266584       0.00263129       0.55593731 </v>
   <v>       0.75072836       0.99598998       0.55595885 </v>
   <v>       0.99748472       0.25256977       0.64754492 </v>
   <v>       0.99595718       0.74928134       0.64852650 </v>
   <v>       0.50071840       0.25404063       0.64852650 </v>
   <v>       0.49600744       0.75082958       0.64760566 </v>
   <v>       0.24737191       0.49595047       0.64850996 </v>
   <v>       0.24921351       0.99928197       0.64848121 </v>
   <v>       0.74942563       0.50390782       0.64946553 </v>
   <v>       0.74925650       0.00252502       0.64848481 </v>
   <v>       0.49998898       0.24999498       0.74327702 </v>
   <v>       0.49998903       0.74999496       0.74327702 </v>
   <v>       0.99998898       0.24999498       0.74327702 </v>
   <v>       0.99998903       0.74999496       0.74327702 </v>
   <v>       0.25000050       0.00000100       0.74325596 </v>
   <v>       0.25000052       0.50000100       0.74325596 </v>
   <v>       0.75000050       0.00000100       0.74325596 </v>
   <v>       0.75000049       0.50000100       0.74325596 </v>
   <v>       0.73433065       0.41228274       0.50756185 </v>
   <v>       0.67784362       0.38394059       0.52052196 </v>
   <v>       0.71661089       0.46329139       0.49246361 </v>
   <v>       0.60941606       0.40770608       0.51850495 </v>
   <v>       0.64424630       0.48550634       0.49007126 </v>
   <v>       0.59235706       0.46364271       0.50303906 </v>
   <v>       0.77499972       0.50007962       0.54494280 </v>
   <v>       0.69791178       0.60151684       0.56035616 </v>
   <v>       0.79035978       0.54365546       0.58259352 </v>
   <v>       0.83823774       0.61784051       0.55317540 </v>
   <v>       0.84306474       0.46415860       0.54204134 </v>
   <v>       0.84442035       0.39274701       0.53404780 </v>
   <v>       0.66880040       0.62092876       0.53820591 </v>
   <v>       0.74337859       0.48402563       0.58905037 </v>
   <v>       0.86357916       0.67695921       0.56667664 </v>
   <v>       0.81929053       0.37905427       0.51168093 </v>
   <v>       0.05062817       0.20251521       0.56480034 </v>
   <v>       0.04456459       0.70647598       0.56484723 </v>
   <v>       0.54734132       0.20951955       0.56465206 </v>
   <v>       0.54075980       0.70692507       0.56734053 </v>
   <v>       0.45647006       0.29426649       0.56466427 </v>
   <v>       0.45538871       0.79686211       0.56486286 </v>
   <v>       0.95660191       0.29038847       0.56734559 </v>
   <v>       0.95929811       0.79973055       0.56736372 </v>
   <v>       0.20645686       0.45515405       0.56656071 </v>
   <v>       0.20654588       0.95915708       0.56637750 </v>
   <v>       0.70843680       0.95318539       0.56560416 </v>
   <v>       0.29743230       0.04482989       0.56485022 </v>
   <v>       0.29750227       0.54082118       0.56656571 </v>
   <v>       0.79418127       0.04415667       0.56560916 </v>
   <v>       0.04400084       0.20307344       0.65881598 </v>
   <v>       0.04472426       0.69971750       0.65894546 </v>
   <v>       0.55027271       0.20526258       0.65894503 </v>
   <v>       0.54472396       0.70242381       0.65720091 </v>
   <v>       0.20250569       0.45241998       0.65800020 </v>
   <v>       0.20254750       0.94968405       0.65879516 </v>
   <v>       0.69962541       0.45533705       0.65796772 </v>
   <v>       0.69970085       0.95581351       0.65879876 </v>
   <v>       0.45597202       0.29428576       0.65798823 </v>
   <v>       0.45579615       0.79362466       0.65780479 </v>
   <v>       0.95527258       0.29749077       0.65722801 </v>
   <v>       0.95592895       0.79745861       0.65891823 </v>
   <v>       0.29135095       0.04406832       0.65720530 </v>
   <v>       0.29375756       0.54472488       0.65794263 </v>
   <v>       0.79400331       0.04470506       0.65720890 </v>
   <v>       0.79409288       0.54422378       0.65796772 </v>
   <v>       0.04586250       0.20411950       0.75272599 </v>
   <v>       0.04586250       0.70411946       0.75272599 </v>
   <v>       0.54586251       0.20411950       0.75272599 </v>
   <v>       0.54586250       0.70411946       0.75272599 </v>
   <v>       0.20411900       0.45410100       0.75270499 </v>
   <v>       0.20411899       0.95410095       0.75270499 </v>
   <v>       0.70411898       0.45410100       0.75270499 </v>
   <v>       0.70411896       0.95410095       0.75270499 </v>
   <v>       0.45414002       0.29588849       0.75272697 </v>
   <v>       0.45414001       0.79588852       0.75272697 </v>
   <v>       0.95414002       0.29588849       0.75272697 </v>
[...]
   <v>       0.58474694       0.17642397       0.55693232 </v>
   <v>       0.57432208       0.66827811       0.55930639 </v>
   <v>       0.33376089       0.07910374       0.55460971 </v>
   <v>       0.33395671       0.57708845       0.55695545 </v>
   <v>       0.83044981       0.08060827       0.55599841 </v>
   <v>       0.05343870       0.19982179       0.58102716 </v>
   <v>       0.05383999       0.69999844       0.58194696 </v>
   <v>       0.55679359       0.20707972       0.58086899 </v>
   <v>       0.54334974       0.70412389       0.58366197 </v>
   <v>       0.20246850       0.44829331       0.58184654 </v>
   <v>       0.20266334       0.95546989       0.58175680 </v>
   <v>       0.70159981       0.94917661       0.58089042 </v>
   <v>       0.41751510       0.32570948       0.55700411 </v>
   <v>       0.42015046       0.83385360       0.55652910 </v>
   <v>       0.92087616       0.32362677       0.55927653 </v>
   <v>       0.92563069       0.83505158       0.55929467 </v>
   <v>       0.16806853       0.42094112       0.55695393 </v>
   <v>       0.16816255       0.92294756       0.55740098 </v>
   <v>       0.67422195       0.91479811       0.55599786 </v>
   <v>       0.50088554       0.25080408       0.53850053 </v>
   <v>       0.49924261       0.75065055       0.53850517 </v>
   <v>       0.00067110       0.24922377       0.53850517 </v>
   <v>       0.00071507       0.75267830       0.53849442 </v>
   <v>       0.24764576       0.50259300       0.53950390 </v>
   <v>       0.25080108       0.00087503       0.53849693 </v>
   <v>       0.75259217       0.99423372       0.53851854 </v>
   <v>       0.44528733       0.30086615       0.67512063 </v>
   <v>       0.44909716       0.80072674       0.67508815 </v>
   <v>       0.94843743       0.30473596       0.67330831 </v>
   <v>       0.94902434       0.80138418       0.67514938 </v>
   <v>       0.30148654       0.05486403       0.67418923 </v>
   <v>       0.30087792       0.55168119       0.67510598 </v>
   <v>       0.80476797       0.05487382       0.67419283 </v>
   <v>       0.80134289       0.54761524       0.67510268 </v>
   <v>       0.07366351       0.17152251       0.65019914 </v>
   <v>       0.07254502       0.66822182       0.64981375 </v>
   <v>       0.58177169       0.17744507       0.64981320 </v>
   <v>       0.57556425       0.66619149       0.64650852 </v>
   <v>       0.16943283       0.42284342       0.64979720 </v>
   <v>       0.17298323       0.91822855       0.65113548 </v>
   <v>       0.66470721       0.42429263       0.64883369 </v>
   <v>       0.66830382       0.92618670       0.65113909 </v>
   <v>       0.04759257       0.19927300       0.67508571 </v>
   <v>       0.04826154       0.69581902       0.67419124 </v>
   <v>       0.55409375       0.20164464       0.67515042 </v>
   <v>       0.54825245       0.69526354       0.67331283 </v>
   <v>       0.19193567       0.44912540       0.67510537 </v>
   <v>       0.19907905       0.94596834       0.67602211 </v>
   <v>       0.69592651       0.45159739       0.67513003 </v>
   <v>       0.69601590       0.95231238       0.67602572 </v>
   <v>       0.42281034       0.32715785       0.64981375 </v>
   <v>       0.42302874       0.82847552       0.65020256 </v>
   <v>       0.92112796       0.33380661       0.64650504 </v>
   <v>       0.92285062       0.82719856       0.64981320 </v>
   <v>       0.32248655       0.07719350       0.64845935 </v>
   <v>       0.32847557       0.57255286       0.64979769 </v>
   <v>       0.82716647       0.07922321       0.64843420 </v>
   <v>       0.83059538       0.58043994       0.64883522 </v>
   <v>       0.99913300       0.25081945       0.63107965 </v>
   <v>       0.99409046       0.74431472       0.63209023 </v>
   <v>       0.50568620       0.25591054       0.63209023 </v>
   <v>       0.49755736       0.74918219       0.63108319 </v>
   <v>       0.24423709       0.99742399       0.63204695 </v>
   <v>       0.25234835       0.49409247       0.63207576 </v>
   <v>       0.74417770       0.00096873       0.63205055 </v>
   <v>       0.74435380       0.50587237       0.63207204 </v>
   <v>       0.44874502       0.30128397       0.76888902 </v>
   <v>       0.44874501       0.80128391       0.76888902 </v>
   <v>       0.94874497       0.30128397       0.76888902 </v>
   <v>       0.94874501       0.80128391       0.76888902 </v>
   <v>       0.30127600       0.05129450       0.76887296 </v>
   <v>       0.30127601       0.55129450       0.76887296 </v>
   <v>       0.80127594       0.05129450       0.76887296 </v>
   <v>       0.80127598       0.55129450       0.76887296 </v>
   <v>       0.07877100       0.17118050       0.74344197 </v>
   <v>       0.07877101       0.67118045       0.74344197 </v>
   <v>       0.57877100       0.17118050       0.74344197 </v>
   <v>       0.57877099       0.67118045       0.74344197 </v>
   <v>       0.17119950       0.42117448       0.74342103 </v>
   <v>       0.17119950       0.92117451       0.74342103 </v>
   <v>       0.67119951       0.42117448       0.74342103 </v>
   <v>       0.67119950       0.92117451       0.74342103 </v>
   <v>       0.05125600       0.19871499       0.76888902 </v>
   <v>       0.05125600       0.69871493       0.76888902 </v>
   <v>       0.55125603       0.19871499       0.76888902 </v>
   <v>       0.55125602       0.69871493       0.76888902 </v>
   <v>       0.19872349       0.44870397       0.76887205 </v>
   <v>       0.19872349       0.94870397       0.76887205 </v>
   <v>       0.69872352       0.44870397       0.76887205 </v>
   <v>       0.69872351       0.94870397       0.76887205 </v>
   <v>       0.42123152       0.32881747       0.74344197 </v>
   <v>       0.42123151       0.82881744       0.74344197 </v>
   <v>       0.92123147       0.32881747       0.74344197 </v>
   <v>       0.92123151       0.82881744       0.74344197 </v>
   <v>       0.32880050       0.07882500       0.74342103 </v>
   <v>       0.32880049       0.57882496       0.74342103 </v>
   <v>       0.82880048       0.07882500       0.74342103 </v>
   <v>       0.82880052       0.57882496       0.74342103 </v>
   <v>       0.00000350       0.25000148       0.72582199 </v>
   <v>       0.00000350       0.75000145       0.72582199 </v>
   <v>       0.50000351       0.25000148       0.72582199 </v>
   <v>       0.50000350       0.75000145       0.72582199 </v>
   <v>       0.25000050       0.00000000       0.72580398 </v>
   <v>       0.25000052       0.50000000       0.72580398 </v>
   <v>       0.75000050       0.00000000       0.72580398 </v>
   <v>       0.75000049       0.50000000       0.72580398 </v>
   <v>       0.72958438       0.46806293       0.55216781 </v>
   <v>       0.75195061       0.52009122       0.52950966 </v>
   <v>       0.66197681       0.56433917       0.56805008 </v>
   <v>       0.70363132       0.64909100       0.57091204 </v>
   <v>       0.84979853       0.53439876       0.58448421 </v>
   <v>       0.77208699       0.59126959       0.59192888 </v>
   <v>       0.88575517       0.58446693       0.54857982 </v>
   <v>       0.81404077       0.64416666       0.53774421 </v>
   <v>       0.87913347       0.49905313       0.53250580 </v>
   <v>       0.86987673       0.46215788       0.55769742 </v>
   <v>       0.89867416       0.36275667       0.53414059 </v>
   <v>       0.80891696       0.36220309       0.54487839 </v>
   <v>       0.64117432       0.57244795       0.53238029 </v>
   <v>       0.71254578       0.63748675       0.52720457 </v>
   <v>       0.63179207       0.66896880       0.53835145 </v>
   <v>       0.75066400       0.47742903       0.60624675 </v>
   <v>       0.76301122       0.43385306       0.58211411 </v>
   <v>       0.68392932       0.48782284       0.58627223 </v>
   <v>       0.82469890       0.68878579       0.57947149 </v>
   <v>       0.86780081       0.72680251       0.55814453 </v>
   <v>       0.91486374       0.66369827       0.57321121 </v>
   <v>       0.85370067       0.41829862       0.50079020 </v>
   <v>       0.82580792       0.32267670       0.50478901 </v>
   <v>       0.69086086       0.34537620       0.53331687 </v>
   <v>       0.76343738       0.48690395       0.48157478 </v>
   <v>       0.56735855       0.39310986       0.53017092 </v>
   <v>       0.63146110       0.53172102       0.47752938 </v>
   <v>       0.53380042       0.48714719       0.50270574 </v>
   <v>       0.99923817       0.25056362       0.55696205 </v>
   <v>       0.00268436       0.75400204       0.55692255 </v>
   <v>       0.49933840       0.25254282       0.55596978 </v>
   <v>       0.49740516       0.75259060       0.55690521 </v>
   <v>       0.24929734       0.49740953       0.55691547 </v>
   <v>       0.25266584       0.00263129       0.55593731 </v>
   <v>       0.75072836       0.99598998       0.55595885 </v>
   <v>       0.99748472       0.25256977       0.64754492 </v>
   <v>       0.99595718       0.74928134       0.64852650 </v>
   <v>       0.50071840       0.25404063       0.64852650 </v>
   <v>       0.49600744       0.75082958       0.64760566 </v>
   <v>       0.24737191       0.49595047       0.64850996 </v>
   <v>       0.24921351       0.99928197       0.64848121 </v>
   <v>       0.74942563       0.50390782       0.64946553 </v>
   <v>       0.74925650       0.00252502       0.64848481 </v>
   <v>       0.49998898       0.24999498       0.74327702 </v>
   <v>       0.49998903       0.74999496       0.74327702 </v>
   <v>       0.99998898       0.24999498       0.74327702 </v>
   <v>       0.99998903       0.74999496       0.74327702 </v>
   <v>       0.25000050       0.00000100       0.74325596 </v>
   <v>       0.25000052       0.50000100       0.74325596 </v>
   <v>       0.75000050       0.00000100       0.74325596 </v>
   <v>       0.75000049       0.50000100       0.74325596 </v>
   <v>       0.73433065       0.41228274       0.50756185 </v>
   <v>       0.67784362       0.38394059       0.52052196 </v>
   <v>       0.71661089       0.46329139       0.49246361 </v>
   <v>       0.60941606       0.40770608       0.51850495 </v>
   <v>       0.64424630       0.48550634       0.49007126 </v>
   <v>       0.59235706       0.46364271       0.50303906 </v>
   <v>       0.77499972       0.50007962       0.54494280 </v>
   <v>       0.69791178       0.60151684       0.56035616 </v>
   <v>       0.79035978       0.54365546       0.58259352 </v>
   <v>       0.83823774       0.61784051       0.55317540 </v>
   <v>       0.84306474       0.46415860       0.54204134 </v>
   <v>       0.84442035       0.39274701       0.53404780 </v>
   <v>       0.66880040       0.62092876       0.53820591 </v>
   <v>       0.74337859       0.48402563       0.58905037 </v>
   <v>       0.86357916       0.67695921       0.56667664 </v>
   <v>       0.81929053       0.37905427       0.51168093 </v>
   <v>       0.05062817       0.20251521       0.56480034 </v>
   <v>       0.04456459       0.70647598       0.56484723 </v>
   <v>       0.54734132       0.20951955       0.56465206 </v>
   <v>       0.54075980       0.70692507       0.56734053 </v>
   <v>       0.45647006       0.29426649       0.56466427 </v>
   <v>       0.45538871       0.79686211       0.56486286 </v>
   <v>       0.95660191       0.29038847       0.56734559 </v>
   <v>       0.95929811       0.79973055       0.56736372 </v>
   <v>       0.20645686       0.45515405       0.56656071 </v>
   <v>       0.20654588       0.95915708       0.56637750 </v>
   <v>       0.70843680       0.95318539       0.56560416 </v>
   <v>       0.29743230       0.04482989       0.56485022 </v>
   <v>       0.29750227       0.54082118       0.56656571 </v>
   <v>       0.79418127       0.04415667       0.56560916 </v>
   <v>       0.04400084       0.20307344       0.65881598 </v>
   <v>       0.04472426       0.69971750       0.65894546 </v>
   <v>       0.55027271       0.20526258       0.65894503 </v>
   <v>       0.54472396       0.70242381       0.65720091 </v>
   <v>       0.20250569       0.45241998       0.65800020 </v>
   <v>       0.20254750       0.94968405       0.65879516 </v>
   <v>       0.69962541       0.45533705       0.65796772 </v>
   <v>       0.69970085       0.95581351       0.65879876 </v>
   <v>       0.45597202       0.29428576       0.65798823 </v>
   <v>       0.45579615       0.79362466       0.65780479 </v>
   <v>       0.95527258       0.29749077       0.65722801 </v>
   <v>       0.95592895       0.79745861       0.65891823 </v>
   <v>       0.29135095       0.04406832       0.65720530 </v>
   <v>       0.29375756       0.54472488       0.65794263 </v>
   <v>       0.79400331       0.04470506       0.65720890 </v>
   <v>       0.79409288       0.54422378       0.65796772 </v>
   <v>       0.04586250       0.20411950       0.75272599 </v>
   <v>       0.04586250       0.70411946       0.75272599 </v>
   <v>       0.54586251       0.20411950       0.75272599 </v>
   <v>       0.54586250       0.70411946       0.75272599 </v>
   <v>       0.20411900       0.45410100       0.75270499 </v>
   <v>       0.20411899       0.95410095       0.75270499 </v>
   <v>       0.70411898       0.45410100       0.75270499 </v>
   <v>       0.70411896       0.95410095       0.75270499 </v>
   <v>       0.45414002       0.29588849       0.75272697 </v>
   <v>       0.45414001       0.79588852       0.75272697 </v>
   <v>       0.95414002       0.29588849       0.75272697 </v>
   <v>       0.95414006       0.79588852       0.75272697 </v>
   <v>       0.29588249       0.04590050       0.75270499 </v>
   <v>       0.29588248       0.54590053       0.75270499 </v>
   <v>       0.79588244       0.04590050       0.75270499 </v>
   <v>       0.79588248       0.54590053       0.75270499 </v>
   <v>       0.77281461       0.57202974       0.55970985 </v>
   <v>       0.49667701       0.99667826       0.55286418 </v>
   <v>       0.49667881       0.50332171       0.55286418 </v>
   <v>       0.99667699       0.99667826       0.55286418 </v>
   <v>       0.00332302       0.50332171       0.55286418 </v>
   <v>       0.24667979       0.25332171       0.55288219 </v>
   <v>       0.24667797       0.74667826       0.55096188 </v>
   <v>       0.74667801       0.24667823       0.55288219 </v>
   <v>       0.74667986       0.75332169       0.55096188 </v>
   <v>       0.99667698       0.99667826       0.65485614 </v>
   <v>       0.00332121       0.49667829       0.65485614 </v>
   <v>       0.50332118       0.99667826       0.65485614 </v>
   <v>       0.49667881       0.50332171       0.65485614 </v>
   <v>       0.24667695       0.24667823       0.65486920 </v>
   <v>       0.25332305       0.75332169       0.65486920 </v>
   <v>       0.75332298       0.25332177       0.65486920 </v>
   <v>       0.74667881       0.75332169       0.65294890 </v>
   <v>       0.13983599       0.10353775       0.60645785 </v>
   <v>       0.13983780       0.61018120       0.60645785 </v>
   <v>       0.63983604       0.10353775       0.60645785 </v>
   <v>       0.63983784       0.61018120       0.60837815 </v>
   <v>       0.36016353       0.39646326       0.60645785 </v>
   <v>       0.36016173       0.88981964       0.60645785 </v>
   <v>       0.86016166       0.38981972       0.60837815 </v>
   <v>       0.85351749       0.88981964       0.60645785 </v>
   <v>       0.11021801       0.36022175       0.60649283 </v>
   <v>       0.10357199       0.85357824       0.60649283 </v>
   <v>       0.60357197       0.35357822       0.60649283 </v>
   <v>       0.61021612       0.85357824       0.60649283 </v>
   <v>       0.39642624       0.13977926       0.60649283 </v>
   <v>       0.38978376       0.64642265       0.60649283 </v>
   <v>       0.89642632       0.13977926       0.60649283 </v>
   <v>       0.89642817       0.64642265       0.60841313 </v>
   <v>       0.00000000       0.00000000       0.75492797 </v>
   <v>       0.00000000       0.50000000       0.75492797 </v>
   <v>       0.50000000       0.00000000       0.75492797 </v>
   <v>       0.49999999       0.50000000       0.75492797 </v>
   <v>       0.25000050       0.25000000       0.75493902 </v>
   <v>       0.25000051       0.74999997       0.75493902 </v>
   <v>       0.75000047       0.25000000       0.75493902 </v>
   <v>       0.75000046       0.74999997       0.75493902 </v>
   <v>       0.13579050       0.11421000       0.70478299 </v>
   <v>       0.13579050       0.61420998       0.70478299 </v>
   <v>       0.63579045       0.11421000       0.70478299 </v>
   <v>       0.63579049       0.61420998       0.70478299 </v>
   <v>       0.36420952       0.38578999       0.70478299 </v>
   <v>       0.36420950       0.88578996       0.70478299 </v>
   <v>       0.86420954       0.38578999       0.70478299 </v>
   <v>       0.86420953       0.88578996       0.70478299 </v>
   <v>       0.11421799       0.36421899       0.70478098 </v>
   <v>       0.11421799       0.86421899       0.70478098 </v>
   <v>       0.61421800       0.36421899       0.70478098 </v>
   <v>       0.61421799       0.86421899       0.70478098 </v>
   <v>       0.38578201       0.13578149       0.70478202 </v>
   <v>       0.38578200       0.63578149       0.70478202 </v>
   <v>       0.88578199       0.13578149       0.70478202 </v>
   <v>       0.88578203       0.63578149       0.70478202 </v>
   <v>       0.13466700       0.11533200       0.80125603 </v>
   <v>       0.13466699       0.61533199       0.80125603 </v>
   <v>       0.63466699       0.11533200       0.80125603 </v>
   <v>       0.63466698       0.61533199       0.80125603 </v>
   <v>       0.36533300       0.38466799       0.80125603 </v>
   <v>       0.36533299       0.88466796       0.80125603 </v>
   <v>       0.86533295       0.38466799       0.80125603 </v>
   <v>       0.86533294       0.88466796       0.80125603 </v>
   <v>       0.11532850       0.36533700       0.80126500 </v>
   <v>       0.11532850       0.86533698       0.80126500 </v>
   <v>       0.61532850       0.36533700       0.80126500 </v>
   <v>       0.61532849       0.86533698       0.80126500 </v>
   <v>       0.38467151       0.13466300       0.80126500 </v>
   <v>       0.38467150       0.63466297       0.80126500 </v>
   <v>       0.88467149       0.13466300       0.80126500 </v>
   <v>       0.88467153       0.63466297       0.80126500 </v>
   <v>       0.00332352       0.00332274       0.60316715 </v>
   <v>       0.00332171       0.49667929       0.60316715 </v>
   <v>       0.49667930       0.00332274       0.60316715 </v>
   <v>       0.49667748       0.49667929       0.60124684 </v>
   <v>       0.24667876       0.25332124       0.60317515 </v>
   <v>       0.25332124       0.74667778       0.60317515 </v>
   <v>       0.74667882       0.25332124       0.60317515 </v>
   <v>       0.74667881       0.75332121       0.60317515 </v>
   <v>       0.00000050       0.00000050       0.70482896 </v>
   <v>       0.00000050       0.50000048       0.70482896 </v>
   <v>       0.50000048       0.00000050       0.70482896 </v>
   <v>       0.50000046       0.50000048       0.70482896 </v>
   <v>       0.24999999       0.24999947       0.70482499 </v>
   <v>       0.25000001       0.74999950       0.70482499 </v>
   <v>       0.74999999       0.24999947       0.70482499 </v>
   <v>       0.74999998       0.74999950       0.70482499 </v>
   <v>       0.00000000       0.00000000       0.80731797 </v>
   <v>       0.00000000       0.50000000       0.80731797 </v>
   <v>       0.50000000       0.00000000       0.80731797 </v>
   <v>       0.49999999       0.50000000       0.80731797 </v>
   <v>       0.24999999       0.25000000       0.80731797 </v>
   <v>       0.25000001       0.74999997       0.80731797 </v>
   <v>       0.74999999       0.25000000       0.80731797 </v>
   <v>       0.74999998       0.74999997       0.80731797 </v>
  </varray>
 </structure>
</modeling>
