 vasp.6.2.1 16May21 (build Nov 15 2021 14:57:28) complex                         
 executed on             LinuxPGI date 2023.07.30  22:24:42
 running on    4 total cores
 distrk:  each k-point on    4 cores,    1 groups
 distr:  one band on NCORE=   1 cores,    4 groups


--------------------------------------------------------------------------------------------------------


 INCAR:
   SYSTEM = PSC
   ISTART = 1
   ICHARG = 1
   PREC = Normal
   ENCUT = 500
   GGA_COMPAT = F
   NELM = 600
   ISYM = 0
   LREAL = Auto
   ISMEAR = 0
   SIGMA = 0.05
   AMIN = 0.01
   BMIX = 0.01
   LVTOT = T
   LWAVE = F
   LDIPOL = T
   IDIPOL = 3
   LVDW = T
   IVDW = 12

 POTCAR:    PAW_PBE H 15Jun2001                   
 POTCAR:    PAW_PBE C 08Apr2002                   
 POTCAR:    PAW_PBE N 08Apr2002                   
 POTCAR:    PAW_PBE I 08Apr2002                   
 POTCAR:    PAW_PBE Pb 08Apr2002                  
 WARNING: For LVTOT=.TRUE., VASP.5.x writes the TOTAL local potential to the
     file LOCPOT. If you want only the Hartree contributions, use LVHAR=.TRUE.
     instead. 

 POTCAR:    PAW_PBE H 15Jun2001                   
   SHA256 =  030f79b5d3ab3cf0e668861823c8fb652ff669f3e15e46930bd03bfd63a607b6 H/POTCAR              
   COPYR  = (c) Copyright 15Jun2001 Georg Kresse                                                    
   COPYR  = This file is part of the software VASP. Any use, copying, and all other rights are regul
   COPYR  = If you do not have a valid VASP license, you may not use, copy or distribute this file. 
   VRHFIN =H: ultrasoft test                                                                        
   LEXCH  = PE                                                                                      
   EATOM  =    12.4884 eV,    0.9179 Ry                                                             
                                                                                                    
   TITEL  = PAW_PBE H 15Jun2001                                                                     
   LULTRA =        F    use ultrasoft PP ?                                                          
   IUNSCR =        0    unscreen: 0-lin 1-nonlin 2-no                                               
   RPACOR =    0.000    partial core radius                                                         
   POMASS =    1.000; ZVAL   =    1.000    mass and valenz                                          
   RCORE  =    1.100    outmost cutoff radius                                                       
   RWIGS  =    0.700; RWIGS  =    0.370    wigner-seitz radius (au A)                               
   ENMAX  =  250.000; ENMIN  =  200.000 eV                                                          
   RCLOC  =    0.701    cutoff for local pot                                                        
   LCOR   =        T    correct aug charges                                                         
   LPAW   =        T    paw PP                                                                      
   EAUG   =  400.000                                                                                
   RMAX   =    1.123    core radius for proj-oper                                                   
   RAUG   =    1.200    factor for augmentation sphere                                              
   RDEP   =    1.112    radius for radial grids                                                     
   RDEPT  =    0.926    core radius for aug-charge                                                  
                                                                                                    
   Atomic configuration                                                                             
    2 entries                                                                                       
     n  l   j            E        occ.                                                              
     1  0  0.50        -6.4927   1.0000                                                             
     2  1  0.50        -3.4015   0.0000                                                             
   Description                                                                                      
     l       E           TYP  RCUT    TYP  RCUT                                                     
     0     -6.4927494     23  1.100                                                                 
     0      6.8029130     23  1.100                                                                 
     1     -4.0817478     23  1.100                                                                 
  local pseudopotential read in
  atomic valenz-charges read in
  non local Contribution for L=            0  read in
    real space projection operators read in
  non local Contribution for L=            0  read in
    real space projection operators read in
  non local Contribution for L=            1  read in
    real space projection operators read in
    PAW grid and wavefunctions read in
 
   number of l-projection  operators is LMAX  =            3
   number of lm-projection operators is LMMAX =            5
 
 POTCAR:    PAW_PBE C 08Apr2002                   
   SHA256 =  253f7b50bb8d59471dbedb8285d89021f4a42ed1a2c5d38a03a736e69125dd95 C/POTCAR              
   COPYR  = (c) Copyright 08Apr2002 Georg Kresse                                                    
   COPYR  = This file is part of the software VASP. Any use, copying, and all other rights are regul
   COPYR  = If you do not have a valid VASP license, you may not use, copy or distribute this file. 
   VRHFIN =C: s2p2                                                                                  
   LEXCH  = PE                                                                                      
   EATOM  =   147.1560 eV,   10.8157 Ry                                                             
                                                                                                    
   TITEL  = PAW_PBE C 08Apr2002                                                                     
   LULTRA =        F    use ultrasoft PP ?                                                          
   IUNSCR =        1    unscreen: 0-lin 1-nonlin 2-no                                               
   RPACOR =    1.200    partial core radius                                                         
   POMASS =   12.011; ZVAL   =    4.000    mass and valenz                                          
   RCORE  =    1.500    outmost cutoff radius                                                       
   RWIGS  =    1.630; RWIGS  =    0.863    wigner-seitz radius (au A)                               
   ENMAX  =  400.000; ENMIN  =  300.000 eV                                                          
   ICORE  =        2    local potential                                                             
   LCOR   =        T    correct aug charges                                                         
   LPAW   =        T    paw PP                                                                      
   EAUG   =  644.873                                                                                
   DEXC   =    0.000                                                                                
   RMAX   =    1.529    core radius for proj-oper                                                   
   RAUG   =    1.300    factor for augmentation sphere                                              
   RDEP   =    1.501    radius for radial grids                                                     
   RDEPT  =    1.300    core radius for aug-charge                                                  
                                                                                                    
   Atomic configuration                                                                             
    4 entries                                                                                       
     n  l   j            E        occ.                                                              
     1  0  0.50      -273.3789   2.0000                                                             
     2  0  0.50       -13.7508   2.0000                                                             
     2  1  0.50        -5.2854   2.0000                                                             
     3  2  1.50        -5.4423   0.0000                                                             
   Description                                                                                      
     l       E           TYP  RCUT    TYP  RCUT                                                     
     0    -13.7508458     23  1.200                                                                 
     0     -8.2022199     23  1.200                                                                 
     1     -5.2854383     23  1.500                                                                 
     1     34.0145650     23  1.500                                                                 
     2     -5.4423304      7  1.500                                                                 
  local pseudopotential read in
  partial core-charges read in
  partial kinetic energy density read in
  atomic valenz-charges read in
  non local Contribution for L=            0  read in
    real space projection operators read in
  non local Contribution for L=            0  read in
    real space projection operators read in
  non local Contribution for L=            1  read in
    real space projection operators read in
  non local Contribution for L=            1  read in
    real space projection operators read in
    PAW grid and wavefunctions read in
 
   number of l-projection  operators is LMAX  =            4
   number of lm-projection operators is LMMAX =            8
 
 POTCAR:    PAW_PBE N 08Apr2002                   
   SHA256 =  e053789ff3a61a86a1b75d8a110fcc91f86041011e7b0817c7c99e4e8a6349d7 N/POTCAR              
   COPYR  = (c) Copyright 08Apr2002 Georg Kresse                                                    
   COPYR  = This file is part of the software VASP. Any use, copying, and all other rights are regul
   COPYR  = If you do not have a valid VASP license, you may not use, copy or distribute this file. 
   VRHFIN =N: s2p3                                                                                  
   LEXCH  = PE                                                                                      
   EATOM  =   264.5486 eV,   19.4438 Ry                                                             
                                                                                                    
   TITEL  = PAW_PBE N 08Apr2002                                                                     
   LULTRA =        F    use ultrasoft PP ?                                                          
   IUNSCR =        1    unscreen: 0-lin 1-nonlin 2-no                                               
   RPACOR =    1.200    partial core radius                                                         
   POMASS =   14.001; ZVAL   =    5.000    mass and valenz                                          
   RCORE  =    1.500    outmost cutoff radius                                                       
   RWIGS  =    1.400; RWIGS  =    0.741    wigner-seitz radius (au A)                               
   ENMAX  =  400.000; ENMIN  =  300.000 eV                                                          
   ICORE  =        2    local potential                                                             
   LCOR   =        T    correct aug charges                                                         
   LPAW   =        T    paw PP                                                                      
   EAUG   =  627.112                                                                                
   DEXC   =    0.000                                                                                
   RMAX   =    1.529    core radius for proj-oper                                                   
   RAUG   =    1.300    factor for augmentation sphere                                              
   RDEP   =    1.514    radius for radial grids                                                     
   RDEPT  =    1.338    core radius for aug-charge                                                  
                                                                                                    
   Atomic configuration                                                                             
    4 entries                                                                                       
     n  l   j            E        occ.                                                              
     1  0  0.50      -384.7179   2.0000                                                             
     2  0  0.50       -18.5828   2.0000                                                             
     2  1  0.50        -7.0898   3.0000                                                             
     3  2  1.50        -6.8029   0.0000                                                             
   Description                                                                                      
     l       E           TYP  RCUT    TYP  RCUT                                                     
     0    -18.5828119     23  1.200                                                                 
     0    -13.5018863     23  1.200                                                                 
     1     -7.0897853     23  1.500                                                                 
     1      9.5240782     23  1.500                                                                 
     2     -6.8029130      7  1.500                                                                 
  local pseudopotential read in
  partial core-charges read in
  partial kinetic energy density read in
  atomic valenz-charges read in
  non local Contribution for L=            0  read in
    real space projection operators read in
  non local Contribution for L=            0  read in
    real space projection operators read in
  non local Contribution for L=            1  read in
    real space projection operators read in
  non local Contribution for L=            1  read in
    real space projection operators read in
    PAW grid and wavefunctions read in
 
   number of l-projection  operators is LMAX  =            4
   number of lm-projection operators is LMMAX =            8
 
 POTCAR:    PAW_PBE I 08Apr2002                   
   SHA256 =  e40f3f59b681c1fc3e3091736183c4589116986673d2b852a5012aec72758799 I/POTCAR              
   COPYR  = (c) Copyright 08Apr2002 Georg Kresse                                                    
   COPYR  = This file is part of the software VASP. Any use, copying, and all other rights are regul
   COPYR  = If you do not have a valid VASP license, you may not use, copy or distribute this file. 
   VRHFIN =I : s2p5                                                                                 
   LEXCH  = PE                                                                                      
   EATOM  =   315.8678 eV,   23.2156 Ry                                                             
                                                                                                    
   TITEL  = PAW_PBE I 08Apr2002                                                                     
   LULTRA =        F    use ultrasoft PP ?                                                          
   IUNSCR =        1    unscreen: 0-lin 1-nonlin 2-no                                               
   RPACOR =    2.200    partial core radius                                                         
   POMASS =  126.904; ZVAL   =    7.000    mass and valenz                                          
   RCORE  =    2.300    outmost cutoff radius                                                       
   RWIGS  =    2.810; RWIGS  =    1.487    wigner-seitz radius (au A)                               
   ENMAX  =  175.647; ENMIN  =  131.735 eV                                                          
   ICORE  =        3    local potential                                                             
   LCOR   =        T    correct aug charges                                                         
   LPAW   =        T    paw PP                                                                      
   EAUG   =  370.139                                                                                
   DEXC   =    0.000                                                                                
   RMAX   =    2.359    core radius for proj-oper                                                   
   RAUG   =    1.300    factor for augmentation sphere                                              
   RDEP   =    2.392    radius for radial grids                                                     
   RDEPT  =    2.170    core radius for aug-charge                                                  
                                                                                                    
   Atomic configuration                                                                             
   13 entries                                                                                       
     n  l   j            E        occ.                                                              
     1  0  0.50    -32976.3739   2.0000                                                             
     2  0  0.50     -5094.5933   2.0000                                                             
     2  1  1.50     -4572.0131   6.0000                                                             
     3  0  0.50     -1028.2813   2.0000                                                             
     3  1  1.50      -859.0250   6.0000                                                             
     3  2  2.50      -605.7620  10.0000                                                             
     4  0  0.50      -180.5540   2.0000                                                             
     4  1  1.50      -127.5306   6.0000                                                             
     4  2  2.50       -50.2720  10.0000                                                             
     5  0  0.50       -17.4058   2.0000                                                             
     5  1  0.50        -7.0851   5.0000                                                             
     5  2  1.50        -7.0750   0.0000                                                             
     4  3  2.50        -7.0750   0.0000                                                             
   Description                                                                                      
     l       E           TYP  RCUT    TYP  RCUT                                                     
     0    -17.4058016     23  2.300                                                                 
     0    -18.7663842     23  2.300                                                                 
     1     -7.0850686     23  2.300                                                                 
     1     -4.2150896     23  2.300                                                                 
     2     -7.0750295     23  2.300                                                                 
     3     -1.3605826     23  2.300                                                                 
  local pseudopotential read in
  partial core-charges read in
  partial kinetic energy density read in
  atomic valenz-charges read in
  non local Contribution for L=            0  read in
    real space projection operators read in
  non local Contribution for L=            0  read in
    real space projection operators read in
  non local Contribution for L=            1  read in
    real space projection operators read in
  non local Contribution for L=            1  read in
    real space projection operators read in
  non local Contribution for L=            2  read in
    real space projection operators read in
    PAW grid and wavefunctions read in
 
   number of l-projection  operators is LMAX  =            5
   number of lm-projection operators is LMMAX =           13
 
 POTCAR:    PAW_PBE Pb 08Apr2002                  
   SHA256 =  797118a27cf1bcd06b9881c67a26cdde129e3cd1a551dd4a281f9681ce847303 Pb/POTCAR             
   COPYR  = (c) Copyright 08Apr2002 Georg Kresse                                                    
   COPYR  = This file is part of the software VASP. Any use, copying, and all other rights are regul
   COPYR  = If you do not have a valid VASP license, you may not use, copy or distribute this file. 
   VRHFIN =Pb:                                                                                      
   LEXCH  = PE                                                                                      
   EATOM  =    96.9868 eV,    7.1283 Ry                                                             
                                                                                                    
   TITEL  = PAW_PBE Pb 08Apr2002                                                                    
   LULTRA =        F    use ultrasoft PP ?                                                          
   IUNSCR =        1    unscreen: 0-lin 1-nonlin 2-no                                               
   RPACOR =    2.200    partial core radius                                                         
   POMASS =  207.200; ZVAL   =    4.000    mass and valenz                                          
   RCORE  =    3.100    outmost cutoff radius                                                       
   RWIGS  =    3.260; RWIGS  =    1.725    wigner-seitz radius (au A)                               
   ENMAX  =   97.973; ENMIN  =   73.480 eV                                                          
   ICORE  =        3    local potential                                                             
   LCOR   =        T    correct aug charges                                                         
   LPAW   =        T    paw PP                                                                      
   EAUG   =  234.873                                                                                
   DEXC   =    0.000                                                                                
   RMAX   =    3.158    core radius for proj-oper                                                   
   RAUG   =    1.300    factor for augmentation sphere                                              
   RDEP   =    3.202    radius for radial grids                                                     
   RDEPT  =    2.659    core radius for aug-charge                                                  
                                                                                                    
   Atomic configuration                                                                             
   17 entries                                                                                       
     n  l   j            E        occ.                                                              
     1  0  0.50    -88091.8466   2.0000                                                             
     2  0  0.50    -15753.4197   2.0000                                                             
     2  1  1.50    -13508.1797   6.0000                                                             
     3  0  0.50     -3781.7194   2.0000                                                             
     3  1  1.50     -3138.2529   6.0000                                                             
     3  2  2.50     -2483.2977  10.0000                                                             
     4  0  0.50      -856.2895   2.0000                                                             
     4  1  1.50      -645.4943   6.0000                                                             
     4  2  2.50      -401.8768  10.0000                                                             
     4  3  3.50      -132.9059  14.0000                                                             
     5  0  0.50      -144.0950   2.0000                                                             
     5  1  1.50       -85.7879   6.0000                                                             
     5  2  2.50       -21.1769  10.0000                                                             
     6  0  0.50       -12.0372   2.0000                                                             
     6  1  1.50        -3.4971   2.0000                                                             
     6  2  2.50        -1.3606   0.0000                                                             
     5  3  2.50        -2.7212   0.0000                                                             
   Description                                                                                      
     l       E           TYP  RCUT    TYP  RCUT                                                     
     0    -12.0371566     23  3.100                                                                 
     0    -13.3977392     23  3.100                                                                 
     1     -3.4971341     23  3.100                                                                 
     1     -5.4423304     23  3.100                                                                 
     2     -1.3605826     23  3.100                                                                 
     3     -1.3605826     23  3.100                                                                 
  local pseudopotential read in
  partial core-charges read in
  partial kinetic energy density read in
  atomic valenz-charges read in
  non local Contribution for L=            0  read in
    real space projection operators read in
  non local Contribution for L=            0  read in
    real space projection operators read in
  non local Contribution for L=            1  read in
    real space projection operators read in
  non local Contribution for L=            1  read in
    real space projection operators read in
  non local Contribution for L=            2  read in
    real space projection operators read in
    PAW grid and wavefunctions read in
 
   number of l-projection  operators is LMAX  =            5
   number of lm-projection operators is LMMAX =           13
 
 Optimization of the real space projectors (new method)

 maximal supplied QI-value         = 34.20
 optimisation between [QCUT,QGAM] = [ 11.29, 22.57] = [ 35.68,142.71] Ry 
 Optimized for a Real-space Cutoff    1.16 Angstroem

   l    n(q)    QCUT    max X(q) W(low)/X(q) W(high)/X(q)  e(spline) 
   0      8    11.287    19.460    0.40E-03    0.73E-03    0.16E-06
   0      8    11.287    12.209    0.38E-03    0.70E-03    0.15E-06
   1      7    11.287     4.655    0.22E-03    0.25E-04    0.22E-06
 Optimization of the real space projectors (new method)

 maximal supplied QI-value         = 25.13
 optimisation between [QCUT,QGAM] = [ 11.31, 22.87] = [ 35.82,146.48] Ry 
 Optimized for a Real-space Cutoff    1.00 Angstroem

   l    n(q)    QCUT    max X(q) W(low)/X(q) W(high)/X(q)  e(spline) 
   0      7    11.310   115.676    0.43E-03    0.13E-02    0.19E-06
   0      7    11.310    87.132    0.43E-03    0.13E-02    0.18E-06
   1      6    11.310     4.429    0.42E-03    0.74E-03    0.11E-06
   1      6    11.310     2.733    0.34E-03    0.55E-03    0.92E-07
 Optimization of the real space projectors (new method)

 maximal supplied QI-value         = 25.13
 optimisation between [QCUT,QGAM] = [ 11.31, 22.87] = [ 35.82,146.48] Ry 
 Optimized for a Real-space Cutoff    1.27 Angstroem

   l    n(q)    QCUT    max X(q) W(low)/X(q) W(high)/X(q)  e(spline) 
   0      9    11.310    79.467    0.75E-04    0.16E-03    0.36E-06
   0      9    11.310    66.151    0.74E-04    0.16E-03    0.36E-06
   1      8    11.310    17.416    0.35E-03    0.12E-03    0.95E-06
   1      8    11.310    12.382    0.37E-03    0.13E-03    0.98E-06
 Optimization of the real space projectors (new method)

 maximal supplied QI-value         = 16.25
 optimisation between [QCUT,QGAM] = [ 11.38, 22.75] = [ 36.24,144.96] Ry 
 Optimized for a Real-space Cutoff    1.31 Angstroem

   l    n(q)    QCUT    max X(q) W(low)/X(q) W(high)/X(q)  e(spline) 
   0      9    11.376   194.483    0.24E-03    0.23E-03    0.67E-07
   0      9    11.376   190.334    0.23E-03    0.22E-03    0.65E-07
   1      8    11.376   116.687    0.25E-03    0.63E-04    0.16E-06
   1      8    11.376    88.696    0.25E-03    0.61E-04    0.16E-06
   2      8    11.376     4.877    0.17E-03    0.14E-03    0.29E-07
 Optimization of the real space projectors (new method)

 maximal supplied QI-value         = 12.09
 optimisation between [QCUT,QGAM] = [ 11.37, 22.86] = [ 36.19,146.31] Ry 
 Optimized for a Real-space Cutoff    1.66 Angstroem

   l    n(q)    QCUT    max X(q) W(low)/X(q) W(high)/X(q)  e(spline) 
   0     11    11.369   135.111    0.12E-03    0.69E-04    0.19E-05
   0     11    11.369   146.850    0.11E-03    0.65E-04    0.18E-05
   1     11    11.369   148.016    0.17E-03    0.32E-03    0.89E-06
   1     11    11.369   122.989    0.17E-03    0.32E-03    0.91E-06
   2     10    11.369     8.916    0.12E-03    0.45E-04    0.33E-06
  PAW_PBE H 15Jun2001                   :
 energy of atom  1       EATOM=  -12.4884
 kinetic energy error for atom=    0.0020 (will be added to EATOM!!)
  PAW_PBE C 08Apr2002                   :
 energy of atom  2       EATOM= -147.1560
 kinetic energy error for atom=    0.0076 (will be added to EATOM!!)
  PAW_PBE N 08Apr2002                   :
 energy of atom  3       EATOM= -264.5486
 kinetic energy error for atom=    0.0138 (will be added to EATOM!!)
  PAW_PBE I 08Apr2002                   :
 energy of atom  4       EATOM= -315.8678
 kinetic energy error for atom=    0.0009 (will be added to EATOM!!)
  PAW_PBE Pb 08Apr2002                  :
 energy of atom  5       EATOM=  -96.9868
 kinetic energy error for atom=    0.0000 (will be added to EATOM!!)
 
 
 POSCAR:  H  C  N  I Pb
  positions in cartesian coordinates
  No initial velocities read in
 exchange correlation table for  LEXCH =        8
   RHO(1)=    0.500       N(1)  =     2000
   RHO(2)=  100.500       N(2)  =     4000
 


--------------------------------------------------------------------------------------------------------


 ion  position               nearest neighbor table
   1  0.465  0.339  0.563- 187 1.02
   2  0.438  0.823  0.575- 188 1.03
   3  0.924  0.284  0.576- 189 1.03
   4  0.934  0.818  0.573- 190 1.03
   5  0.323  0.078  0.571- 194 1.03
   6  0.348  0.544  0.556- 195 1.02
   7  0.807  0.093  0.565- 196 1.03
   8  0.109  0.251  0.556- 183 1.03
   9  0.075  0.676  0.577- 184 1.02
  10  0.551  0.156  0.561- 185 1.02
  11  0.504  0.644  0.556- 186 1.02
  12  0.377  0.014  0.557- 194 1.02
  13  0.294  0.623  0.551- 195 1.03
  14  0.877  0.033  0.556- 196 1.02
  15  0.060  0.289  0.578- 183 1.03
  16  0.986  0.697  0.585- 184 1.03
  17  0.572  0.248  0.567- 185 1.02
  18  0.447  0.685  0.575- 186 1.03
  19  0.273  0.436  0.572- 191 1.03
  20  0.188  0.058  0.572- 192 1.03
  21  0.687  0.032  0.576- 193 1.02
  22  0.382  0.297  0.555- 187 1.03
  23  0.496  0.869  0.557- 188 1.03
  24  0.882  0.236  0.555- 189 1.02
  25  0.989  0.868  0.555- 190 1.03
  26  0.178  0.445  0.570- 191 1.01
  27  0.154  0.980  0.560- 192 1.02
  28  0.682  0.937  0.570- 193 1.02
  29  0.430  0.182  0.552- 146 1.09
  30  0.543  0.759  0.543- 147 1.09
  31  0.999  0.212  0.539- 144 1.09
  32  0.084  0.780  0.555- 145 1.10
  33  0.183  0.562  0.556- 148 1.09
  34  0.272  0.939  0.549- 149 1.09
  35  0.799  0.929  0.557- 150 1.09
  36  0.442  0.301  0.672- 205 1.02
  37  0.452  0.806  0.674- 206 1.02
  38  0.946  0.285  0.675- 207 1.02
  39  0.920  0.736  0.668- 208 1.03
  40  0.301  0.053  0.673- 209 1.02
  41  0.295  0.561  0.674- 210 1.03
  42  0.805  0.057  0.674- 211 1.02
  43  0.843  0.470  0.662- 212 1.02
  44  0.085  0.168  0.648- 197 1.02
  45  0.112  0.709  0.653- 198 1.03
  46  0.579  0.171  0.650- 199 1.02
  47  0.572  0.670  0.647- 200 1.01
  48  0.185  0.412  0.649- 201 1.02
  49  0.169  0.924  0.647- 202 1.02
  50  0.642  0.473  0.655- 203 1.03
  51  0.675  0.920  0.652- 204 1.02
  52  0.052  0.186  0.674- 197 1.03
  53  0.039  0.666  0.667- 198 1.02
  54  0.544  0.201  0.674- 199 1.02
  55  0.550  0.698  0.673- 200 1.03
  56  0.204  0.449  0.674- 201 1.03
  57  0.198  0.951  0.673- 202 1.02
  58  0.714  0.414  0.663- 203 1.03
  59  0.704  0.954  0.677- 204 1.03
  60  0.419  0.326  0.646- 205 1.02
  61  0.423  0.835  0.649- 206 1.02
  62  0.924  0.321  0.650- 207 1.02
  63  0.918  0.821  0.655- 208 1.02
  64  0.328  0.079  0.647- 209 1.02
  65  0.323  0.587  0.648- 210 1.03
  66  0.829  0.079  0.647- 211 1.02
  67  0.849  0.557  0.651- 212 1.02
  68  0.009  0.251  0.631- 151 1.09
  69  0.040  0.813  0.644- 152 1.10
  70  0.504  0.248  0.630- 153 1.09
  71  0.495  0.751  0.630- 154 1.09
  72  0.248  0.002  0.630- 156 1.09
  73  0.258  0.494  0.631- 155 1.09
  74  0.751  0.995  0.632- 158 1.09
  75  0.723  0.570  0.647- 157 1.09
  76  0.449  0.301  0.769- 221 1.02
  77  0.449  0.801  0.769- 222 1.02
  78  0.949  0.301  0.769- 223 1.02
  79  0.949  0.801  0.769- 224 1.02
  80  0.301  0.051  0.769- 225 1.02
  81  0.301  0.551  0.769- 226 1.02
  82  0.801  0.051  0.769- 227 1.02
  83  0.801  0.551  0.769- 228 1.02
  84  0.079  0.171  0.743- 213 1.02
  85  0.079  0.671  0.743- 214 1.02
  86  0.579  0.171  0.743- 215 1.02
  87  0.579  0.671  0.743- 216 1.02
  88  0.171  0.421  0.743- 217 1.02
  89  0.171  0.921  0.743- 218 1.02
  90  0.671  0.421  0.743- 219 1.02
  91  0.671  0.921  0.743- 220 1.02
  92  0.051  0.199  0.769- 213 1.02
  93  0.051  0.699  0.769- 214 1.02
  94  0.551  0.199  0.769- 215 1.02
  95  0.551  0.699  0.769- 216 1.02
  96  0.199  0.449  0.769- 217 1.02
  97  0.199  0.949  0.769- 218 1.02
  98  0.699  0.449  0.769- 219 1.02
  99  0.699  0.949  0.769- 220 1.02
 100  0.421  0.329  0.743- 221 1.02
 101  0.421  0.829  0.743- 222 1.02
 102  0.921  0.329  0.743- 223 1.02
 103  0.921  0.829  0.743- 224 1.02
 104  0.329  0.079  0.743- 225 1.02
 105  0.329  0.579  0.743- 226 1.02
 106  0.829  0.079  0.743- 227 1.02
 107  0.829  0.579  0.743- 228 1.02
 108  0.000  0.250  0.726- 161 1.09
 109  0.000  0.750  0.726- 162 1.09
 110  0.500  0.250  0.726- 159 1.09
 111  0.500  0.750  0.726- 160 1.09
 112  0.250  0.000  0.726- 163 1.09
 113  0.250  0.500  0.726- 164 1.09
 114  0.750  0.000  0.726- 165 1.09
 115  0.750  0.500  0.726- 166 1.09
 116  0.720  0.445  0.539- 173 1.10
 117  0.742  0.497  0.516- 173 1.09
 118  0.663  0.553  0.556- 174 1.09
 119  0.710  0.639  0.555- 174 1.10
 120  0.854  0.509  0.567- 175 1.10
 121  0.793  0.579  0.577- 175 1.10
 122  0.879  0.559  0.531- 176 1.10
 123  0.809  0.619  0.521- 176 1.10
 124  0.873  0.461  0.518- 177 1.10
 125  0.863  0.426  0.544- 177 1.10
 126  0.873  0.326  0.519- 178 1.10
 127  0.784  0.324  0.530- 178 1.10
 128  0.639  0.552  0.517- 179 1.10
 129  0.696  0.633  0.513- 179 1.10
 130  0.613  0.639  0.528- 179 1.10
 131  0.764  0.467  0.595- 180 1.10
 132  0.755  0.414  0.571- 180 1.10
 133  0.688  0.483  0.578- 180 1.10
 134  0.819  0.692  0.557- 181 1.10
 135  0.897  0.693  0.539- 181 1.10
 136  0.898  0.635  0.562- 181 1.10
 137  0.820  0.381  0.485- 182 1.09
 138  0.787  0.292  0.491- 182 1.10
 139  0.663  0.302  0.518- 168 1.10
 140  0.733  0.461  0.471- 169 1.09
 141  0.535  0.354  0.517- 170 1.09
 142  0.605  0.511  0.469- 171 1.09
 143  0.506  0.459  0.492- 172 1.09
 144  0.995  0.241  0.554-  31 1.09 183 1.31 189 1.32
 145  0.033  0.770  0.564-  32 1.10 184 1.31 190 1.32
 146  0.467  0.227  0.557-  29 1.09 185 1.31 187 1.31
 147  0.502  0.757  0.555-  30 1.09 188 1.31 186 1.31
 148  0.235  0.533  0.559-  33 1.09 195 1.31 191 1.32
 149  0.266  0.992  0.557-  34 1.09 192 1.31 194 1.32
 150  0.779  0.983  0.563-  35 1.09 196 1.31 193 1.31
 151  0.005  0.245  0.649-  68 1.09 197 1.31 207 1.31
 152  0.016  0.768  0.654-  69 1.10 198 1.31 208 1.31
 153  0.500  0.249  0.647-  70 1.09 199 1.31 205 1.31
 154  0.497  0.752  0.648-  71 1.09 206 1.31 200 1.31
 155  0.255  0.498  0.648-  73 1.09 201 1.31 210 1.31
 156  0.249  0.001  0.647-  72 1.09 209 1.31 202 1.32
 157  0.744  0.519  0.653-  75 1.09 203 1.31 212 1.32
 158  0.752  0.999  0.650-  74 1.09 211 1.31 204 1.31
 159  0.500  0.250  0.743- 110 1.09 221 1.31 215 1.31
 160  0.500  0.750  0.743- 111 1.09 222 1.31 216 1.31
 161  1.000  0.250  0.743- 108 1.09 223 1.31 213 1.31
 162  1.000  0.750  0.743- 109 1.09 224 1.31 214 1.31
 163  0.250  0.000  0.743- 112 1.09 225 1.31 218 1.31
 164  0.250  0.500  0.743- 113 1.09 226 1.31 217 1.31
 165  0.750  0.000  0.743- 114 1.09 227 1.31 220 1.31
 166  0.750  0.500  0.743- 115 1.09 228 1.31 219 1.31
 167  0.707  0.379  0.495- 169 1.40 168 1.41 182 1.51
 168  0.650  0.349  0.507- 139 1.10 170 1.40 167 1.41
 169  0.689  0.437  0.481- 140 1.09 167 1.40 171 1.40
 170  0.578  0.377  0.506- 141 1.09 168 1.40 172 1.40
 171  0.617  0.465  0.480- 142 1.09 172 1.39 169 1.40
 172  0.562  0.436  0.493- 143 1.09 171 1.39 170 1.40
 173  0.764  0.478  0.531- 117 1.09 116 1.10 177 1.52 229 1.52
 174  0.699  0.587  0.546- 118 1.09 119 1.10 179 1.52 229 1.52
 175  0.795  0.527  0.568- 121 1.10 120 1.10 180 1.51 229 1.53
 176  0.833  0.596  0.535- 122 1.10 123 1.10 181 1.52 229 1.53
 177  0.834  0.432  0.528- 124 1.10 125 1.10 173 1.52 178 1.53
 178  0.819  0.355  0.519- 127 1.10 126 1.10 177 1.53 182 1.54
 179  0.661  0.603  0.525- 128 1.10 129 1.10 130 1.10 174 1.52
 180  0.747  0.469  0.578- 131 1.10 132 1.10 133 1.10 175 1.51
 181  0.862  0.657  0.550- 136 1.10 134 1.10 135 1.10 176 1.52
 182  0.785  0.350  0.496- 137 1.09 138 1.10 167 1.51 178 1.54
 183  0.058  0.260  0.563-   8 1.03  15 1.03 144 1.31
 184  0.030  0.709  0.575-   9 1.02  16 1.03 145 1.31
 185  0.536  0.210  0.561-  10 1.02  17 1.02 146 1.31
 186  0.482  0.692  0.562-  11 1.02  18 1.03 147 1.31
 187  0.438  0.294  0.558-   1 1.02  22 1.03 146 1.31
 188  0.475  0.820  0.562-  23 1.03   2 1.03 147 1.31
 189  0.930  0.253  0.563-  24 1.02   3 1.03 144 1.32
 190  0.979  0.818  0.562-   4 1.03  25 1.03 145 1.32
 191  0.229  0.464  0.566-  26 1.01  19 1.03 148 1.32
 192  0.199  0.011  0.563-  27 1.02  20 1.03 149 1.31
 193  0.710  0.986  0.569-  28 1.02  21 1.02 150 1.31
 194  0.325  0.031  0.561-  12 1.02   5 1.03 149 1.32
 195  0.297  0.567  0.555-   6 1.02  13 1.03 148 1.31
 196  0.824  0.040  0.562-  14 1.02   7 1.03 150 1.31
 197  0.049  0.197  0.658-  44 1.02  52 1.03 151 1.31
 198  0.057  0.710  0.658-  53 1.02  45 1.03 152 1.31
 199  0.544  0.205  0.658-  54 1.02  46 1.02 153 1.31
 200  0.541  0.703  0.657-  47 1.01  55 1.03 154 1.31
 201  0.213  0.450  0.658-  48 1.02  56 1.03 155 1.31
 202  0.203  0.956  0.657-  49 1.02  57 1.02 156 1.32
 203  0.698  0.465  0.658-  50 1.03  58 1.03 157 1.31
 204  0.708  0.955  0.660-  51 1.02  59 1.03 158 1.31
 205  0.451  0.294  0.656-  60 1.02  36 1.02 153 1.31
 206  0.455  0.800  0.658-  61 1.02  37 1.02 154 1.31
 207  0.956  0.286  0.659-  38 1.02  62 1.02 151 1.31
 208  0.947  0.775  0.660-  63 1.02  39 1.03 152 1.31
 209  0.295  0.047  0.656-  64 1.02  40 1.02 156 1.31
 210  0.293  0.551  0.657-  65 1.03  41 1.03 155 1.31
 211  0.797  0.049  0.658-  42 1.02  66 1.02 158 1.31
 212  0.817  0.514  0.656-  67 1.02  43 1.02 157 1.32
 213  0.046  0.204  0.753-  92 1.02  84 1.02 161 1.31
 214  0.046  0.704  0.753-  93 1.02  85 1.02 162 1.31
 215  0.546  0.204  0.753-  94 1.02  86 1.02 159 1.31
 216  0.546  0.704  0.753-  95 1.02  87 1.02 160 1.31
 217  0.204  0.454  0.753-  96 1.02  88 1.02 164 1.31
 218  0.204  0.954  0.753-  97 1.02  89 1.02 163 1.31
 219  0.704  0.454  0.753-  98 1.02  90 1.02 166 1.31
 220  0.704  0.954  0.753-  99 1.02  91 1.02 165 1.31
 221  0.454  0.296  0.753-  76 1.02 100 1.02 159 1.31
 222  0.454  0.796  0.753-  77 1.02 101 1.02 160 1.31
 223  0.954  0.296  0.753-  78 1.02 102 1.02 161 1.31
 224  0.954  0.796  0.753-  79 1.02 103 1.02 162 1.31
 225  0.296  0.046  0.753-  80 1.02 104 1.02 163 1.31
 226  0.296  0.546  0.753-  81 1.02 105 1.02 164 1.31
 227  0.796  0.046  0.753-  82 1.02 106 1.02 165 1.31
 228  0.796  0.546  0.753-  83 1.02 107 1.02 166 1.31
 229  0.773  0.547  0.545- 173 1.52 174 1.52 175 1.53 176 1.53
 230  0.518  0.011  0.553- 304 3.27
 231  0.489  0.495  0.553- 305 3.19
 232  0.011  0.008  0.550- 302 3.36
 233  0.025  0.500  0.554- 303 3.13
 234  0.251  0.233  0.553- 306 3.22
 235  0.254  0.762  0.552- 307 3.19
 236  0.735  0.212  0.556- 308 3.16
 237  0.700  0.796  0.555- 309 3.22
 238  0.999  0.988  0.654- 302 3.14 310 3.20
 239  0.013  0.499  0.655- 311 3.10 303 3.21
 240  0.495  0.004  0.655- 312 3.11 304 3.11
 241  0.500  0.495  0.654- 313 3.17 305 3.17
 242  0.252  0.246  0.655- 314 3.13 306 3.15
 243  0.253  0.755  0.654- 315 3.16 307 3.20
 244  0.747  0.269  0.655- 316 3.13 308 3.14
 245  0.748  0.740  0.655- 317 3.15 309 3.18
 246  0.130  0.122  0.607- 306 3.20 302 3.21
 247  0.151  0.608  0.608- 307 3.20 303 3.24
 248  0.639  0.114  0.612- 308 3.17 304 3.20
 249  0.632  0.618  0.607- 305 3.19 309 3.21
 250  0.361  0.390  0.605- 306 3.20 305 3.23
 251  0.369  0.887  0.607- 304 3.20 307 3.23
 252  0.888  0.368  0.608- 303 3.26 308 3.32
 253  0.867  0.883  0.606- 309 3.20 302 3.22
 254  0.122  0.366  0.609- 306 3.20 303 3.28
 255  0.123  0.875  0.607- 307 3.20 302 3.25
 256  0.597  0.348  0.601- 305 3.21 308 3.23
 257  0.617  0.867  0.615- 309 3.12 304 3.21
 258  0.388  0.134  0.607- 306 3.19 304 3.21
 259  0.386  0.636  0.609- 307 3.25 305 3.27
 260  0.884  0.137  0.611- 302 3.20 308 3.24
 261  0.895  0.640  0.613- 303 3.20 309 3.50
 262  0.000  0.000  0.755- 310 3.13 318 3.27
 263  0.000  0.500  0.755- 311 3.13 319 3.27
 264  0.500  0.000  0.755- 312 3.13 320 3.27
 265  0.500  0.500  0.755- 313 3.13 321 3.27
 266  0.250  0.250  0.755- 314 3.13 322 3.27
 267  0.250  0.750  0.755- 315 3.13 323 3.27
 268  0.750  0.250  0.755- 316 3.13 324 3.27
 269  0.750  0.750  0.755- 317 3.13 325 3.27
 270  0.136  0.114  0.705- 310 3.20 314 3.20
 271  0.136  0.614  0.705- 311 3.20 315 3.20
 272  0.636  0.114  0.705- 312 3.20 316 3.20
 273  0.636  0.614  0.705- 313 3.20 317 3.20
 274  0.364  0.386  0.705- 313 3.20 314 3.20
 275  0.364  0.886  0.705- 312 3.20 315 3.20
 276  0.864  0.386  0.705- 311 3.20 316 3.20
 277  0.864  0.886  0.705- 310 3.20 317 3.20
 278  0.114  0.364  0.705- 314 3.21 311 3.21
 279  0.114  0.864  0.705- 315 3.21 310 3.21
 280  0.614  0.364  0.705- 316 3.21 313 3.21
 281  0.614  0.864  0.705- 317 3.21 312 3.21
 282  0.386  0.136  0.705- 314 3.21 312 3.21
 283  0.386  0.636  0.705- 315 3.21 313 3.21
 284  0.886  0.136  0.705- 316 3.21 310 3.21
 285  0.886  0.636  0.705- 317 3.21 311 3.21
 286  0.135  0.115  0.801- 318 3.22 322 3.22
 287  0.135  0.615  0.801- 319 3.22 323 3.22
 288  0.635  0.115  0.801- 320 3.22 324 3.22
 289  0.635  0.615  0.801- 321 3.22 325 3.22
 290  0.365  0.385  0.801- 321 3.22 322 3.22
 291  0.365  0.885  0.801- 320 3.22 323 3.22
 292  0.865  0.385  0.801- 319 3.22 324 3.22
 293  0.865  0.885  0.801- 318 3.22 325 3.22
 294  0.115  0.365  0.801- 319 3.23 322 3.23
 295  0.115  0.865  0.801- 318 3.23 323 3.23
 296  0.615  0.365  0.801- 321 3.23 324 3.23
 297  0.615  0.865  0.801- 320 3.23 325 3.23
 298  0.385  0.135  0.801- 320 3.23 322 3.23
 299  0.385  0.635  0.801- 321 3.23 323 3.23
 300  0.885  0.135  0.801- 318 3.23 324 3.23
 301  0.885  0.635  0.801- 319 3.23 325 3.23
 302  0.998  0.004  0.604- 238 3.14 260 3.20 246 3.21 253 3.22 255 3.25 232 3.36
 303  0.005  0.504  0.604- 233 3.13 261 3.20 239 3.21 247 3.24 252 3.26 254 3.28
 304  0.505  0.001  0.605- 240 3.11 251 3.20 248 3.20 257 3.21 258 3.21 230 3.27
 305  0.502  0.499  0.603- 241 3.17 231 3.19 249 3.19 256 3.21 250 3.23 259 3.27
 306  0.253  0.249  0.604- 242 3.15 258 3.19 246 3.20 254 3.20 250 3.20 234 3.22
 307  0.251  0.753  0.603- 235 3.19 243 3.20 247 3.20 255 3.20 251 3.23 259 3.25
 308  0.747  0.251  0.605- 244 3.14 236 3.16 248 3.17 256 3.23 260 3.24 252 3.32
 309  0.744  0.756  0.604- 257 3.12 245 3.18 253 3.20 249 3.21 237 3.22 261 3.50
 310  0.000  0.000  0.705- 262 3.13 238 3.20 270 3.20 277 3.20 279 3.21 284 3.21
 311  0.000  0.500  0.705- 239 3.10 263 3.13 271 3.20 276 3.20 278 3.21 285 3.21
 312  0.500  0.000  0.705- 240 3.11 264 3.13 272 3.20 275 3.20 281 3.21 282 3.21
 313  0.500  0.500  0.705- 265 3.13 241 3.17 273 3.20 274 3.20 280 3.21 283 3.21
 314  0.250  0.250  0.705- 266 3.13 242 3.13 270 3.20 274 3.20 282 3.21 278 3.21
 315  0.250  0.750  0.705- 267 3.13 243 3.16 271 3.20 275 3.20 283 3.21 279 3.21
 316  0.750  0.250  0.705- 244 3.13 268 3.13 272 3.20 276 3.20 284 3.21 280 3.21
 317  0.750  0.750  0.705- 269 3.13 245 3.15 273 3.20 277 3.20 285 3.21 281 3.21
 318  0.000  0.000  0.807- 286 3.22 293 3.22 300 3.23 295 3.23 262 3.27
 319  0.000  0.500  0.807- 287 3.22 292 3.22 301 3.23 294 3.23 263 3.27
 320  0.500  0.000  0.807- 288 3.22 291 3.22 298 3.23 297 3.23 264 3.27
 321  0.500  0.500  0.807- 289 3.22 290 3.22 299 3.23 296 3.23 265 3.27
 322  0.250  0.250  0.807- 290 3.22 286 3.22 294 3.23 298 3.23 266 3.27
 323  0.250  0.750  0.807- 291 3.22 287 3.22 299 3.23 295 3.23 267 3.27
 324  0.750  0.250  0.807- 292 3.22 288 3.22 296 3.23 300 3.23 268 3.27
 325  0.750  0.750  0.807- 293 3.22 289 3.22 297 3.23 301 3.23 269 3.27
 

IMPORTANT INFORMATION: All symmetrisations will be switched off!
NOSYMM: (Re-)initialisation of all symmetry stuff for point group C_1.


----------------------------------------------------------------------------------------

                                     Primitive cell                                     

  volume of cell :   20385.2105

  direct lattice vectors                    reciprocal lattice vectors
    18.060800552  0.000000000  0.000000000     0.055368531  0.000015077 -0.000000000
    -0.004918649 18.062799454  0.000000000     0.000000000  0.055362404  0.000000000
     0.000000000  0.000000000 62.487499237     0.000000000 -0.000000000  0.016003201

  length of vectors
    18.060800552 18.062800123 62.487499237     0.055368533  0.055362404  0.016003201

  position of ions in fractional coordinates (direct lattice)
     0.465143776  0.339416869  0.562825829
     0.437625433  0.822931922  0.574833480
     0.923583511  0.283700958  0.576455508
     0.934450290  0.817747504  0.572567584
     0.322770315  0.077771531  0.570691294
     0.347961837  0.543612222  0.556305299
     0.806981385  0.092662509  0.565258444
     0.108742322  0.250768022  0.556331610
     0.074718624  0.675590323  0.577118055
     0.551475998  0.156028035  0.560856380
     0.503884195  0.643587101  0.556372756
     0.377090008  0.013877064  0.557181450
     0.294036087  0.622539297  0.551062551
     0.877069465  0.032677138  0.556152558
     0.059980170  0.289239358  0.577517793
     0.986028705  0.697209029  0.585481911
     0.572279953  0.248288061  0.567262874
     0.446665922  0.684956688  0.575113260
     0.273430501  0.435610192  0.572016449
     0.188354485  0.057530693  0.572154294
     0.686619791  0.032257100  0.575589002
     0.381504715  0.297394835  0.555097782
     0.495792490  0.869139891  0.557132613
     0.882335627  0.235915843  0.555144483
     0.988754524  0.868198138  0.554811286
     0.177703054  0.444660563  0.569551784
     0.153623796  0.979581356  0.559683538
     0.681522876  0.937057601  0.569674611
     0.429964074  0.182175464  0.552293388
     0.543494172  0.759451554  0.542649003
     0.998605251  0.212130333  0.538919924
     0.084160733  0.779869060  0.554968605
     0.182606980  0.562186137  0.556289793
     0.271753143  0.939443602  0.548652279
     0.799100361  0.929254741  0.557230716
     0.442066695  0.300821194  0.671549846
     0.451976895  0.805915170  0.673856276
     0.946338862  0.284619612  0.674585670
     0.919647822  0.736469718  0.668446991
     0.300828128  0.052601269  0.672556394
     0.295482244  0.561076066  0.673616360
     0.805276086  0.056761860  0.673789673
     0.842704547  0.469507215  0.662184447
     0.085342779  0.168069172  0.647999725
     0.112282311  0.709363271  0.653460107
     0.579447142  0.171332769  0.649794884
     0.572113443  0.669730993  0.647156844
     0.184879599  0.411900380  0.649316395
     0.169337901  0.923766433  0.647455183
     0.641953985  0.473454582  0.655475097
     0.674859368  0.919546181  0.652069631
     0.052244924  0.185830609  0.673600854
     0.038998006  0.666132354  0.666735833
     0.544484012  0.201381499  0.674342579
     0.549525787  0.698273272  0.672938612
     0.204176604  0.448550487  0.674379635
     0.198055332  0.950567709  0.672960406
     0.713659321  0.413815696  0.662844613
     0.704444109  0.953560649  0.676718787
     0.419379556  0.325772306  0.645539699
     0.423249342  0.834631154  0.648616792
     0.923930950  0.320898735  0.649526947
     0.918005716  0.821411295  0.655155636
     0.327954949  0.079462443  0.647011673
     0.322806660  0.586982473  0.647930803
     0.829104955  0.079065345  0.647472337
     0.849432420  0.557392317  0.651171197
     0.009315739  0.251226306  0.631194667
     0.040456714  0.812844234  0.644164546
     0.503861010  0.248233283  0.629797781
     0.494589473  0.751473188  0.630260825
     0.247776568  0.001526071  0.629542786
     0.257985525  0.494096002  0.630966167
     0.750523583  0.994993945  0.632120634
     0.722500961  0.570490319  0.646796787
     0.448745018  0.301283966  0.768889017
     0.448745007  0.801283913  0.768889017
     0.948744965  0.301283966  0.768889017
     0.948745007  0.801283913  0.768889017
     0.301275995  0.051294496  0.768872961
     0.301276011  0.551294499  0.768872961
     0.801275943  0.051294496  0.768872961
     0.801275984  0.551294499  0.768872961
     0.078771004  0.171180501  0.743441971
     0.078771006  0.671180448  0.743441971
     0.578771004  0.171180501  0.743441971
     0.578770992  0.671180448  0.743441971
     0.171199499  0.421174482  0.743421032
     0.171199501  0.921174508  0.743421032
     0.671199512  0.421174482  0.743421032
     0.671199501  0.921174508  0.743421032
     0.051256000  0.198714991  0.768889017
     0.051256002  0.698714925  0.768889017
     0.551256027  0.198714991  0.768889017
     0.551256016  0.698714925  0.768889017
     0.198723491  0.448703970  0.768872046
     0.198723493  0.948703970  0.768872046
     0.698723518  0.448703970  0.768872046
     0.698723507  0.948703970  0.768872046
     0.421231519  0.328817467  0.743441971
     0.421231508  0.828817440  0.743441971
     0.921231466  0.328817467  0.743441971
     0.921231508  0.828817440  0.743441971
     0.328800503  0.078824997  0.743421032
     0.328800492  0.578824964  0.743421032
     0.828800477  0.078824997  0.743421032
     0.828800519  0.578824964  0.743421032
     0.000003500  0.250001478  0.725821992
     0.000003500  0.750001452  0.725821992
     0.500003506  0.250001478  0.725821992
     0.500003495  0.750001452  0.725821992
     0.250000502  0.000000000  0.725803983
     0.250000517  0.500000000  0.725803983
     0.750000502  0.000000000  0.725803983
     0.750000490  0.500000000  0.725803983
     0.720139593  0.444681313  0.538849781
     0.741823293  0.496557220  0.515874299
     0.663094602  0.552870722  0.556067946
     0.710044657  0.638931241  0.554698166
     0.853607393  0.509337960  0.567167212
     0.793344988  0.579181560  0.576657148
     0.878558888  0.559448524  0.530801907
     0.808713271  0.619010985  0.520538379
     0.872862052  0.461463379  0.517530392
     0.862799383  0.425584515  0.543530771
     0.873021331  0.325824655  0.518588099
     0.784167065  0.323902212  0.529857077
     0.638567596  0.552398394  0.517477159
     0.695648315  0.632596890  0.513327159
     0.613194579  0.638623536  0.528382416
     0.763871851  0.466558199  0.595055053
     0.754893786  0.413684177  0.571486130
     0.687643563  0.482724539  0.577912892
     0.818671631  0.692035224  0.556526962
     0.896819292  0.693188062  0.539483575
     0.897984713  0.634803623  0.562229579
     0.820277778  0.380532447  0.484884092
     0.786727075  0.291866730  0.491324711
     0.662500544  0.302493245  0.518143430
     0.732539599  0.460740103  0.470650593
     0.535166337  0.353922352  0.516695386
     0.604748081  0.510888153  0.468734439
     0.505718934  0.459298093  0.492391300
     0.995455469  0.240639258  0.554209543
     0.033104587  0.769876936  0.563972848
     0.466931616  0.227219877  0.556987442
     0.501622629  0.757049840  0.555229278
     0.234567661  0.532803582  0.559191191
     0.265625850  0.991519670  0.557383212
     0.779166660  0.983182269  0.562651233
     0.004778789  0.244781739  0.648559041
     0.016349120  0.767670678  0.653553631
     0.499784373  0.248651151  0.647234252
     0.497151635  0.751771917  0.647663354
     0.254812698  0.498482224  0.648327855
     0.248673131  0.001471399  0.647046470
     0.744386449  0.518923013  0.653204929
     0.752109856  0.999263881  0.649574381
     0.499988984  0.249994984  0.743277021
     0.499989025  0.749994958  0.743277021
     0.999988984  0.249994984  0.743277021
     0.999989025  0.749994958  0.743277021
     0.250000502  0.000001000  0.743255960
     0.250000517  0.500001003  0.743255960
     0.750000502  0.000001000  0.743255960
     0.750000491  0.500001003  0.743255960
     0.706805960  0.378762087  0.494610677
     0.649834749  0.348566289  0.507334383
     0.689104936  0.436900753  0.480728018
     0.578118210  0.377151071  0.506452676
     0.616873627  0.465337463  0.479717531
     0.561547490  0.436032758  0.492693332
     0.763824753  0.477619318  0.531192610
     0.698950857  0.587214149  0.546056178
     0.795374804  0.527004547  0.567723537
     0.832818964  0.596238385  0.535261050
     0.833929178  0.432278631  0.528098119
     0.819457547  0.355205389  0.518806649
     0.660820833  0.602714710  0.524881472
     0.746962042  0.469266827  0.578228934
     0.862319007  0.657200355  0.549586609
     0.785398159  0.350389895  0.496250654
     0.058028276  0.260309253  0.563314208
     0.029828786  0.709476945  0.575452439
     0.535589489  0.210191786  0.561499697
     0.481887478  0.691576200  0.562304790
     0.437544865  0.293653431  0.557571543
     0.474621934  0.819587293  0.562363212
     0.929866047  0.252569717  0.562680719
     0.978829191  0.818336727  0.562253876
     0.228856370  0.464141965  0.566054929
     0.198910750  0.010576440  0.563445521
     0.710137975  0.985576232  0.569307350
     0.325330502  0.030778269  0.561489380
     0.296823394  0.567445950  0.554951085
     0.824125750  0.039940730  0.561586018
     0.049144600  0.196602608  0.657511637
     0.057315322  0.709646109  0.657706195
     0.543873381  0.204833690  0.658027732
     0.541402238  0.703360173  0.656667535
     0.212878871  0.450024598  0.658157702
     0.202527425  0.956051595  0.656695312
     0.697708094  0.465334137  0.657611999
     0.708431071  0.954641421  0.660357360
     0.451120796  0.294455085  0.655531078
     0.455369311  0.800098658  0.657593441
     0.955997768  0.286177593  0.658514157
     0.946966549  0.775465942  0.659516250
     0.295270159  0.046784272  0.656369319
     0.293186875  0.551480875  0.657445767
     0.797256523  0.048528355  0.657770112
     0.816604337  0.514304587  0.655652989
     0.045862501  0.204119496  0.752725994
     0.045862500  0.704119456  0.752725994
     0.545862507  0.204119496  0.752725994
     0.545862496  0.704119456  0.752725994
     0.204119002  0.454101003  0.752704994
     0.204118991  0.954100951  0.752704994
     0.704118976  0.454101003  0.752704994
     0.704118964  0.954100951  0.752704994
     0.454140018  0.295888490  0.752726971
     0.454140007  0.795888516  0.752726971
     0.954140018  0.295888490  0.752726971
     0.954140060  0.795888516  0.752726971
     0.295882492  0.045900498  0.752704994
     0.295882481  0.545900528  0.752704994
     0.795882439  0.045900498  0.752704994
     0.795882481  0.545900528  0.752704994
     0.772903345  0.546736949  0.544878880
     0.518248366  0.011009883  0.553320266
     0.489437588  0.494952381  0.552594840
     0.011288014  0.007586576  0.550223088
     0.024503471  0.499846464  0.554345007
     0.251470600  0.233326380  0.552917231
     0.253960384  0.762030881  0.552114885
     0.734924928  0.212491588  0.555818324
     0.699548868  0.796462216  0.555329945
     0.999124524  0.987704892  0.653754966
     0.012688663  0.499278308  0.655409227
     0.494785449  0.004109998  0.655155453
     0.500024841  0.494698424  0.654170210
     0.252248838  0.246291146  0.654690761
     0.253153501  0.754594113  0.654232722
     0.747351438  0.269451360  0.655060952
     0.747938643  0.740127965  0.654552671
     0.129801243  0.122154230  0.607184372
     0.151046383  0.608053139  0.607636977
     0.639047053  0.114403501  0.611632038
     0.631842954  0.618109517  0.606725356
     0.360805996  0.389711459  0.605484141
     0.369430986  0.886673955  0.607460489
     0.888454200  0.367619211  0.607684349
     0.867494156  0.882616504  0.606225928
     0.121554379  0.365901279  0.609097962
     0.123389242  0.875220180  0.606555217
     0.596761931  0.348082477  0.601415701
     0.617092887  0.867147833  0.614637645
     0.387666297  0.134388633  0.607279972
     0.385821566  0.635936609  0.609360832
     0.883510053  0.136531269  0.611006791
     0.895044551  0.639621096  0.613181665
     0.000000000  0.000000000  0.754927972
     0.000000000  0.500000000  0.754927972
     0.500000000  0.000000000  0.754927972
     0.499999989  0.500000000  0.754927972
     0.250000496  0.250000000  0.754939022
     0.250000511  0.749999974  0.754939022
     0.750000470  0.250000000  0.754939022
     0.750000458  0.749999974  0.754939022
     0.135790500  0.114209997  0.704782994
     0.135790502  0.614209984  0.704782994
     0.635790447  0.114209997  0.704782994
     0.635790488  0.614209984  0.704782994
     0.364209516  0.385789989  0.704782994
     0.364209505  0.885789963  0.704782994
     0.864209542  0.385789989  0.704782994
     0.864209531  0.885789963  0.704782994
     0.114217990  0.364218986  0.704780979
     0.114217992  0.864218986  0.704780979
     0.614218004  0.364218986  0.704780979
     0.614217992  0.864218986  0.704780979
     0.385782012  0.135781489  0.704782017
     0.385782001  0.635781489  0.704782017
     0.885781985  0.135781489  0.704782017
     0.885782027  0.635781489  0.704782017
     0.134667000  0.115332001  0.801256025
     0.134666989  0.615331988  0.801256025
     0.634666987  0.115332001  0.801256025
     0.634666976  0.615331988  0.801256025
     0.365333002  0.384667985  0.801256025
     0.365332990  0.884667959  0.801256025
     0.865332949  0.384667985  0.801256025
     0.865332938  0.884667959  0.801256025
     0.115328503  0.365337004  0.801264999
     0.115328505  0.865336978  0.801264999
     0.615328503  0.365337004  0.801264999
     0.615328492  0.865336978  0.801264999
     0.384671513  0.134662996  0.801264999
     0.384671501  0.634662970  0.801264999
     0.884671486  0.134662996  0.801264999
     0.884671528  0.634662970  0.801264999
     0.997913195  0.003802985  0.603778356
     0.005387594  0.504365420  0.604142015
     0.504696693  0.000881454  0.605449894
     0.502265925  0.498560840  0.603484718
     0.253451598  0.248621505  0.604265148
     0.251421387  0.753241700  0.603072709
     0.746674970  0.251022823  0.605084831
     0.743617503  0.755973136  0.603891416
     0.000000500  0.000000500  0.704828963
     0.000000500  0.500000475  0.704828963
     0.500000475  0.000000500  0.704828963
     0.500000464  0.500000475  0.704828963
     0.249999994  0.249999472  0.704824995
     0.250000010  0.749999498  0.704824995
     0.749999994  0.249999472  0.704824995
     0.749999983  0.749999498  0.704824995
     0.000000000  0.000000000  0.807317968
     0.000000000  0.500000000  0.807317968
     0.500000000  0.000000000  0.807317968
     0.499999989  0.500000000  0.807317968
     0.249999994  0.250000000  0.807317968
     0.250000010  0.749999974  0.807317968
     0.749999994  0.250000000  0.807317968
     0.749999983  0.749999974  0.807317968

  ion indices of the primitive-cell ions
   primitive index   ion index
                 1           1
                 2           2
                 3           3
                 4           4
                 5           5
                 6           6
                 7           7
                 8           8
                 9           9
                10          10
                11          11
                12          12
                13          13
                14          14
                15          15
                16          16
                17          17
                18          18
                19          19
                20          20
                21          21
                22          22
                23          23
                24          24
                25          25
                26          26
                27          27
                28          28
                29          29
                30          30
                31          31
                32          32
                33          33
                34          34
                35          35
                36          36
                37          37
                38          38
                39          39
                40          40
                41          41
                42          42
                43          43
                44          44
                45          45
                46          46
                47          47
                48          48
                49          49
                50          50
                51          51
                52          52
                53          53
                54          54
                55          55
                56          56
                57          57
                58          58
                59          59
                60          60
                61          61
                62          62
                63          63
                64          64
                65          65
                66          66
                67          67
                68          68
                69          69
                70          70
                71          71
                72          72
                73          73
                74          74
                75          75
                76          76
                77          77
                78          78
                79          79
                80          80
                81          81
                82          82
                83          83
                84          84
                85          85
                86          86
                87          87
                88          88
                89          89
                90          90
                91          91
                92          92
                93          93
                94          94
                95          95
                96          96
                97          97
                98          98
                99          99
               100         100
               101         101
               102         102
               103         103
               104         104
               105         105
               106         106
               107         107
               108         108
               109         109
               110         110
               111         111
               112         112
               113         113
               114         114
               115         115
               116         116
               117         117
               118         118
               119         119
               120         120
               121         121
               122         122
               123         123
               124         124
               125         125
               126         126
               127         127
               128         128
               129         129
               130         130
               131         131
               132         132
               133         133
               134         134
               135         135
               136         136
               137         137
               138         138
               139         139
               140         140
               141         141
               142         142
               143         143
               144         144
               145         145
               146         146
               147         147
               148         148
               149         149
               150         150
               151         151
               152         152
               153         153
               154         154
               155         155
               156         156
               157         157
               158         158
               159         159
               160         160
               161         161
               162         162
               163         163
               164         164
               165         165
               166         166
               167         167
               168         168
               169         169
               170         170
               171         171
               172         172
               173         173
               174         174
               175         175
               176         176
               177         177
               178         178
               179         179
               180         180
               181         181
               182         182
               183         183
               184         184
               185         185
               186         186
               187         187
               188         188
               189         189
               190         190
               191         191
               192         192
               193         193
               194         194
               195         195
               196         196
               197         197
               198         198
               199         199
               200         200
               201         201
               202         202
               203         203
               204         204
               205         205
               206         206
               207         207
               208         208
               209         209
               210         210
               211         211
               212         212
               213         213
               214         214
               215         215
               216         216
               217         217
               218         218
               219         219
               220         220
               221         221
               222         222
               223         223
               224         224
               225         225
               226         226
               227         227
               228         228
               229         229
               230         230
               231         231
               232         232
               233         233
               234         234
               235         235
               236         236
               237         237
               238         238
               239         239
               240         240
               241         241
               242         242
               243         243
               244         244
               245         245
               246         246
               247         247
               248         248
               249         249
               250         250
               251         251
               252         252
               253         253
               254         254
               255         255
               256         256
               257         257
               258         258
               259         259
               260         260
               261         261
               262         262
               263         263
               264         264
               265         265
               266         266
               267         267
               268         268
               269         269
               270         270
               271         271
               272         272
               273         273
               274         274
               275         275
               276         276
               277         277
               278         278
               279         279
               280         280
               281         281
               282         282
               283         283
               284         284
               285         285
               286         286
               287         287
               288         288
               289         289
               290         290
               291         291
               292         292
               293         293
               294         294
               295         295
               296         296
               297         297
               298         298
               299         299
               300         300
               301         301
               302         302
               303         303
               304         304
               305         305
               306         306
               307         307
               308         308
               309         309
               310         310
               311         311
               312         312
               313         313
               314         314
               315         315
               316         316
               317         317
               318         318
               319         319
               320         320
               321         321
               322         322
               323         323
               324         324
               325         325

----------------------------------------------------------------------------------------

 
 
 KPOINTS: Automatic Mesh                          

Automatic generation of k-mesh.
 Grid dimensions read from file:
 generate k-points for:    3    3    1

 Generating k-lattice:

  Cartesian coordinates                     Fractional coordinates (reciprocal lattice)
     0.018456177  0.000005026 -0.000000000     0.333333333  0.000000000  0.000000000
     0.000000000  0.018454135  0.000000000     0.000000000  0.333333333  0.000000000
     0.000000000 -0.000000000  0.016003201     0.000000000  0.000000000  1.000000000

  Length of vectors
     0.018456178  0.018454135  0.016003201

  Shift w.r.t. Gamma in fractional coordinates (k-lattice)
     0.000000000  0.000000000  0.000000000

 
 Subroutine IBZKPT returns following result:
 ===========================================
 
 Found      5 irreducible k-points:
 
 Following reciprocal coordinates:
            Coordinates               Weight
  0.000000  0.000000  0.000000      1.000000
  0.333333  0.000000  0.000000      2.000000
  0.000000  0.333333  0.000000      2.000000
  0.333333  0.333333  0.000000      2.000000
 -0.333333  0.333333  0.000000      2.000000
 
 Following cartesian coordinates:
            Coordinates               Weight
  0.000000  0.000000  0.000000      1.000000
  0.018456  0.000005  0.000000      2.000000
  0.000000  0.018454  0.000000      2.000000
  0.018456  0.018459  0.000000      2.000000
 -0.018456  0.018449  0.000000      2.000000
 


--------------------------------------------------------------------------------------------------------




 Dimension of arrays:
   k-points           NKPTS =      5   k-points in BZ     NKDIM =      5   number of bands    NBANDS=    732
   number of dos      NEDOS =    301   number of ions     NIONS =    325
   non local maximal  LDIM  =      5   non local SUM 2l+1 LMDIM =     13
   total plane-waves  NPLWV = ******
   max r-space proj   IRMAX =   3336   max aug-charges    IRDMAX=  19845
   dimension x,y,z NGX =   100 NGY =  100 NGZ =  350
   dimension x,y,z NGXF=   200 NGYF=  200 NGZF=  700
   support grid    NGXF=   200 NGYF=  200 NGZF=  700
   ions per type =             143  39  47  72  24
   NGX,Y,Z   is equivalent  to a cutoff of   9.20,  9.20,  9.31 a.u.
   NGXF,Y,Z  is equivalent  to a cutoff of  18.41, 18.41, 18.62 a.u.

 SYSTEM =  PSC                                     
 POSCAR =   H  C  N  I Pb                          

 Startparameter for this run:
   NWRITE =      2    write-flag & timer
   PREC   = normal    normal or accurate (medium, high low for compatibility)
   ISTART =      0    job   : 0-new  1-cont  2-samecut
   ICHARG =      1    charge: 1-file 2-atom 10-const
   ISPIN  =      1    spin polarized calculation?
   LNONCOLLINEAR =      F non collinear calculations
   LSORBIT =      F    spin-orbit coupling
   INIWAV =      1    electr: 0-lowe 1-rand  2-diag
   LASPH  =      F    aspherical Exc in radial PAW
 Electronic Relaxation 1
   ENCUT  =  500.0 eV  36.75 Ry    6.06 a.u.  32.93 32.93113.93*2*pi/ulx,y,z
   ENINI  =  500.0     initial cutoff
   ENAUG  =  644.9 eV  augmentation charge cutoff
   NELM   =    600;   NELMIN=  2; NELMDL=  0     # of ELM steps 
   EDIFF  = 0.1E-03   stopping-criterion for ELM
   LREAL  =      T    real-space projection
   NLSPLINE    = F    spline interpolate recip. space projectors
   LCOMPAT=      F    compatible to vasp.4.4
   GGA_COMPAT  = F    GGA compatible to vasp.4.4-vasp.4.6
   LMAXPAW     = -100 max onsite density
   LMAXMIX     =    2 max onsite mixed and CHGCAR
   VOSKOWN=      0    Vosko Wilk Nusair interpolation
   ROPT   =   -0.00050  -0.00050  -0.00050  -0.00050
   ROPT   =   -0.00050
 Ionic relaxation
   EDIFFG = 0.1E-02   stopping-criterion for IOM
   NSW    =      0    number of steps for IOM
   NBLOCK =      1;   KBLOCK =      1    inner block; outer block 
   IBRION =     -1    ionic relax: 0-MD 1-quasi-New 2-CG
   NFREE  =      0    steps in history (QN), initial steepest desc. (CG)
   ISIF   =      2    stress and relaxation
   IWAVPR =     10    prediction:  0-non 1-charg 2-wave 3-comb
   ISYM   =      0    0-nonsym 1-usesym 2-fastsym
   LCORR  =      T    Harris-Foulkes like correction to forces

   POTIM  = 0.5000    time-step for ionic-motion
   TEIN   =    0.0    initial temperature
   TEBEG  =    0.0;   TEEND  =   0.0 temperature during run
   SMASS  =  -3.00    Nose mass-parameter (am)
   estimated Nose-frequenzy (Omega)   =  0.10E-29 period in steps = 0.13E+47 mass=  -0.745E-26a.u.
   SCALEE = 1.0000    scale energy and forces
   NPACO  =    256;   APACO  = 16.0  distance and # of slots for P.C.
   PSTRESS=    0.0 pullay stress

  Mass of Ions in am
   POMASS =   1.00 12.01 14.00126.90207.20
  Ionic Valenz
   ZVAL   =   1.00  4.00  5.00  7.00  4.00
  Atomic Wigner-Seitz radii
   RWIGS  =  -1.00 -1.00 -1.00 -1.00 -1.00
  virtual crystal weights 
   VCA    =   1.00  1.00  1.00  1.00  1.00
   NELECT =    1134.0000    total number of electrons
   NUPDOWN=      -1.0000    fix difference up-down

 DOS related values:
   EMIN   =  10.00;   EMAX   =-10.00  energy-range for DOS
   EFERMI =   0.00
   ISMEAR =     0;   SIGMA  =   0.05  broadening in eV -4-tet -1-fermi 0-gaus

 Electronic relaxation 2 (details)
   IALGO  =     38    algorithm
   LDIAG  =      T    sub-space diagonalisation (order eigenvalues)
   LSUBROT=      F    optimize rotation matrix (better conditioning)
   TURBO    =      0    0=normal 1=particle mesh
   IRESTART =      0    0=no restart 2=restart with 2 vectors
   NREBOOT  =      0    no. of reboots
   NMIN     =      0    reboot dimension
   EREF     =   0.00    reference energy to select bands
   IMIX   =      4    mixing-type and parameters
     AMIX     =   0.40;   BMIX     =  0.01
     AMIX_MAG =   1.60;   BMIX_MAG =  0.01
     AMIN     =   0.01
     WC   =   100.;   INIMIX=   1;  MIXPRE=   1;  MAXMIX= -45

 Intra band minimization:
   WEIMIN = 0.0000     energy-eigenvalue tresh-hold
   EBREAK =  0.34E-07  absolut break condition
   DEPER  =   0.30     relativ break condition  

   TIME   =   0.40     timestep for ELM

  volume/ion in A,a.u.               =      62.72       423.28
  Fermi-wavevector in a.u.,A,eV,Ry     =   0.624944  1.180972  5.313816  0.390554
  Thomas-Fermi vector in A             =   1.685677
 
 Write flags
   LWAVE        =      F    write WAVECAR
   LDOWNSAMPLE  =      F    k-point downsampling of WAVECAR
   LCHARG       =      T    write CHGCAR
   LVTOT        =      T    write LOCPOT, total local potential
   LVHAR        =      F    write LOCPOT, Hartree potential only
   LELF         =      F    write electronic localiz. function (ELF)
   LORBIT       =      0    0 simple, 1 ext, 2 COOP (PROOUT), +10 PAW based schemes


 Dipole corrections
   LMONO  =      F    monopole corrections only (constant potential shift)
   LDIPOL =      T    correct potential (dipole corrections)
   IDIPOL =      3    1-x, 2-y, 3-z, 4-all directions 
   EPSILON=  1.0000000 bulk dielectric constant

 Exchange correlation treatment:
   GGA     =    --    GGA type
   LEXCH   =     8    internal setting for exchange type
   VOSKOWN=      0    Vosko Wilk Nusair interpolation
   LHFCALC =     F    Hartree Fock is set to
   LHFONE  =     F    Hartree Fock one center treatment
   AEXX    =    0.0000 exact exchange contribution

 Linear response parameters
   LEPSILON=     F    determine dielectric tensor
   LRPA    =     F    only Hartree local field effects (RPA)
   LNABLA  =     F    use nabla operator in PAW spheres
   LVEL    =     F    velocity operator in full k-point grid
   LINTERFAST=   F  fast interpolation
   KINTER  =     0    interpolate to denser k-point grid
   CSHIFT  =0.1000    complex shift for real part using Kramers Kronig
   OMEGAMAX=  -1.0    maximum frequency
   DEG_THRESHOLD= 0.2000000E-02 threshold for treating states as degnerate
   RTIME   =   -0.100 relaxation time in fs
  (WPLASMAI=    0.000 imaginary part of plasma frequency in eV, 0.658/RTIME)
   DFIELD  = 0.0000000 0.0000000 0.0000000 field for delta impulse in time
 
 Orbital magnetization related:
   ORBITALMAG=     F  switch on orbital magnetization
   LCHIMAG   =     F  perturbation theory with respect to B field
   DQ        =  0.001000  dq finite difference perturbation B field
   LLRAUG    =     F  two centre corrections for induced B field



--------------------------------------------------------------------------------------------------------


 Static calculation
 charge density and potential will be updated during run
 non-spin polarized calculation
 Variant of blocked Davidson
 Davidson routine will perform the subspace rotation
 perform sub-space diagonalisation
    after iterative eigenvector-optimisation
 modified Broyden-mixing scheme, WC =      100.0
 initial mixing is a Kerker type mixing with AMIX =  0.4000 and BMIX =      0.0100
 Hartree-type preconditioning will be used
 using additional bands           165
 real space projection scheme for non local part
[...]
     13.54561      0.00000     45.35368         0.005127     -0.006818      0.013548
     13.54315      9.03140     45.35368        -0.006284      0.001157     -0.013843
     13.00411      8.03219     33.67138         0.003603      0.040751     -0.008322
     13.39548      8.96921     32.23569         0.011427      0.027715     -0.067184
     11.97330      9.98639     34.74730        -0.063145      0.005295      0.010935
     12.82083     11.54089     34.66170        -0.012775     -0.005588     -0.012714
     15.41433      9.20007     35.44086        -0.039798      0.014695     -0.032223
     14.32560     10.46164     36.03386        -0.013335     -0.022935      0.030116
     15.86473     10.10521     33.16848        -0.024079      0.029179      0.053361
     14.60296     11.18107     32.52714         0.001538     -0.025248      0.002106
     15.76232      8.33532     32.33918         0.030833      0.029230     -0.005107
     15.58075      7.68725     33.96388        -0.005656     -0.040972     -0.103398
     15.76586      5.88531     32.40527        -0.046613      0.026626     -0.025837
     14.16109      5.85058     33.10944        -0.025462     -0.023512      0.077363
     11.53032      9.97786     32.33585         0.012133      0.022050     -0.048596
     12.56085     11.42647     32.07653        -0.013736     -0.009425      0.042517
     11.07164     11.53533     33.01730         0.061481      0.008287     -0.003920
     13.79384      8.42735     37.18350        -0.083162     -0.015416      0.018317
     13.63195      7.47229     35.71074        -0.005897      0.019560     -0.000557
     12.41702      8.71936     36.11233         0.139391     -0.032737      0.033180
     14.78246     12.50009     34.77598         0.026421      0.005367     -0.044285
     16.19386     12.52092     33.71098        -0.030407      0.005244      0.024306
     16.21520     11.46633     35.13232        -0.068350      0.019205     -0.000722
     14.81300      6.87348     30.29919         0.131389      0.114050     -0.183612
     14.20749      5.27193     30.70165         0.002964     -0.034335      0.001149
     11.96380      5.46387     32.37749        -0.046111      0.090184     -0.044693
     13.22799      8.32226     29.40978        -0.039146     -0.016196      0.011011
      9.66379      6.39283     32.28700        -0.041557      0.003893      0.005331
     10.91972      9.22807     29.29004        -0.015222     -0.050407      0.063619
      9.13143      8.29621     30.76830         0.053850     -0.053886     -0.018690
     17.97754      4.34662     34.63117         0.124005      0.124472      0.368322
      0.59411     13.90613     35.24125        -0.019508      0.119598     -0.055164
      8.43204      4.10423     34.80475        -0.230088     -0.111803      0.047844
      9.05598     13.67444     34.69489         0.048275     -0.180450     -0.039629
      4.23386      9.62392     34.94246         0.010384     -0.128713     -0.047117
      4.79254     17.90962     34.82948         0.241555      0.018149      0.057700
     14.06754     17.75902     35.15867        -0.175673      0.008138     -0.042493
      0.08510      4.42144     40.52683         0.005141      0.039021     -0.099261
      0.29150     13.86628     40.83893        -0.275305      0.167140     -0.044207
      9.02528      4.49134     40.44405        -0.159552      0.205761     -0.053474
      8.97526     13.57911     40.47086         0.025886     -0.019571     -0.005624
      4.59967      9.00398     40.51239        -0.017440      0.056993      0.027244
      4.49123      0.02658     40.43232        -0.177571     -0.127324     -0.029026
     13.44166      9.37320     40.81714         0.159915     -0.402136      0.086734
     13.57879     18.04950     40.59028        -0.112711     -0.079996      0.017529
      9.02897      4.51561     46.44552         0.009174      0.007491      0.020421
      9.02651     13.54701     46.44552         0.021031     -0.005002      0.037020
     18.05937      4.51561     46.44552         0.015285      0.005881      0.035830
     18.05691     13.54701     46.44552         0.017078      0.001122     -0.000543
      4.51521      0.00002     46.44421        -0.002561     -0.005535      0.048175
      4.51275      9.03142     46.44421        -0.006514     -0.006448      0.038043
     13.54561      0.00002     46.44421        -0.013302     -0.015314      0.034796
     13.54315      9.03142     46.44421        -0.010360     -0.005752      0.012720
     12.76362      6.84150     30.90698        -0.107431     -0.092454      0.079117
     11.73482      6.29608     31.70206         0.135417     -0.025446     -0.079049
     12.44364      7.89165     30.03949        -0.132315      0.069951     -0.047423
     10.43942      6.81240     31.64696         0.110140     -0.031899     -0.010405
     11.13894      8.40530     29.97635         0.285561      0.057941     -0.158527
     10.13985      7.87597     30.78717        -0.195433     -0.028013      0.128795
     13.79294      8.62714     33.19290        -0.050356      0.125496      0.056865
     12.62072     10.60673     34.12169         0.085909      0.030029     -0.058237
     14.36251      9.51918     35.47562        -0.095604      0.000224     -0.063658
     15.03844     10.76973     33.44712        -0.122394     -0.034522     -0.207998
     15.05930      7.80816     32.99953         0.088666     -0.007496     -0.022525
     14.79831      6.41600     32.41893        -0.009169     -0.138334     -0.053006
     11.93199     10.88671     32.79853        -0.003579     -0.014495     -0.001324
     13.48842      8.47627     36.13208        -0.026972     -0.046964     -0.021354
     15.57094     11.87088     34.34229         0.024830     -0.048400     -0.027636
     14.18320      6.32902     31.00946        -0.077796      0.054950      0.185662
      1.04676      4.70191     35.20010         0.006537      0.167018     -0.056680
      0.53524     12.81514     35.95858        -0.165755     -0.119614      0.137008
      9.67214      3.79665     35.08671         0.064518      0.086026     -0.039394
      8.69987     12.49180     35.13702        -0.045898     -0.134540      0.030270
      7.90097      5.30420     34.84125        -0.021658     -0.018766     -0.014089
      8.56802     14.80404     35.14067         0.018194      0.258435      0.031013
     16.79288      4.56212     35.16051         0.085688      0.145546     -0.230051
     17.67441     14.78145     35.13384        -0.031034     -0.012357     -0.035845
      4.13105      8.38370     35.37136         0.401492      0.202247     -0.080146
      3.59244      0.19104     35.20830        -0.027046      0.081250     -0.016449
     12.82081     17.80227     35.57459         0.289719      0.198727      0.017770
      5.87558      0.55594     35.08607        -0.464183      0.155497      0.058053
      5.35808     10.24966     34.67751        -0.181926      0.050266     -0.038501
     14.88417      0.72144     35.09211        -0.149771      0.154043     -0.023014
      0.88662      3.55119     41.08626         0.233751     -0.241100      0.131572
      1.03167     12.81820     41.09842         0.200634     -0.160211      0.063287
      9.82178      3.69987     41.11851         0.096196     -0.080849      0.057835
      9.77470     12.70465     41.03351         0.041372      0.009171      0.594375
      3.84255      8.12870     41.12663        -0.065400     -0.038617      0.346858
      3.65310     17.26897     41.03525         0.251936      0.219518      0.163126
     12.59888      8.40524     41.09253        -0.051685      0.005987     -0.011801
     12.79014     17.24350     41.26408         0.104234      0.122068      0.220093
      8.14615      5.31868     40.96250        -0.007170     -0.019319     -0.018921
      8.22040     14.45202     41.09137        -0.106238      0.089522      0.113961
     17.26468      5.16917     41.14890        -0.087052      0.096893     -0.074030
     17.09916     14.00709     41.21152        -0.049671     -0.068130      0.062930
      5.33259      0.84505     41.01488         0.011962      0.032471      0.079164
      5.29248      9.96129     41.08214         0.176901      0.215024      0.080654
     14.39885      0.87656     41.10241         0.095779      0.059328     -0.033107
     14.74600      9.28978     40.97012        -0.031038      0.010415      0.037881
      0.82731      3.68697     47.03596         0.017929     -0.026687     -0.087858
      0.82485     12.71837     47.03596         0.024341     -0.023404     -0.065329
      9.85771      3.68697     47.03596         0.024534     -0.029817     -0.076554
      9.85525     12.71837     47.03596         0.013380     -0.016690     -0.076957
      3.68432      8.20234     47.03465        -0.006181     -0.010515     -0.063548
      3.68186     17.23373     47.03465        -0.009949     -0.005492     -0.063184
     12.71472      8.20234     47.03465        -0.005932     -0.010679     -0.050795
     12.71226     17.23373     47.03465        -0.008342     -0.002864     -0.073169
      8.20068      5.34457     47.03603        -0.022555      0.016759     -0.080177
      8.19822     14.37597     47.03603        -0.025295      0.023794     -0.082243
     17.23108      5.34457     47.03603        -0.027082      0.017935     -0.099194
     17.22862     14.37597     47.03603        -0.022470      0.026995     -0.064719
      5.34365      0.82909     47.03465         0.012120      0.013805     -0.066611
      5.34119      9.86049     47.03465         0.018334      0.015356     -0.061650
     14.37405      0.82909     47.03465         0.022930      0.024810     -0.068025
     14.37159      9.86049     47.03465         0.022454      0.020967     -0.063324
     13.95656      9.87560     34.04812         0.168967     -0.043678      0.050143
      9.35993      0.19887     34.57560         0.016579      0.008760     -0.009338
      8.83720      8.94023     34.53027        -0.012807      0.039688      0.014679
      0.20383      0.13703     34.38206        -0.020273      0.016047      0.009759
      0.44009      9.02863     34.63963         0.002033     -0.008522      0.027658
      4.54061      4.21453     34.55042        -0.015835      0.004409      0.001657
      4.58298     13.76441     34.50028        -0.017102      0.011945      0.053807
     13.27229      3.83819     34.73170         0.008223     -0.031361     -0.013551
     12.63050     14.38634     34.70118         0.032194     -0.020962     -0.010511
     18.04013     17.84072     40.85151        -0.020252     -0.014505     -0.000200
      0.22671      9.01836     40.95488         0.014224      0.003109     -0.039299
      8.93620      0.07424     40.93903         0.014935     -0.004349     -0.027962
      9.02842      8.93564     40.87746         0.016994      0.025170     -0.015130
      4.55460      4.44871     40.90999         0.001427      0.010498     -0.022946
      4.56844     13.63008     40.88137        -0.032629     -0.002679     -0.003865
     13.49644      4.86705     40.93312         0.002338     -0.019680      0.000159
     13.50473     13.36878     40.90136         0.003796     -0.008355     -0.013306
      2.34371      2.20645     37.94143         0.002921     -0.004866      0.016074
      2.72503     10.98314     37.96972        -0.004773     -0.025323     -0.015368
     11.54114      2.06645     38.21936        -0.007129      0.003548      0.010546
     11.40855     11.16479     37.91275        -0.021026      0.017480      0.019039
      6.51453      7.03928     37.83519         0.024728     -0.019227     -0.020393
      6.66786     16.01581     37.95869         0.003848     -0.046002     -0.013837
     16.04439      6.64023     37.97268         0.033370      0.011398      0.014528
     15.66330     15.94252     37.88154        -0.024246     -0.027154     -0.000517
      2.19357      6.60920     38.06101         0.015364     -0.010933     -0.031443
      2.22420     15.80893     37.90212        -0.000712      0.007689     -0.007806
     10.77629      6.28734     37.58096         0.015777      0.023403     -0.033790
     11.14093     15.66312     38.40717        -0.014838      0.009150     -0.009692
      7.00090      2.42743     37.94741         0.008187      0.013483     -0.001112
      6.96512     11.48680     38.07743         0.002470     -0.019926     -0.051700
     15.95623      2.46614     38.18029        -0.017543     -0.044221     -0.004680
     16.16208     11.55335     38.31619        -0.056220      0.038838     -0.151192
      0.00000      0.00000     47.17356        -0.000780      0.006385      0.337094
     -0.00246      9.03140     47.17356        -0.002280     -0.003503      0.478034
      9.03040      0.00000     47.17356         0.001543      0.000843      0.424613
      9.02794      9.03140     47.17356        -0.003401      0.000942      0.391483
      4.51398      4.51570     47.17425        -0.001140     -0.004562      0.419751
      4.51152     13.54710     47.17425         0.003786      0.001044      0.402925
     13.54438      4.51570     47.17425         0.007388     -0.000711      0.401910
     13.54192     13.54710     47.17425        -0.002331     -0.001394      0.412962
      2.45192      2.06295     44.04013        -0.012841     -0.026471     -0.040369
      2.44946     11.09435     44.04013         0.055990     -0.025548     -0.018721
     11.48232      2.06295     44.04013         0.025961      0.011086     -0.066717
     11.47986     11.09435     44.04013        -0.084928      0.042551     -0.043371
      6.57602      6.96845     44.04013         0.006677     -0.034932     -0.071590
      6.57356     15.99985     44.04013         0.015261      0.007388     -0.033544
     15.60642      6.96845     44.04013         0.022572     -0.025286     -0.084684
     15.60396     15.99985     44.04013        -0.039384      0.046568     -0.034175
      2.06108      6.57881     44.04000         0.039641     -0.023328     -0.025433
      2.05862     15.61021     44.04000         0.048766      0.066211     -0.031603
     11.09148      6.57881     44.04000        -0.027354     -0.034546     -0.000115
     11.08902     15.61021     44.04000        -0.033279     -0.007244     -0.030188
      6.96686      2.45259     44.04007        -0.014275     -0.009194     -0.045997
      6.96440     11.48399     44.04007        -0.011732      0.005567     -0.060274
     15.99726      2.45259     44.04007         0.019620      0.018223     -0.083818
     15.99481     11.48399     44.04007         0.038941      0.030328     -0.109499
      2.43163      2.08322     50.06849         0.003376     -0.016284      0.023290
      2.42917     11.11462     50.06849         0.016728     -0.005567      0.026852
     11.46203      2.08322     50.06849         0.012730     -0.008898      0.024351
     11.45957     11.11462     50.06849         0.008154     -0.011593      0.025693
      6.59631      6.94818     50.06849        -0.010737      0.009231      0.025489
      6.59385     15.97958     50.06849        -0.008941      0.011402      0.024671
     15.62671      6.94818     50.06849        -0.015970      0.001237      0.023600
     15.62425     15.97958     50.06849        -0.003846      0.019534      0.026613
      2.08113      6.59901     50.06905        -0.004632     -0.017083      0.025151
      2.07867     15.63041     50.06905        -0.015964     -0.001879      0.025395
     11.11153      6.59901     50.06905        -0.008563     -0.012729      0.026228
     11.10907     15.63041     50.06905        -0.010824     -0.008275      0.024611
      6.94681      2.43239     50.06905         0.010349      0.008989      0.024699
      6.94435     11.46379     50.06905         0.010494      0.010245      0.025821
     15.97721      2.43239     50.06905         0.015459      0.005241      0.023640
     15.97475     11.46379     50.06905         0.005125      0.013915      0.026905
     18.02309      0.06869     37.72860         0.002577      0.002970      0.006321
      0.09482      9.11025     37.75132         0.027706     -0.020589      0.028206
      9.11522      0.01592     37.83305         0.006902      0.017171     -0.001727
      9.06887      9.00540     37.71025        -0.022778     -0.019404     -0.007159
      4.57632      4.49080     37.75902        -0.036876      0.044295      0.001083
      4.53717     13.60565     37.68451        -0.022721     -0.001989     -0.042547
     13.48431      4.53417     37.81024         0.005043      0.012694      0.017485
     13.42661     13.65499     37.73566        -0.017100      0.015974     -0.016420
      0.00001      0.00001     44.04300        -0.008687     -0.137761      0.086356
     -0.00245      9.03141     44.04300         0.046368      0.022928      0.184057
      9.03041      0.00001     44.04300        -0.003915     -0.011759      0.188015
      9.02795      9.03141     44.04300         0.069326     -0.024605      0.147621
      4.51397      4.51569     44.04275         0.002853      0.049188      0.130645
      4.51151     13.54709     44.04275        -0.056088      0.005491      0.120985
     13.54437      4.51569     44.04275        -0.113232      0.044041      0.213325
     13.54191     13.54709     44.04275         0.006466     -0.007203      0.135454
      0.00000      0.00000     50.44728         0.000081     -0.004602     -0.609633
     -0.00246      9.03140     50.44728         0.000755      0.004081     -0.648568
      9.03040      0.00000     50.44728        -0.000746     -0.001830     -0.632726
      9.02794      9.03140     50.44728         0.000490      0.001847     -0.628611
      4.51397      4.51570     50.44728         0.001670      0.008176     -0.632235
      4.51151     13.54710     50.44728         0.000425     -0.008795     -0.630851
     13.54437      4.51570     50.44728        -0.002456      0.008703     -0.626693
     13.54191     13.54710     50.44728         0.001185     -0.008647     -0.634646
 -----------------------------------------------------------------------------------
    total drift:                               -0.056507      0.039352      0.701173


--------------------------------------------------------------------------------------------------------



  FREE ENERGIE OF THE ION-ELECTRON SYSTEM (eV)
  ---------------------------------------------------
  free  energy   TOTEN  =     -1576.20659626 eV

  energy  without entropy=    -1576.20659626  energy(sigma->0) =    -1576.20659626
 


--------------------------------------------------------------------------------------------------------


    POTLOK:  cpu time    0.5028: real time    0.5027


--------------------------------------------------------------------------------------------------------


     LOOP+:  cpu time  265.2644: real time  265.5759
 vacuum level on the upper side and lower side of the slab         2.335         1.511
    4ORBIT:  cpu time    0.0000: real time    0.0000

 total amount of memory used by VASP MPI-rank0  8653576. kBytes
=======================================================================

   base      :      30000. kBytes
   nonlr-proj:      53614. kBytes
   fftplans  :     249280. kBytes
   grid      :     701440. kBytes
   one-center:       2636. kBytes
   wavefun   :    7616606. kBytes
 
  
  
 General timing and accounting informations for this job:
 ========================================================
  
                  Total CPU time used (sec):      477.154
                            User time (sec):      389.995
                          System time (sec):       87.159
                         Elapsed time (sec):      479.435
  
                   Maximum memory used (kb):    10313176.
                   Average memory used (kb):          N/A
  
                          Minor page faults:      3544447
                          Major page faults:           12
                 Voluntary context switches:        10620
