 vasp.6.2.1 16May21 (build Nov 15 2021 14:57:28) complex                         
 executed on             LinuxPGI date 2023.07.30  21:02:04
 running on    4 total cores
 distrk:  each k-point on    4 cores,    1 groups
 distr:  one band on NCORE=   1 cores,    4 groups


--------------------------------------------------------------------------------------------------------


 INCAR:
   SYSTEM = PSC
   ISTART = 1
   ICHARG = 1
   PREC = Normal
   ENCUT = 500
   GGA_COMPAT = F
   NELM = 600
   ISYM = 0
   LREAL = Auto
   ISMEAR = 0
   SIGMA = 0.05
   AMIN = 0.01
   BMIX = 0.01
   LVTOT = T
   LWAVE = F
   LDIPOL = T
   IDIPOL = 3
   LVDW = T
   IVDW = 12

 POTCAR:    PAW_PBE H 15Jun2001                   
 POTCAR:    PAW_PBE C 08Apr2002                   
 POTCAR:    PAW_PBE N 08Apr2002                   
 POTCAR:    PAW_PBE I 08Apr2002                   
 POTCAR:    PAW_PBE Pb 08Apr2002                  
 WARNING: For LVTOT=.TRUE., VASP.5.x writes the TOTAL local potential to the
     file LOCPOT. If you want only the Hartree contributions, use LVHAR=.TRUE.
     instead. 

 POTCAR:    PAW_PBE H 15Jun2001                   
   SHA256 =  030f79b5d3ab3cf0e668861823c8fb652ff669f3e15e46930bd03bfd63a607b6 H/POTCAR              
   COPYR  = (c) Copyright 15Jun2001 Georg Kresse                                                    
   COPYR  = This file is part of the software VASP. Any use, copying, and all other rights are regul
   COPYR  = If you do not have a valid VASP license, you may not use, copy or distribute this file. 
   VRHFIN =H: ultrasoft test                                                                        
   LEXCH  = PE                                                                                      
   EATOM  =    12.4884 eV,    0.9179 Ry                                                             
                                                                                                    
   TITEL  = PAW_PBE H 15Jun2001                                                                     
   LULTRA =        F    use ultrasoft PP ?                                                          
   IUNSCR =        0    unscreen: 0-lin 1-nonlin 2-no                                               
   RPACOR =    0.000    partial core radius                                                         
   POMASS =    1.000; ZVAL   =    1.000    mass and valenz                                          
   RCORE  =    1.100    outmost cutoff radius                                                       
   RWIGS  =    0.700; RWIGS  =    0.370    wigner-seitz radius (au A)                               
   ENMAX  =  250.000; ENMIN  =  200.000 eV                                                          
   RCLOC  =    0.701    cutoff for local pot                                                        
   LCOR   =        T    correct aug charges                                                         
   LPAW   =        T    paw PP                                                                      
   EAUG   =  400.000                                                                                
   RMAX   =    1.123    core radius for proj-oper                                                   
   RAUG   =    1.200    factor for augmentation sphere                                              
   RDEP   =    1.112    radius for radial grids                                                     
   RDEPT  =    0.926    core radius for aug-charge                                                  
                                                                                                    
   Atomic configuration                                                                             
    2 entries                                                                                       
     n  l   j            E        occ.                                                              
     1  0  0.50        -6.4927   1.0000                                                             
     2  1  0.50        -3.4015   0.0000                                                             
   Description                                                                                      
     l       E           TYP  RCUT    TYP  RCUT                                                     
     0     -6.4927494     23  1.100                                                                 
     0      6.8029130     23  1.100                                                                 
     1     -4.0817478     23  1.100                                                                 
  local pseudopotential read in
  atomic valenz-charges read in
  non local Contribution for L=            0  read in
    real space projection operators read in
  non local Contribution for L=            0  read in
    real space projection operators read in
  non local Contribution for L=            1  read in
    real space projection operators read in
    PAW grid and wavefunctions read in
 
   number of l-projection  operators is LMAX  =            3
   number of lm-projection operators is LMMAX =            5
 
 POTCAR:    PAW_PBE C 08Apr2002                   
   SHA256 =  253f7b50bb8d59471dbedb8285d89021f4a42ed1a2c5d38a03a736e69125dd95 C/POTCAR              
   COPYR  = (c) Copyright 08Apr2002 Georg Kresse                                                    
   COPYR  = This file is part of the software VASP. Any use, copying, and all other rights are regul
   COPYR  = If you do not have a valid VASP license, you may not use, copy or distribute this file. 
   VRHFIN =C: s2p2                                                                                  
   LEXCH  = PE                                                                                      
   EATOM  =   147.1560 eV,   10.8157 Ry                                                             
                                                                                                    
   TITEL  = PAW_PBE C 08Apr2002                                                                     
   LULTRA =        F    use ultrasoft PP ?                                                          
   IUNSCR =        1    unscreen: 0-lin 1-nonlin 2-no                                               
   RPACOR =    1.200    partial core radius                                                         
   POMASS =   12.011; ZVAL   =    4.000    mass and valenz                                          
   RCORE  =    1.500    outmost cutoff radius                                                       
   RWIGS  =    1.630; RWIGS  =    0.863    wigner-seitz radius (au A)                               
   ENMAX  =  400.000; ENMIN  =  300.000 eV                                                          
   ICORE  =        2    local potential                                                             
   LCOR   =        T    correct aug charges                                                         
   LPAW   =        T    paw PP                                                                      
   EAUG   =  644.873                                                                                
   DEXC   =    0.000                                                                                
   RMAX   =    1.529    core radius for proj-oper                                                   
   RAUG   =    1.300    factor for augmentation sphere                                              
   RDEP   =    1.501    radius for radial grids                                                     
   RDEPT  =    1.300    core radius for aug-charge                                                  
                                                                                                    
   Atomic configuration                                                                             
    4 entries                                                                                       
     n  l   j            E        occ.                                                              
     1  0  0.50      -273.3789   2.0000                                                             
     2  0  0.50       -13.7508   2.0000                                                             
     2  1  0.50        -5.2854   2.0000                                                             
     3  2  1.50        -5.4423   0.0000                                                             
   Description                                                                                      
     l       E           TYP  RCUT    TYP  RCUT                                                     
     0    -13.7508458     23  1.200                                                                 
     0     -8.2022199     23  1.200                                                                 
     1     -5.2854383     23  1.500                                                                 
     1     34.0145650     23  1.500                                                                 
     2     -5.4423304      7  1.500                                                                 
  local pseudopotential read in
  partial core-charges read in
  partial kinetic energy density read in
  atomic valenz-charges read in
  non local Contribution for L=            0  read in
    real space projection operators read in
  non local Contribution for L=            0  read in
    real space projection operators read in
  non local Contribution for L=            1  read in
    real space projection operators read in
  non local Contribution for L=            1  read in
    real space projection operators read in
    PAW grid and wavefunctions read in
 
   number of l-projection  operators is LMAX  =            4
   number of lm-projection operators is LMMAX =            8
 
 POTCAR:    PAW_PBE N 08Apr2002                   
   SHA256 =  e053789ff3a61a86a1b75d8a110fcc91f86041011e7b0817c7c99e4e8a6349d7 N/POTCAR              
   COPYR  = (c) Copyright 08Apr2002 Georg Kresse                                                    
   COPYR  = This file is part of the software VASP. Any use, copying, and all other rights are regul
   COPYR  = If you do not have a valid VASP license, you may not use, copy or distribute this file. 
   VRHFIN =N: s2p3                                                                                  
   LEXCH  = PE                                                                                      
   EATOM  =   264.5486 eV,   19.4438 Ry                                                             
                                                                                                    
   TITEL  = PAW_PBE N 08Apr2002                                                                     
   LULTRA =        F    use ultrasoft PP ?                                                          
   IUNSCR =        1    unscreen: 0-lin 1-nonlin 2-no                                               
   RPACOR =    1.200    partial core radius                                                         
   POMASS =   14.001; ZVAL   =    5.000    mass and valenz                                          
   RCORE  =    1.500    outmost cutoff radius                                                       
   RWIGS  =    1.400; RWIGS  =    0.741    wigner-seitz radius (au A)                               
   ENMAX  =  400.000; ENMIN  =  300.000 eV                                                          
   ICORE  =        2    local potential                                                             
   LCOR   =        T    correct aug charges                                                         
   LPAW   =        T    paw PP                                                                      
   EAUG   =  627.112                                                                                
   DEXC   =    0.000                                                                                
   RMAX   =    1.529    core radius for proj-oper                                                   
   RAUG   =    1.300    factor for augmentation sphere                                              
   RDEP   =    1.514    radius for radial grids                                                     
   RDEPT  =    1.338    core radius for aug-charge                                                  
                                                                                                    
   Atomic configuration                                                                             
    4 entries                                                                                       
     n  l   j            E        occ.                                                              
     1  0  0.50      -384.7179   2.0000                                                             
     2  0  0.50       -18.5828   2.0000                                                             
     2  1  0.50        -7.0898   3.0000                                                             
     3  2  1.50        -6.8029   0.0000                                                             
   Description                                                                                      
     l       E           TYP  RCUT    TYP  RCUT                                                     
     0    -18.5828119     23  1.200                                                                 
     0    -13.5018863     23  1.200                                                                 
     1     -7.0897853     23  1.500                                                                 
     1      9.5240782     23  1.500                                                                 
     2     -6.8029130      7  1.500                                                                 
  local pseudopotential read in
  partial core-charges read in
  partial kinetic energy density read in
  atomic valenz-charges read in
  non local Contribution for L=            0  read in
    real space projection operators read in
  non local Contribution for L=            0  read in
    real space projection operators read in
  non local Contribution for L=            1  read in
    real space projection operators read in
  non local Contribution for L=            1  read in
    real space projection operators read in
    PAW grid and wavefunctions read in
 
   number of l-projection  operators is LMAX  =            4
   number of lm-projection operators is LMMAX =            8
 
 POTCAR:    PAW_PBE I 08Apr2002                   
   SHA256 =  e40f3f59b681c1fc3e3091736183c4589116986673d2b852a5012aec72758799 I/POTCAR              
   COPYR  = (c) Copyright 08Apr2002 Georg Kresse                                                    
   COPYR  = This file is part of the software VASP. Any use, copying, and all other rights are regul
   COPYR  = If you do not have a valid VASP license, you may not use, copy or distribute this file. 
   VRHFIN =I : s2p5                                                                                 
   LEXCH  = PE                                                                                      
   EATOM  =   315.8678 eV,   23.2156 Ry                                                             
                                                                                                    
   TITEL  = PAW_PBE I 08Apr2002                                                                     
   LULTRA =        F    use ultrasoft PP ?                                                          
   IUNSCR =        1    unscreen: 0-lin 1-nonlin 2-no                                               
   RPACOR =    2.200    partial core radius                                                         
   POMASS =  126.904; ZVAL   =    7.000    mass and valenz                                          
   RCORE  =    2.300    outmost cutoff radius                                                       
   RWIGS  =    2.810; RWIGS  =    1.487    wigner-seitz radius (au A)                               
   ENMAX  =  175.647; ENMIN  =  131.735 eV                                                          
   ICORE  =        3    local potential                                                             
   LCOR   =        T    correct aug charges                                                         
   LPAW   =        T    paw PP                                                                      
   EAUG   =  370.139                                                                                
   DEXC   =    0.000                                                                                
   RMAX   =    2.359    core radius for proj-oper                                                   
   RAUG   =    1.300    factor for augmentation sphere                                              
   RDEP   =    2.392    radius for radial grids                                                     
   RDEPT  =    2.170    core radius for aug-charge                                                  
                                                                                                    
   Atomic configuration                                                                             
   13 entries                                                                                       
     n  l   j            E        occ.                                                              
     1  0  0.50    -32976.3739   2.0000                                                             
     2  0  0.50     -5094.5933   2.0000                                                             
     2  1  1.50     -4572.0131   6.0000                                                             
     3  0  0.50     -1028.2813   2.0000                                                             
     3  1  1.50      -859.0250   6.0000                                                             
     3  2  2.50      -605.7620  10.0000                                                             
     4  0  0.50      -180.5540   2.0000                                                             
     4  1  1.50      -127.5306   6.0000                                                             
     4  2  2.50       -50.2720  10.0000                                                             
     5  0  0.50       -17.4058   2.0000                                                             
     5  1  0.50        -7.0851   5.0000                                                             
     5  2  1.50        -7.0750   0.0000                                                             
     4  3  2.50        -7.0750   0.0000                                                             
   Description                                                                                      
     l       E           TYP  RCUT    TYP  RCUT                                                     
     0    -17.4058016     23  2.300                                                                 
     0    -18.7663842     23  2.300                                                                 
     1     -7.0850686     23  2.300                                                                 
     1     -4.2150896     23  2.300                                                                 
     2     -7.0750295     23  2.300                                                                 
     3     -1.3605826     23  2.300                                                                 
  local pseudopotential read in
  partial core-charges read in
  partial kinetic energy density read in
  atomic valenz-charges read in
  non local Contribution for L=            0  read in
    real space projection operators read in
  non local Contribution for L=            0  read in
    real space projection operators read in
  non local Contribution for L=            1  read in
    real space projection operators read in
  non local Contribution for L=            1  read in
    real space projection operators read in
  non local Contribution for L=            2  read in
    real space projection operators read in
    PAW grid and wavefunctions read in
 
   number of l-projection  operators is LMAX  =            5
   number of lm-projection operators is LMMAX =           13
 
 POTCAR:    PAW_PBE Pb 08Apr2002                  
   SHA256 =  797118a27cf1bcd06b9881c67a26cdde129e3cd1a551dd4a281f9681ce847303 Pb/POTCAR             
   COPYR  = (c) Copyright 08Apr2002 Georg Kresse                                                    
   COPYR  = This file is part of the software VASP. Any use, copying, and all other rights are regul
   COPYR  = If you do not have a valid VASP license, you may not use, copy or distribute this file. 
   VRHFIN =Pb:                                                                                      
   LEXCH  = PE                                                                                      
   EATOM  =    96.9868 eV,    7.1283 Ry                                                             
                                                                                                    
   TITEL  = PAW_PBE Pb 08Apr2002                                                                    
   LULTRA =        F    use ultrasoft PP ?                                                          
   IUNSCR =        1    unscreen: 0-lin 1-nonlin 2-no                                               
   RPACOR =    2.200    partial core radius                                                         
   POMASS =  207.200; ZVAL   =    4.000    mass and valenz                                          
   RCORE  =    3.100    outmost cutoff radius                                                       
   RWIGS  =    3.260; RWIGS  =    1.725    wigner-seitz radius (au A)                               
   ENMAX  =   97.973; ENMIN  =   73.480 eV                                                          
   ICORE  =        3    local potential                                                             
   LCOR   =        T    correct aug charges                                                         
   LPAW   =        T    paw PP                                                                      
   EAUG   =  234.873                                                                                
   DEXC   =    0.000                                                                                
   RMAX   =    3.158    core radius for proj-oper                                                   
   RAUG   =    1.300    factor for augmentation sphere                                              
   RDEP   =    3.202    radius for radial grids                                                     
   RDEPT  =    2.659    core radius for aug-charge                                                  
                                                                                                    
   Atomic configuration                                                                             
   17 entries                                                                                       
     n  l   j            E        occ.                                                              
     1  0  0.50    -88091.8466   2.0000                                                             
     2  0  0.50    -15753.4197   2.0000                                                             
     2  1  1.50    -13508.1797   6.0000                                                             
     3  0  0.50     -3781.7194   2.0000                                                             
     3  1  1.50     -3138.2529   6.0000                                                             
     3  2  2.50     -2483.2977  10.0000                                                             
     4  0  0.50      -856.2895   2.0000                                                             
     4  1  1.50      -645.4943   6.0000                                                             
     4  2  2.50      -401.8768  10.0000                                                             
     4  3  3.50      -132.9059  14.0000                                                             
     5  0  0.50      -144.0950   2.0000                                                             
     5  1  1.50       -85.7879   6.0000                                                             
     5  2  2.50       -21.1769  10.0000                                                             
     6  0  0.50       -12.0372   2.0000                                                             
     6  1  1.50        -3.4971   2.0000                                                             
     6  2  2.50        -1.3606   0.0000                                                             
     5  3  2.50        -2.7212   0.0000                                                             
   Description                                                                                      
     l       E           TYP  RCUT    TYP  RCUT                                                     
     0    -12.0371566     23  3.100                                                                 
     0    -13.3977392     23  3.100                                                                 
     1     -3.4971341     23  3.100                                                                 
     1     -5.4423304     23  3.100                                                                 
     2     -1.3605826     23  3.100                                                                 
     3     -1.3605826     23  3.100                                                                 
  local pseudopotential read in
  partial core-charges read in
  partial kinetic energy density read in
  atomic valenz-charges read in
  non local Contribution for L=            0  read in
    real space projection operators read in
  non local Contribution for L=            0  read in
    real space projection operators read in
  non local Contribution for L=            1  read in
    real space projection operators read in
  non local Contribution for L=            1  read in
    real space projection operators read in
  non local Contribution for L=            2  read in
    real space projection operators read in
    PAW grid and wavefunctions read in
 
   number of l-projection  operators is LMAX  =            5
   number of lm-projection operators is LMMAX =           13
 
 Optimization of the real space projectors (new method)

 maximal supplied QI-value         = 34.20
 optimisation between [QCUT,QGAM] = [ 11.29, 22.57] = [ 35.68,142.71] Ry 
 Optimized for a Real-space Cutoff    1.16 Angstroem

   l    n(q)    QCUT    max X(q) W(low)/X(q) W(high)/X(q)  e(spline) 
   0      8    11.287    19.460    0.40E-03    0.73E-03    0.16E-06
   0      8    11.287    12.209    0.38E-03    0.70E-03    0.15E-06
   1      7    11.287     4.655    0.22E-03    0.25E-04    0.22E-06
 Optimization of the real space projectors (new method)

 maximal supplied QI-value         = 25.13
 optimisation between [QCUT,QGAM] = [ 11.31, 22.87] = [ 35.82,146.48] Ry 
 Optimized for a Real-space Cutoff    1.00 Angstroem

   l    n(q)    QCUT    max X(q) W(low)/X(q) W(high)/X(q)  e(spline) 
   0      7    11.310   115.676    0.43E-03    0.13E-02    0.19E-06
   0      7    11.310    87.132    0.43E-03    0.13E-02    0.18E-06
   1      6    11.310     4.429    0.42E-03    0.74E-03    0.11E-06
   1      6    11.310     2.733    0.34E-03    0.55E-03    0.92E-07
 Optimization of the real space projectors (new method)

 maximal supplied QI-value         = 25.13
 optimisation between [QCUT,QGAM] = [ 11.31, 22.87] = [ 35.82,146.48] Ry 
 Optimized for a Real-space Cutoff    1.27 Angstroem

   l    n(q)    QCUT    max X(q) W(low)/X(q) W(high)/X(q)  e(spline) 
   0      9    11.310    79.467    0.75E-04    0.16E-03    0.36E-06
   0      9    11.310    66.151    0.74E-04    0.16E-03    0.36E-06
   1      8    11.310    17.416    0.35E-03    0.12E-03    0.95E-06
   1      8    11.310    12.382    0.37E-03    0.13E-03    0.98E-06
 Optimization of the real space projectors (new method)

 maximal supplied QI-value         = 16.25
 optimisation between [QCUT,QGAM] = [ 11.38, 22.75] = [ 36.24,144.96] Ry 
 Optimized for a Real-space Cutoff    1.31 Angstroem

   l    n(q)    QCUT    max X(q) W(low)/X(q) W(high)/X(q)  e(spline) 
   0      9    11.376   194.483    0.24E-03    0.23E-03    0.67E-07
   0      9    11.376   190.334    0.23E-03    0.22E-03    0.65E-07
   1      8    11.376   116.687    0.25E-03    0.63E-04    0.16E-06
   1      8    11.376    88.696    0.25E-03    0.61E-04    0.16E-06
   2      8    11.376     4.877    0.17E-03    0.14E-03    0.29E-07
 Optimization of the real space projectors (new method)

 maximal supplied QI-value         = 12.09
 optimisation between [QCUT,QGAM] = [ 11.37, 22.86] = [ 36.19,146.31] Ry 
 Optimized for a Real-space Cutoff    1.66 Angstroem

   l    n(q)    QCUT    max X(q) W(low)/X(q) W(high)/X(q)  e(spline) 
   0     11    11.369   135.111    0.12E-03    0.69E-04    0.19E-05
   0     11    11.369   146.850    0.11E-03    0.65E-04    0.18E-05
   1     11    11.369   148.016    0.17E-03    0.32E-03    0.89E-06
   1     11    11.369   122.989    0.17E-03    0.32E-03    0.91E-06
   2     10    11.369     8.916    0.12E-03    0.45E-04    0.33E-06
  PAW_PBE H 15Jun2001                   :
 energy of atom  1       EATOM=  -12.4884
 kinetic energy error for atom=    0.0020 (will be added to EATOM!!)
  PAW_PBE C 08Apr2002                   :
 energy of atom  2       EATOM= -147.1560
 kinetic energy error for atom=    0.0076 (will be added to EATOM!!)
  PAW_PBE N 08Apr2002                   :
 energy of atom  3       EATOM= -264.5486
 kinetic energy error for atom=    0.0138 (will be added to EATOM!!)
  PAW_PBE I 08Apr2002                   :
 energy of atom  4       EATOM= -315.8678
 kinetic energy error for atom=    0.0009 (will be added to EATOM!!)
  PAW_PBE Pb 08Apr2002                  :
 energy of atom  5       EATOM=  -96.9868
 kinetic energy error for atom=    0.0000 (will be added to EATOM!!)
 
 
 POSCAR:  H  C  N  I Pb
  positions in cartesian coordinates
  No initial velocities read in
 exchange correlation table for  LEXCH =        8
   RHO(1)=    0.500       N(1)  =     2000
   RHO(2)=  100.500       N(2)  =     4000
 


--------------------------------------------------------------------------------------------------------


 ion  position               nearest neighbor table
   1  0.474  0.336  0.569- 187 1.03
   2  0.448  0.834  0.574- 188 1.03
   3  0.923  0.251  0.580- 189 1.03
   4  0.941  0.818  0.575- 190 1.03
   5  0.318  0.076  0.570- 194 1.03
   6  0.346  0.558  0.565- 195 1.03
   7  0.799  0.092  0.571- 196 1.03
   8  0.105  0.246  0.557- 183 1.02
   9  0.081  0.674  0.575- 184 1.02
  10  0.546  0.150  0.560- 185 1.03
  11  0.499  0.645  0.560- 186 1.02
  12  0.369  0.011  0.555- 194 1.01
  13  0.291  0.632  0.556- 195 1.02
  14  0.872  0.036  0.561- 196 1.02
  15  0.058  0.252  0.581- 183 1.03
  16  0.996  0.696  0.587- 184 1.03
  17  0.574  0.238  0.569- 185 1.03
  18  0.452  0.697  0.579- 186 1.03
  19  0.279  0.440  0.573- 191 1.03
  20  0.182  0.060  0.572- 192 1.03
  21  0.676  0.030  0.573- 193 1.02
  22  0.388  0.306  0.559- 187 1.03
  23  0.503  0.870  0.554- 188 1.03
  24  0.878  0.239  0.556- 189 1.03
  25  0.989  0.867  0.555- 190 1.03
  26  0.187  0.437  0.565- 191 1.00
  27  0.144  0.987  0.558- 192 1.02
  28  0.672  0.938  0.564- 193 1.01
  29  0.428  0.188  0.552- 146 1.09
  30  0.543  0.753  0.543- 147 1.09
  31  0.993  0.236  0.537- 144 1.08
  32  0.083  0.777  0.553- 145 1.09
  33  0.184  0.557  0.554- 148 1.09
  34  0.261  0.942  0.547- 149 1.09
  35  0.794  0.934  0.556- 150 1.09
  36  0.458  0.307  0.674- 205 1.02
  37  0.442  0.808  0.672- 206 1.02
  38  0.944  0.277  0.675- 207 1.02
  39  0.923  0.732  0.672- 208 1.04
  40  0.308  0.049  0.672- 209 1.02
  41  0.296  0.553  0.676- 210 1.02
  42  0.799  0.054  0.674- 211 1.02
  43  0.843  0.472  0.664- 212 1.02
  44  0.093  0.174  0.649- 197 1.03
  45  0.111  0.718  0.652- 198 1.03
  46  0.581  0.169  0.649- 199 1.02
  47  0.572  0.670  0.652- 200 1.01
  48  0.186  0.410  0.648- 201 1.02
  49  0.167  0.930  0.647- 202 1.02
  50  0.643  0.475  0.658- 203 1.03
  51  0.678  0.917  0.649- 204 1.02
  52  0.055  0.186  0.674- 197 1.02
  53  0.052  0.675  0.670- 198 1.02
  54  0.559  0.206  0.674- 199 1.02
  55  0.538  0.701  0.676- 200 1.03
  56  0.203  0.442  0.674- 201 1.03
  57  0.198  0.955  0.673- 202 1.02
  58  0.716  0.420  0.668- 203 1.03
  59  0.702  0.949  0.675- 204 1.02
  60  0.421  0.325  0.648- 205 1.02
  61  0.422  0.833  0.646- 206 1.02
  62  0.924  0.319  0.651- 207 1.02
  63  0.907  0.809  0.656- 208 1.02
  64  0.337  0.073  0.646- 209 1.02
  65  0.325  0.584  0.651- 210 1.03
  66  0.828  0.081  0.649- 211 1.02
  67  0.851  0.555  0.650- 212 1.01
  68  0.014  0.258  0.632- 151 1.09
  69  0.026  0.806  0.641- 152 1.09
  70  0.495  0.241  0.631- 153 1.09
  71  0.503  0.748  0.631- 154 1.08
  72  0.251  0.000  0.629- 156 1.09
  73  0.261  0.496  0.632- 155 1.09
  74  0.755  0.996  0.631- 158 1.09
  75  0.724  0.565  0.645- 157 1.08
  76  0.449  0.301  0.769- 221 1.02
  77  0.449  0.801  0.769- 222 1.02
  78  0.949  0.301  0.769- 223 1.02
  79  0.949  0.801  0.769- 224 1.02
  80  0.301  0.051  0.769- 225 1.02
  81  0.301  0.551  0.769- 226 1.02
  82  0.801  0.051  0.769- 227 1.02
  83  0.801  0.551  0.769- 228 1.02
  84  0.079  0.171  0.743- 213 1.02
  85  0.079  0.671  0.743- 214 1.02
  86  0.579  0.171  0.743- 215 1.02
  87  0.579  0.671  0.743- 216 1.02
  88  0.171  0.421  0.743- 217 1.02
  89  0.171  0.921  0.743- 218 1.02
  90  0.671  0.421  0.743- 219 1.02
  91  0.671  0.921  0.743- 220 1.02
  92  0.051  0.199  0.769- 213 1.02
  93  0.051  0.699  0.769- 214 1.02
  94  0.551  0.199  0.769- 215 1.02
  95  0.551  0.699  0.769- 216 1.02
  96  0.199  0.449  0.769- 217 1.02
  97  0.199  0.949  0.769- 218 1.02
  98  0.699  0.449  0.769- 219 1.02
  99  0.699  0.949  0.769- 220 1.02
 100  0.421  0.329  0.743- 221 1.02
 101  0.421  0.829  0.743- 222 1.02
 102  0.921  0.329  0.743- 223 1.02
 103  0.921  0.829  0.743- 224 1.02
 104  0.329  0.079  0.743- 225 1.02
 105  0.329  0.579  0.743- 226 1.02
 106  0.829  0.079  0.743- 227 1.02
 107  0.829  0.579  0.743- 228 1.02
 108  0.000  0.250  0.726- 161 1.09
 109  0.000  0.750  0.726- 162 1.09
 110  0.500  0.250  0.726- 159 1.09
 111  0.500  0.750  0.726- 160 1.09
 112  0.250  0.000  0.726- 163 1.09
 113  0.250  0.500  0.726- 164 1.09
 114  0.750  0.000  0.726- 165 1.09
 115  0.750  0.500  0.726- 166 1.09
 116  0.720  0.442  0.541- 173 1.10
 117  0.737  0.493  0.518- 173 1.09
 118  0.660  0.552  0.558- 174 1.09
 119  0.707  0.638  0.556- 174 1.10
 120  0.851  0.507  0.569- 175 1.10
 121  0.789  0.577  0.578- 175 1.10
 122  0.872  0.562  0.530- 176 1.10
 123  0.799  0.624  0.523- 176 1.10
 124  0.871  0.463  0.519- 177 1.10
 125  0.863  0.423  0.544- 177 1.10
 126  0.872  0.326  0.519- 178 1.10
 127  0.783  0.323  0.530- 178 1.10
 128  0.635  0.550  0.519- 179 1.10
 129  0.688  0.634  0.516- 179 1.10
 130  0.606  0.634  0.531- 179 1.10
 131  0.755  0.468  0.597- 180 1.10
 132  0.755  0.411  0.574- 180 1.10
 133  0.684  0.477  0.578- 180 1.10
 134  0.817  0.692  0.559- 181 1.10
 135  0.900  0.688  0.544- 181 1.10
 136  0.888  0.627  0.565- 181 1.09
 137  0.820  0.380  0.485- 182 1.09
 138  0.785  0.293  0.492- 182 1.10
 139  0.663  0.306  0.520- 168 1.09
 140  0.732  0.460  0.471- 169 1.09
 141  0.537  0.359  0.519- 170 1.09
 142  0.604  0.512  0.470- 171 1.09
 143  0.506  0.463  0.494- 172 1.09
 144  0.992  0.242  0.554-  31 1.08 183 1.32 189 1.32
 145  0.035  0.768  0.564-  32 1.09 184 1.31 190 1.32
 146  0.467  0.228  0.558-  29 1.09 185 1.31 187 1.32
 147  0.505  0.757  0.556-  30 1.09 188 1.31 186 1.31
 148  0.237  0.534  0.559-  33 1.09 195 1.31 191 1.32
 149  0.257  0.994  0.556-  34 1.09 192 1.31 194 1.32
 150  0.772  0.986  0.562-  35 1.09 196 1.31 193 1.31
 151  0.008  0.247  0.649-  68 1.09 197 1.31 207 1.31
 152  0.010  0.765  0.653-  69 1.09 198 1.30 208 1.31
 153  0.501  0.247  0.648-  70 1.09 199 1.31 205 1.32
 154  0.497  0.751  0.648-  71 1.08 200 1.31 206 1.31
 155  0.256  0.496  0.649-  73 1.09 210 1.30 201 1.31
 156  0.252  0.001  0.647-  72 1.09 202 1.31 209 1.31
 157  0.746  0.518  0.653-  75 1.08 203 1.31 212 1.31
 158  0.753  0.999  0.649-  74 1.09 204 1.31 211 1.31
 159  0.500  0.250  0.743- 110 1.09 221 1.31 215 1.31
 160  0.500  0.750  0.743- 111 1.09 222 1.31 216 1.31
 161  1.000  0.250  0.743- 108 1.09 223 1.31 213 1.31
 162  1.000  0.750  0.743- 109 1.09 224 1.31 214 1.31
 163  0.250  0.000  0.743- 112 1.09 225 1.31 218 1.31
 164  0.250  0.500  0.743- 113 1.09 226 1.31 217 1.31
 165  0.750  0.000  0.743- 114 1.09 227 1.31 220 1.31
 166  0.750  0.500  0.743- 115 1.09 228 1.31 219 1.31
 167  0.706  0.381  0.495- 169 1.40 168 1.41 182 1.51
 168  0.650  0.351  0.508- 139 1.09 170 1.40 167 1.41
 169  0.689  0.438  0.481- 140 1.09 167 1.40 171 1.40
 170  0.579  0.381  0.508- 141 1.09 168 1.40 172 1.40
 171  0.617  0.467  0.480- 142 1.09 172 1.39 169 1.40
 172  0.562  0.440  0.494- 143 1.09 171 1.39 170 1.40
 173  0.762  0.476  0.533- 117 1.09 116 1.10 229 1.52 177 1.53
 174  0.695  0.586  0.548- 118 1.09 119 1.10 179 1.51 229 1.53
 175  0.792  0.525  0.569- 121 1.10 120 1.10 180 1.51 229 1.53
 176  0.827  0.598  0.537- 122 1.10 123 1.10 181 1.52 229 1.53
 177  0.833  0.432  0.529- 124 1.10 125 1.10 173 1.53 178 1.54
 178  0.819  0.355  0.519- 127 1.10 126 1.10 182 1.54 177 1.54
 179  0.655  0.601  0.527- 128 1.10 129 1.10 130 1.10 174 1.51
 180  0.743  0.467  0.579- 131 1.10 133 1.10 132 1.10 175 1.51
 181  0.859  0.654  0.552- 136 1.09 135 1.10 134 1.10 176 1.52
 182  0.785  0.351  0.497- 137 1.09 138 1.10 167 1.51 178 1.54
 183  0.055  0.245  0.565-   8 1.02  15 1.03 144 1.32
 184  0.036  0.709  0.575-   9 1.02  16 1.03 145 1.31
 185  0.535  0.205  0.562-  17 1.03  10 1.03 146 1.31
 186  0.485  0.696  0.566-  11 1.02  18 1.03 147 1.31
 187  0.443  0.296  0.561-  22 1.03   1 1.03 146 1.32
 188  0.481  0.824  0.561-   2 1.03  23 1.03 147 1.31
 189  0.927  0.247  0.564-   3 1.03  24 1.03 144 1.32
 190  0.981  0.817  0.563-  25 1.03   4 1.03 145 1.32
 191  0.235  0.464  0.565-  26 1.00  19 1.03 148 1.32
 192  0.191  0.016  0.561-  27 1.02  20 1.03 149 1.31
 193  0.701  0.986  0.566-  28 1.01  21 1.02 150 1.31
 194  0.318  0.030  0.560-  12 1.01   5 1.03 149 1.32
 195  0.296  0.577  0.559-  13 1.02   6 1.03 148 1.31
 196  0.818  0.041  0.565-  14 1.02   7 1.03 150 1.31
 197  0.054  0.199  0.658-  52 1.02  44 1.03 151 1.31
 198  0.059  0.716  0.658-  53 1.02  45 1.03 152 1.30
 199  0.550  0.206  0.658-  54 1.02  46 1.02 153 1.31
 200  0.538  0.704  0.659-  47 1.01  55 1.03 154 1.31
 201  0.214  0.446  0.658-  48 1.02  56 1.03 155 1.31
 202  0.202  0.960  0.656-  49 1.02  57 1.02 156 1.31
 203  0.699  0.467  0.660-  58 1.03  50 1.03 157 1.31
 204  0.709  0.952  0.658-  51 1.02  59 1.02 158 1.31
 205  0.458  0.296  0.658-  36 1.02  60 1.02 153 1.32
 206  0.451  0.800  0.656-  61 1.02  37 1.02 154 1.31
 207  0.955  0.283  0.659-  38 1.02  62 1.02 151 1.31
 208  0.943  0.770  0.661-  63 1.02  39 1.04 152 1.31
 209  0.302  0.043  0.656-  40 1.02  64 1.02 156 1.31
 210  0.294  0.547  0.659-  41 1.02  65 1.03 155 1.30
 211  0.795  0.048  0.658-  42 1.02  66 1.02 158 1.31
 212  0.818  0.515  0.656-  67 1.01  43 1.02 157 1.31
 213  0.046  0.204  0.753-  92 1.02  84 1.02 161 1.31
 214  0.046  0.704  0.753-  93 1.02  85 1.02 162 1.31
 215  0.546  0.204  0.753-  94 1.02  86 1.02 159 1.31
 216  0.546  0.704  0.753-  95 1.02  87 1.02 160 1.31
 217  0.204  0.454  0.753-  96 1.02  88 1.02 164 1.31
 218  0.204  0.954  0.753-  97 1.02  89 1.02 163 1.31
 219  0.704  0.454  0.753-  98 1.02  90 1.02 166 1.31
 220  0.704  0.954  0.753-  99 1.02  91 1.02 165 1.31
 221  0.454  0.296  0.753-  76 1.02 100 1.02 159 1.31
 222  0.454  0.796  0.753-  77 1.02 101 1.02 160 1.31
 223  0.954  0.296  0.753-  78 1.02 102 1.02 161 1.31
 224  0.954  0.796  0.753-  79 1.02 103 1.02 162 1.31
 225  0.296  0.046  0.753-  80 1.02 104 1.02 163 1.31
 226  0.296  0.546  0.753-  81 1.02 105 1.02 164 1.31
 227  0.796  0.046  0.753-  82 1.02 106 1.02 165 1.31
 228  0.796  0.546  0.753-  83 1.02 107 1.02 166 1.31
 229  0.770  0.545  0.546- 173 1.52 175 1.53 174 1.53 176 1.53
 230  0.510  0.014  0.551- 304 3.33
 231  0.484  0.504  0.554- 305 3.13
 232  0.002  0.009  0.552- 302 3.31
 233  0.030  0.504  0.555- 303 3.14
 234  0.251  0.248  0.553- 306 3.21
 235  0.247  0.767  0.553- 307 3.19
 236  0.733  0.211  0.556- 308 3.19
 237  0.700  0.796  0.555- 309 3.22
 238  0.996  0.986  0.654- 302 3.12 310 3.16
 239  0.014  0.495  0.656- 311 3.07 303 3.20
 240  0.500  0.005  0.654- 304 3.13 312 3.16
 241  0.502  0.496  0.655- 313 3.12 305 3.17
 242  0.257  0.244  0.654- 306 3.14 314 3.15
 243  0.255  0.756  0.654- 315 3.15 307 3.18
 244  0.747  0.268  0.655- 308 3.12 316 3.13
 245  0.746  0.743  0.654- 317 3.15 309 3.19
 246  0.130  0.121  0.608- 302 3.21 306 3.24
 247  0.153  0.606  0.609- 307 3.16 303 3.23
 248  0.640  0.114  0.610- 308 3.21 304 3.21
 249  0.629  0.620  0.609- 305 3.17 309 3.22
 250  0.365  0.387  0.608- 306 3.19 305 3.23
 251  0.373  0.882  0.606- 304 3.21 307 3.26
 252  0.888  0.371  0.609- 303 3.24 308 3.30
 253  0.868  0.881  0.606- 309 3.20 302 3.21
 254  0.123  0.366  0.608- 306 3.14 303 3.28
 255  0.123  0.876  0.607- 307 3.18 302 3.25
 256  0.596  0.347  0.602- 308 3.20 305 3.24
 257  0.615  0.867  0.613- 309 3.08 304 3.23
 258  0.385  0.133  0.606- 304 3.17 306 3.21
 259  0.384  0.633  0.611- 305 3.25 307 3.30
 260  0.882  0.136  0.613- 302 3.20 308 3.29
 261  0.903  0.643  0.615- 303 3.19 309 3.64
 262  0.000  0.000  0.755- 310 3.13 318 3.27
 263  0.000  0.500  0.755- 311 3.13 319 3.27
 264  0.500  0.000  0.755- 312 3.13 320 3.27
 265  0.500  0.500  0.755- 313 3.13 321 3.27
 266  0.250  0.250  0.755- 314 3.13 322 3.27
 267  0.250  0.750  0.755- 315 3.13 323 3.27
 268  0.750  0.250  0.755- 316 3.13 324 3.27
 269  0.750  0.750  0.755- 317 3.13 325 3.27
 270  0.136  0.114  0.705- 310 3.20 314 3.20
 271  0.136  0.614  0.705- 311 3.20 315 3.20
 272  0.636  0.114  0.705- 312 3.20 316 3.20
 273  0.636  0.614  0.705- 313 3.20 317 3.20
 274  0.364  0.386  0.705- 313 3.20 314 3.20
 275  0.364  0.886  0.705- 312 3.20 315 3.20
 276  0.864  0.386  0.705- 311 3.20 316 3.20
 277  0.864  0.886  0.705- 310 3.20 317 3.20
 278  0.114  0.364  0.705- 314 3.21 311 3.21
 279  0.114  0.864  0.705- 315 3.21 310 3.21
 280  0.614  0.364  0.705- 316 3.21 313 3.21
 281  0.614  0.864  0.705- 317 3.21 312 3.21
 282  0.386  0.136  0.705- 314 3.21 312 3.21
 283  0.386  0.636  0.705- 315 3.21 313 3.21
 284  0.886  0.136  0.705- 316 3.21 310 3.21
 285  0.886  0.636  0.705- 317 3.21 311 3.21
 286  0.135  0.115  0.801- 318 3.22 322 3.22
 287  0.135  0.615  0.801- 319 3.22 323 3.22
 288  0.635  0.115  0.801- 320 3.22 324 3.22
 289  0.635  0.615  0.801- 321 3.22 325 3.22
 290  0.365  0.385  0.801- 321 3.22 322 3.22
 291  0.365  0.885  0.801- 320 3.22 323 3.22
 292  0.865  0.385  0.801- 319 3.22 324 3.22
 293  0.865  0.885  0.801- 318 3.22 325 3.22
 294  0.115  0.365  0.801- 319 3.23 322 3.23
 295  0.115  0.865  0.801- 318 3.23 323 3.23
 296  0.615  0.365  0.801- 321 3.23 324 3.23
 297  0.615  0.865  0.801- 320 3.23 325 3.23
 298  0.385  0.135  0.801- 320 3.23 322 3.23
 299  0.385  0.635  0.801- 321 3.23 323 3.23
 300  0.885  0.135  0.801- 318 3.23 324 3.23
 301  0.885  0.635  0.801- 319 3.23 325 3.23
 302  0.997  0.004  0.605- 238 3.12 260 3.20 246 3.21 253 3.21 255 3.25 232 3.31
 303  0.006  0.504  0.605- 233 3.14 261 3.19 239 3.20 247 3.23 252 3.24 254 3.28
 304  0.503  0.003  0.604- 240 3.13 258 3.17 251 3.21 248 3.21 257 3.23 230 3.33
 305  0.503  0.500  0.604- 231 3.13 249 3.17 241 3.17 250 3.23 256 3.24 259 3.25
 306  0.253  0.251  0.604- 254 3.14 242 3.14 250 3.19 234 3.21 258 3.21 246 3.24
 307  0.248  0.752  0.604- 247 3.16 243 3.18 255 3.18 235 3.19 251 3.26 259 3.30
 308  0.747  0.255  0.605- 244 3.12 236 3.19 256 3.20 248 3.21 260 3.29 252 3.30
 309  0.742  0.757  0.604- 257 3.08 245 3.19 253 3.20 237 3.22 249 3.22 261 3.64
 310  0.000  0.000  0.705- 262 3.13 238 3.16 270 3.20 277 3.20 279 3.21 284 3.21
 311  0.000  0.500  0.705- 239 3.07 263 3.13 271 3.20 276 3.20 278 3.21 285 3.21
 312  0.500  0.000  0.705- 264 3.13 240 3.16 272 3.20 275 3.20 281 3.21 282 3.21
 313  0.500  0.500  0.705- 241 3.12 265 3.13 273 3.20 274 3.20 280 3.21 283 3.21
 314  0.250  0.250  0.705- 266 3.13 242 3.15 270 3.20 274 3.20 282 3.21 278 3.21
 315  0.250  0.750  0.705- 267 3.13 243 3.15 271 3.20 275 3.20 283 3.21 279 3.21
 316  0.750  0.250  0.705- 244 3.13 268 3.13 272 3.20 276 3.20 284 3.21 280 3.21
 317  0.750  0.750  0.705- 269 3.13 245 3.15 273 3.20 277 3.20 285 3.21 281 3.21
 318  0.000  0.000  0.807- 286 3.22 293 3.22 300 3.23 295 3.23 262 3.27
 319  0.000  0.500  0.807- 287 3.22 292 3.22 301 3.23 294 3.23 263 3.27
 320  0.500  0.000  0.807- 288 3.22 291 3.22 298 3.23 297 3.23 264 3.27
 321  0.500  0.500  0.807- 289 3.22 290 3.22 299 3.23 296 3.23 265 3.27
 322  0.250  0.250  0.807- 290 3.22 286 3.22 294 3.23 298 3.23 266 3.27
 323  0.250  0.750  0.807- 291 3.22 287 3.22 299 3.23 295 3.23 267 3.27
 324  0.750  0.250  0.807- 292 3.22 288 3.22 296 3.23 300 3.23 268 3.27
 325  0.750  0.750  0.807- 293 3.22 289 3.22 297 3.23 301 3.23 269 3.27
 

IMPORTANT INFORMATION: All symmetrisations will be switched off!
NOSYMM: (Re-)initialisation of all symmetry stuff for point group C_1.


----------------------------------------------------------------------------------------

                                     Primitive cell                                     

  volume of cell :   20385.2105

  direct lattice vectors                    reciprocal lattice vectors
    18.060800552  0.000000000  0.000000000     0.055368531  0.000015077 -0.000000000
    -0.004918649 18.062799454  0.000000000     0.000000000  0.055362404  0.000000000
     0.000000000  0.000000000 62.487499237     0.000000000 -0.000000000  0.016003201

  length of vectors
    18.060800552 18.062800123 62.487499237     0.055368533  0.055362404  0.016003201

  position of ions in fractional coordinates (direct lattice)
     0.474011606  0.335743311  0.568753467
     0.447640356  0.833660257  0.573838896
     0.923132977  0.250688588  0.580213035
     0.940661680  0.818147394  0.574663463
     0.318458657  0.075792633  0.569534873
     0.345977567  0.558280639  0.564899303
     0.799221232  0.092328966  0.570747518
     0.105062429  0.246451915  0.557158558
     0.080596952  0.674136116  0.574766633
     0.545975345  0.149817402  0.560447546
     0.499117779  0.644953031  0.560480877
     0.368973561  0.011208147  0.555193626
     0.290953288  0.631567176  0.555595867
     0.871972549  0.035580464  0.561492066
     0.057856454  0.252170118  0.581150905
     0.996192703  0.695859678  0.586595048
     0.574173619  0.238300715  0.569456366
     0.451569993  0.696765634  0.579322231
     0.278767017  0.440087173  0.573042472
     0.182459359  0.059834343  0.571775251
     0.675572428  0.030065592  0.573267920
     0.387568444  0.306243967  0.558895905
     0.502969742  0.870242412  0.553675805
     0.877828595  0.239069688  0.555816798
     0.988534955  0.866605918  0.555396731
     0.186734695  0.436628237  0.565236895
     0.143875723  0.987444139  0.557844974
     0.672276677  0.938094601  0.564188040
     0.427740354  0.188169811  0.551592137
     0.543458623  0.752620060  0.542586551
     0.993476267  0.236302718  0.537187156
     0.082867260  0.776776962  0.553076137
     0.184325792  0.557495801  0.553661948
     0.260644785  0.942364140  0.546579537
     0.794369604  0.934361810  0.555870336
     0.458413763  0.306882925  0.673532115
     0.441701819  0.807731991  0.672423067
     0.944480028  0.276969067  0.675173922
     0.923015094  0.731971987  0.672109589
     0.308134357  0.048964906  0.671950560
     0.295588327  0.553319978  0.675509927
     0.798741321  0.053820450  0.674454296
     0.843169888  0.471773503  0.663894262
     0.092525907  0.173660488  0.648621981
     0.111449167  0.717568298  0.651721539
     0.580543520  0.168878785  0.649293685
     0.572162828  0.669584532  0.651586136
     0.186070192  0.410171810  0.648407399
     0.166590767  0.929768205  0.647487477
     0.643205269  0.474808790  0.658411475
     0.677536102  0.916695996  0.649164692
     0.054697927  0.185772571  0.673967810
     0.051811512  0.675049358  0.669608295
     0.559231726  0.206424947  0.674168228
     0.537965826  0.700802229  0.675943791
     0.202871542  0.441875484  0.674069759
     0.198305538  0.955349795  0.672722077
     0.716161648  0.420481855  0.667996095
     0.701933907  0.948804945  0.674599223
     0.420512924  0.324970256  0.648483342
     0.422062410  0.832833603  0.646217081
     0.923502220  0.318744800  0.650554008
     0.906992851  0.809103253  0.655712632
     0.336889492  0.073252074  0.646490817
     0.324627890  0.584206739  0.650586363
     0.827871666  0.081358891  0.649157794
     0.851194944  0.555048310  0.650049574
     0.013559394  0.257908885  0.632239371
     0.026284026  0.806161154  0.641234029
     0.495129530  0.240701612  0.630965617
     0.502601590  0.748070640  0.631264933
     0.250673837  0.000235125  0.629301771
     0.260543584  0.495521012  0.631865089
     0.754533048  0.996494676  0.631469441
     0.723882607  0.565017784  0.645020919
     0.448745018  0.301283966  0.768889017
     0.448745007  0.801283913  0.768889017
     0.948744965  0.301283966  0.768889017
     0.948745007  0.801283913  0.768889017
     0.301275995  0.051294496  0.768872961
     0.301276011  0.551294499  0.768872961
     0.801275943  0.051294496  0.768872961
     0.801275984  0.551294499  0.768872961
     0.078771004  0.171180501  0.743441971
     0.078771006  0.671180448  0.743441971
     0.578771004  0.171180501  0.743441971
     0.578770992  0.671180448  0.743441971
     0.171199499  0.421174482  0.743421032
     0.171199501  0.921174508  0.743421032
     0.671199512  0.421174482  0.743421032
     0.671199501  0.921174508  0.743421032
     0.051256000  0.198714991  0.768889017
     0.051256002  0.698714925  0.768889017
     0.551256027  0.198714991  0.768889017
     0.551256016  0.698714925  0.768889017
     0.198723491  0.448703970  0.768872046
     0.198723493  0.948703970  0.768872046
     0.698723518  0.448703970  0.768872046
     0.698723507  0.948703970  0.768872046
     0.421231519  0.328817467  0.743441971
     0.421231508  0.828817440  0.743441971
     0.921231466  0.328817467  0.743441971
     0.921231508  0.828817440  0.743441971
     0.328800503  0.078824997  0.743421032
     0.328800492  0.578824964  0.743421032
     0.828800477  0.078824997  0.743421032
     0.828800519  0.578824964  0.743421032
     0.000003500  0.250001478  0.725821992
     0.000003500  0.750001452  0.725821992
     0.500003506  0.250001478  0.725821992
     0.500003495  0.750001452  0.725821992
     0.250000502  0.000000000  0.725803983
     0.250000517  0.500000000  0.725803983
     0.750000502  0.000000000  0.725803983
     0.750000490  0.500000000  0.725803983
     0.720048385  0.442294751  0.541152549
     0.737205614  0.492645174  0.517796315
     0.660137425  0.552410326  0.558339763
     0.706733679  0.638017736  0.555965692
     0.850528956  0.507435289  0.568684423
     0.789188189  0.577056505  0.578426300
     0.871836665  0.562496218  0.530404366
     0.798613986  0.624147515  0.523092357
     0.870567136  0.462934746  0.518730767
     0.863170640  0.423240641  0.544249604
     0.872380501  0.326191969  0.518838820
     0.783227366  0.322517196  0.529838640
     0.635117078  0.550395618  0.519066222
     0.688165522  0.633747827  0.515688105
     0.606101899  0.633769104  0.530821137
     0.754814985  0.468490753  0.596723234
     0.754625329  0.410571251  0.573722967
     0.683822794  0.477452847  0.577751361
     0.816821918  0.691823346  0.558638773
     0.899502234  0.687735379  0.543600975
     0.887580582  0.626525629  0.565403493
     0.820453465  0.380373816  0.485239205
     0.784956507  0.292793092  0.491661479
     0.663032041  0.306478178  0.519512417
     0.731536773  0.460419463  0.470793383
     0.536535229  0.359203680  0.518576317
     0.604230265  0.512153081  0.469530649
     0.506322568  0.462728201  0.493883909
     0.991941351  0.242424242  0.554419973
     0.035178971  0.768121412  0.563515786
     0.467260229  0.227668578  0.558294893
     0.504683916  0.757250999  0.555917648
     0.236775077  0.534223154  0.559310538
     0.256732683  0.993963340  0.555631519
     0.772231009  0.986246419  0.562111330
     0.007947759  0.246514771  0.649371276
     0.010305624  0.765204762  0.653128497
     0.501091014  0.246966693  0.648293790
     0.497075083  0.750654190  0.648478397
     0.256137926  0.496413346  0.649186974
     0.251635161  0.001333005  0.646746789
     0.746329943  0.517783481  0.653351381
     0.752810702  0.998628000  0.648852862
     0.499988984  0.249994984  0.743277021
     0.499989025  0.749994958  0.743277021
     0.999988984  0.249994984  0.743277021
     0.999989025  0.749994958  0.743277021
     0.250000502  0.000001000  0.743255960
     0.250000517  0.500001003  0.743255960
     0.750000502  0.000001000  0.743255960
     0.750000491  0.500001003  0.743255960
     0.706496860  0.380550952  0.495171642
     0.650276923  0.351464487  0.508368495
     0.688525232  0.437964864  0.481094821
     0.578933145  0.381095930  0.507842389
     0.616591246  0.466933855  0.480423666
     0.562007028  0.439676038  0.493948649
     0.761951628  0.475784703  0.532977085
     0.695194904  0.585527210  0.547814892
     0.792095347  0.525306361  0.569248012
     0.827312738  0.597677756  0.536599514
     0.832812171  0.431692761  0.529142456
     0.818626655  0.355101193  0.519086307
     0.655351500  0.600604650  0.526964774
     0.743338619  0.466973770  0.579494934
     0.858896056  0.653851133  0.552230814
     0.784784571  0.351318976  0.496526802
     0.055178248  0.245152405  0.564860660
     0.036361128  0.708757893  0.575477407
     0.535258999  0.205373600  0.562158398
     0.484579521  0.696466324  0.565915924
     0.442710699  0.295824525  0.561353977
     0.481374786  0.823723676  0.560875610
     0.926907347  0.246708459  0.563863207
     0.980802995  0.816811823  0.563004026
     0.234842409  0.464499775  0.565419365
     0.190744540  0.016019409  0.561498476
     0.700775362  0.986098236  0.565942602
     0.318475622  0.029991517  0.559782312
     0.295556730  0.576610734  0.559425430
     0.817502650  0.041478707  0.565452575
     0.053527140  0.199053728  0.658094334
     0.059451730  0.715646040  0.658385347
     0.549972286  0.205766098  0.658042444
     0.537548849  0.704145486  0.659490244
     0.213729909  0.446108170  0.658011249
     0.202323210  0.960036063  0.656490071
     0.699467552  0.467436858  0.660136491
     0.708533787  0.951584863  0.658342980
     0.457739250  0.296216416  0.657520672
     0.451010906  0.799709169  0.656461501
     0.955377020  0.283162290  0.659268947
     0.943231247  0.770090450  0.661170023
     0.301831754  0.043251786  0.655879353
     0.294165460  0.546935838  0.659289947
     0.795309280  0.047731400  0.658334067
     0.818345619  0.514617202  0.656116033
     0.045862501  0.204119496  0.752725994
     0.045862500  0.704119456  0.752725994
     0.545862507  0.204119496  0.752725994
     0.545862496  0.704119456  0.752725994
     0.204119002  0.454101003  0.752704994
     0.204118991  0.954100951  0.752704994
     0.704118976  0.454101003  0.752704994
     0.704118964  0.954100951  0.752704994
     0.454140018  0.295888490  0.752726971
     0.454140007  0.795888516  0.752726971
     0.954140018  0.295888490  0.752726971
     0.954140060  0.795888516  0.752726971
     0.295882492  0.045900498  0.752704994
     0.295882481  0.545900528  0.752704994
     0.795882439  0.045900498  0.752704994
     0.795882481  0.545900528  0.752704994
     0.769636360  0.545464947  0.546404759
     0.509699626  0.013513452  0.551118531
     0.483897566  0.503945256  0.554442255
     0.002266999  0.009057644  0.551867399
     0.029774884  0.504296941  0.555090334
     0.250572475  0.247907733  0.552858381
     0.246754034  0.766543183  0.552655887
     0.732728849  0.210627882  0.555920761
     0.699711438  0.795835507  0.554797307
     0.995865845  0.985560053  0.654469708
     0.014412700  0.494769437  0.655917935
     0.499676169  0.004701808  0.654333328
     0.502435599  0.495519323  0.654906563
     0.257090328  0.243815172  0.654456095
     0.254759213  0.755596847  0.654466473
     0.746976642  0.267522607  0.655011320
     0.745937197  0.743303430  0.654470990
     0.130082509  0.121360984  0.607548702
     0.152838597  0.606098515  0.608794923
     0.640335420  0.113873874  0.610349800
     0.629252721  0.620407115  0.609342762
     0.364555716  0.387318694  0.607697902
     0.372750356  0.882432187  0.606409803
     0.887527608  0.370738051  0.609403504
     0.867799579  0.881284788  0.606342406
     0.122845569  0.365651071  0.608284933
     0.123283155  0.876172333  0.606946531
     0.595594237  0.346929798  0.601982648
     0.615292734  0.866659191  0.612728571
     0.385328633  0.132844458  0.605872464
     0.383713396  0.632586330  0.611298170
     0.882277752  0.136053767  0.612774174
     0.903133812  0.642997562  0.615024319
     0.000000000  0.000000000  0.754927972
     0.000000000  0.500000000  0.754927972
     0.500000000  0.000000000  0.754927972
     0.499999989  0.500000000  0.754927972
     0.250000496  0.250000000  0.754939022
     0.250000511  0.749999974  0.754939022
     0.750000470  0.250000000  0.754939022
     0.750000458  0.749999974  0.754939022
     0.135790500  0.114209997  0.704782994
     0.135790502  0.614209984  0.704782994
     0.635790447  0.114209997  0.704782994
     0.635790488  0.614209984  0.704782994
     0.364209516  0.385789989  0.704782994
     0.364209505  0.885789963  0.704782994
     0.864209542  0.385789989  0.704782994
     0.864209531  0.885789963  0.704782994
     0.114217990  0.364218986  0.704780979
     0.114217992  0.864218986  0.704780979
     0.614218004  0.364218986  0.704780979
     0.614217992  0.864218986  0.704780979
     0.385782012  0.135781489  0.704782017
     0.385782001  0.635781489  0.704782017
     0.885781985  0.135781489  0.704782017
     0.885782027  0.635781489  0.704782017
     0.134667000  0.115332001  0.801256025
     0.134666989  0.615331988  0.801256025
     0.634666987  0.115332001  0.801256025
     0.634666976  0.615331988  0.801256025
     0.365333002  0.384667985  0.801256025
     0.365332990  0.884667959  0.801256025
     0.865332949  0.384667985  0.801256025
     0.865332938  0.884667959  0.801256025
     0.115328503  0.365337004  0.801264999
     0.115328505  0.865336978  0.801264999
     0.615328503  0.365337004  0.801264999
     0.615328492  0.865336978  0.801264999
     0.384671513  0.134662996  0.801264999
     0.384671501  0.634662970  0.801264999
     0.884671486  0.134662996  0.801264999
     0.884671528  0.634662970  0.801264999
     0.996836907  0.003813333  0.604845769
     0.006233979  0.504331418  0.604866891
     0.502956586  0.002945684  0.604326805
     0.502907610  0.500173124  0.604180536
     0.252917392  0.251264584  0.604201597
     0.247950731  0.752037754  0.603611758
     0.746651038  0.255052080  0.605133424
     0.742110639  0.757103852  0.603572077
     0.000000500  0.000000500  0.704828963
     0.000000500  0.500000475  0.704828963
     0.500000475  0.000000500  0.704828963
     0.500000464  0.500000475  0.704828963
     0.249999994  0.249999472  0.704824995
     0.250000010  0.749999498  0.704824995
     0.749999994  0.249999472  0.704824995
     0.749999983  0.749999498  0.704824995
     0.000000000  0.000000000  0.807317968
     0.000000000  0.500000000  0.807317968
     0.500000000  0.000000000  0.807317968
     0.499999989  0.500000000  0.807317968
     0.249999994  0.250000000  0.807317968
     0.250000010  0.749999974  0.807317968
     0.749999994  0.250000000  0.807317968
     0.749999983  0.749999974  0.807317968

  ion indices of the primitive-cell ions
   primitive index   ion index
                 1           1
                 2           2
                 3           3
                 4           4
                 5           5
                 6           6
                 7           7
                 8           8
                 9           9
                10          10
                11          11
                12          12
                13          13
                14          14
                15          15
                16          16
                17          17
                18          18
                19          19
                20          20
                21          21
                22          22
                23          23
                24          24
                25          25
                26          26
                27          27
                28          28
                29          29
                30          30
                31          31
                32          32
                33          33
                34          34
                35          35
                36          36
                37          37
                38          38
                39          39
                40          40
                41          41
                42          42
                43          43
                44          44
                45          45
                46          46
                47          47
                48          48
                49          49
                50          50
                51          51
                52          52
                53          53
                54          54
                55          55
                56          56
                57          57
                58          58
                59          59
                60          60
                61          61
                62          62
                63          63
                64          64
                65          65
                66          66
                67          67
                68          68
                69          69
                70          70
                71          71
                72          72
                73          73
                74          74
                75          75
                76          76
                77          77
                78          78
                79          79
                80          80
                81          81
                82          82
                83          83
                84          84
                85          85
                86          86
                87          87
                88          88
                89          89
                90          90
                91          91
                92          92
                93          93
                94          94
                95          95
                96          96
                97          97
                98          98
                99          99
               100         100
               101         101
               102         102
               103         103
               104         104
               105         105
               106         106
               107         107
               108         108
               109         109
               110         110
               111         111
               112         112
               113         113
               114         114
               115         115
               116         116
               117         117
               118         118
               119         119
               120         120
               121         121
               122         122
               123         123
               124         124
               125         125
               126         126
               127         127
               128         128
               129         129
               130         130
               131         131
               132         132
               133         133
               134         134
               135         135
               136         136
               137         137
               138         138
               139         139
               140         140
               141         141
               142         142
               143         143
               144         144
               145         145
               146         146
               147         147
               148         148
               149         149
               150         150
               151         151
               152         152
               153         153
               154         154
               155         155
               156         156
               157         157
               158         158
               159         159
               160         160
               161         161
               162         162
               163         163
               164         164
               165         165
               166         166
               167         167
               168         168
               169         169
               170         170
               171         171
               172         172
               173         173
               174         174
               175         175
               176         176
               177         177
               178         178
               179         179
               180         180
               181         181
               182         182
               183         183
               184         184
               185         185
               186         186
               187         187
               188         188
               189         189
               190         190
               191         191
               192         192
               193         193
               194         194
               195         195
               196         196
               197         197
               198         198
               199         199
               200         200
               201         201
               202         202
               203         203
               204         204
               205         205
               206         206
               207         207
               208         208
               209         209
               210         210
               211         211
               212         212
               213         213
               214         214
               215         215
               216         216
               217         217
               218         218
               219         219
               220         220
               221         221
               222         222
               223         223
               224         224
               225         225
               226         226
               227         227
               228         228
               229         229
               230         230
               231         231
               232         232
               233         233
               234         234
               235         235
               236         236
               237         237
               238         238
               239         239
               240         240
               241         241
               242         242
               243         243
               244         244
               245         245
               246         246
               247         247
               248         248
               249         249
               250         250
               251         251
               252         252
               253         253
               254         254
               255         255
               256         256
               257         257
               258         258
               259         259
               260         260
               261         261
               262         262
               263         263
               264         264
               265         265
               266         266
               267         267
               268         268
               269         269
               270         270
               271         271
               272         272
               273         273
               274         274
               275         275
               276         276
               277         277
               278         278
               279         279
               280         280
               281         281
               282         282
               283         283
               284         284
               285         285
               286         286
               287         287
               288         288
               289         289
               290         290
               291         291
               292         292
               293         293
               294         294
               295         295
               296         296
               297         297
               298         298
               299         299
               300         300
               301         301
               302         302
               303         303
               304         304
               305         305
               306         306
               307         307
               308         308
               309         309
               310         310
               311         311
               312         312
               313         313
               314         314
               315         315
               316         316
               317         317
               318         318
               319         319
               320         320
               321         321
               322         322
               323         323
               324         324
               325         325

----------------------------------------------------------------------------------------

 
 
 KPOINTS: Automatic Mesh                          

Automatic generation of k-mesh.
 Grid dimensions read from file:
 generate k-points for:    3    3    1

 Generating k-lattice:

  Cartesian coordinates                     Fractional coordinates (reciprocal lattice)
     0.018456177  0.000005026 -0.000000000     0.333333333  0.000000000  0.000000000
     0.000000000  0.018454135  0.000000000     0.000000000  0.333333333  0.000000000
     0.000000000 -0.000000000  0.016003201     0.000000000  0.000000000  1.000000000

  Length of vectors
     0.018456178  0.018454135  0.016003201

  Shift w.r.t. Gamma in fractional coordinates (k-lattice)
     0.000000000  0.000000000  0.000000000

 
 Subroutine IBZKPT returns following result:
 ===========================================
 
 Found      5 irreducible k-points:
 
 Following reciprocal coordinates:
            Coordinates               Weight
  0.000000  0.000000  0.000000      1.000000
  0.333333  0.000000  0.000000      2.000000
  0.000000  0.333333  0.000000      2.000000
  0.333333  0.333333  0.000000      2.000000
 -0.333333  0.333333  0.000000      2.000000
 
 Following cartesian coordinates:
            Coordinates               Weight
  0.000000  0.000000  0.000000      1.000000
  0.018456  0.000005  0.000000      2.000000
  0.000000  0.018454  0.000000      2.000000
  0.018456  0.018459  0.000000      2.000000
 -0.018456  0.018449  0.000000      2.000000
 


--------------------------------------------------------------------------------------------------------




 Dimension of arrays:
   k-points           NKPTS =      5   k-points in BZ     NKDIM =      5   number of bands    NBANDS=    732
   number of dos      NEDOS =    301   number of ions     NIONS =    325
   non local maximal  LDIM  =      5   non local SUM 2l+1 LMDIM =     13
   total plane-waves  NPLWV = ******
   max r-space proj   IRMAX =   3336   max aug-charges    IRDMAX=  19845
   dimension x,y,z NGX =   100 NGY =  100 NGZ =  350
   dimension x,y,z NGXF=   200 NGYF=  200 NGZF=  700
   support grid    NGXF=   200 NGYF=  200 NGZF=  700
   ions per type =             143  39  47  72  24
   NGX,Y,Z   is equivalent  to a cutoff of   9.20,  9.20,  9.31 a.u.
   NGXF,Y,Z  is equivalent  to a cutoff of  18.41, 18.41, 18.62 a.u.

 SYSTEM =  PSC                                     
 POSCAR =   H  C  N  I Pb                          

 Startparameter for this run:
   NWRITE =      2    write-flag & timer
   PREC   = normal    normal or accurate (medium, high low for compatibility)
   ISTART =      0    job   : 0-new  1-cont  2-samecut
   ICHARG =      1    charge: 1-file 2-atom 10-const
   ISPIN  =      1    spin polarized calculation?
   LNONCOLLINEAR =      F non collinear calculations
   LSORBIT =      F    spin-orbit coupling
   INIWAV =      1    electr: 0-lowe 1-rand  2-diag
   LASPH  =      F    aspherical Exc in radial PAW
 Electronic Relaxation 1
   ENCUT  =  500.0 eV  36.75 Ry    6.06 a.u.  32.93 32.93113.93*2*pi/ulx,y,z
   ENINI  =  500.0     initial cutoff
   ENAUG  =  644.9 eV  augmentation charge cutoff
   NELM   =    600;   NELMIN=  2; NELMDL=  0     # of ELM steps 
   EDIFF  = 0.1E-03   stopping-criterion for ELM
   LREAL  =      T    real-space projection
   NLSPLINE    = F    spline interpolate recip. space projectors
   LCOMPAT=      F    compatible to vasp.4.4
   GGA_COMPAT  = F    GGA compatible to vasp.4.4-vasp.4.6
   LMAXPAW     = -100 max onsite density
   LMAXMIX     =    2 max onsite mixed and CHGCAR
   VOSKOWN=      0    Vosko Wilk Nusair interpolation
   ROPT   =   -0.00050  -0.00050  -0.00050  -0.00050
   ROPT   =   -0.00050
 Ionic relaxation
   EDIFFG = 0.1E-02   stopping-criterion for IOM
   NSW    =      0    number of steps for IOM
   NBLOCK =      1;   KBLOCK =      1    inner block; outer block 
   IBRION =     -1    ionic relax: 0-MD 1-quasi-New 2-CG
   NFREE  =      0    steps in history (QN), initial steepest desc. (CG)
   ISIF   =      2    stress and relaxation
   IWAVPR =     10    prediction:  0-non 1-charg 2-wave 3-comb
   ISYM   =      0    0-nonsym 1-usesym 2-fastsym
   LCORR  =      T    Harris-Foulkes like correction to forces

   POTIM  = 0.5000    time-step for ionic-motion
   TEIN   =    0.0    initial temperature
   TEBEG  =    0.0;   TEEND  =   0.0 temperature during run
   SMASS  =  -3.00    Nose mass-parameter (am)
   estimated Nose-frequenzy (Omega)   =  0.10E-29 period in steps = 0.13E+47 mass=  -0.745E-26a.u.
   SCALEE = 1.0000    scale energy and forces
   NPACO  =    256;   APACO  = 16.0  distance and # of slots for P.C.
   PSTRESS=    0.0 pullay stress

  Mass of Ions in am
   POMASS =   1.00 12.01 14.00126.90207.20
  Ionic Valenz
   ZVAL   =   1.00  4.00  5.00  7.00  4.00
  Atomic Wigner-Seitz radii
   RWIGS  =  -1.00 -1.00 -1.00 -1.00 -1.00
  virtual crystal weights 
   VCA    =   1.00  1.00  1.00  1.00  1.00
   NELECT =    1134.0000    total number of electrons
   NUPDOWN=      -1.0000    fix difference up-down

 DOS related values:
   EMIN   =  10.00;   EMAX   =-10.00  energy-range for DOS
   EFERMI =   0.00
   ISMEAR =     0;   SIGMA  =   0.05  broadening in eV -4-tet -1-fermi 0-gaus

 Electronic relaxation 2 (details)
   IALGO  =     38    algorithm
   LDIAG  =      T    sub-space diagonalisation (order eigenvalues)
   LSUBROT=      F    optimize rotation matrix (better conditioning)
   TURBO    =      0    0=normal 1=particle mesh
   IRESTART =      0    0=no restart 2=restart with 2 vectors
   NREBOOT  =      0    no. of reboots
   NMIN     =      0    reboot dimension
   EREF     =   0.00    reference energy to select bands
   IMIX   =      4    mixing-type and parameters
     AMIX     =   0.40;   BMIX     =  0.01
     AMIX_MAG =   1.60;   BMIX_MAG =  0.01
     AMIN     =   0.01
     WC   =   100.;   INIMIX=   1;  MIXPRE=   1;  MAXMIX= -45

 Intra band minimization:
   WEIMIN = 0.0000     energy-eigenvalue tresh-hold
   EBREAK =  0.34E-07  absolut break condition
   DEPER  =   0.30     relativ break condition  

   TIME   =   0.40     timestep for ELM

  volume/ion in A,a.u.               =      62.72       423.28
  Fermi-wavevector in a.u.,A,eV,Ry     =   0.624944  1.180972  5.313816  0.390554
  Thomas-Fermi vector in A             =   1.685677
 
 Write flags
   LWAVE        =      F    write WAVECAR
   LDOWNSAMPLE  =      F    k-point downsampling of WAVECAR
   LCHARG       =      T    write CHGCAR
   LVTOT        =      T    write LOCPOT, total local potential
   LVHAR        =      F    write LOCPOT, Hartree potential only
   LELF         =      F    write electronic localiz. function (ELF)
   LORBIT       =      0    0 simple, 1 ext, 2 COOP (PROOUT), +10 PAW based schemes


 Dipole corrections
   LMONO  =      F    monopole corrections only (constant potential shift)
   LDIPOL =      T    correct potential (dipole corrections)
   IDIPOL =      3    1-x, 2-y, 3-z, 4-all directions 
   EPSILON=  1.0000000 bulk dielectric constant

 Exchange correlation treatment:
   GGA     =    --    GGA type
   LEXCH   =     8    internal setting for exchange type
   VOSKOWN=      0    Vosko Wilk Nusair interpolation
   LHFCALC =     F    Hartree Fock is set to
   LHFONE  =     F    Hartree Fock one center treatment
   AEXX    =    0.0000 exact exchange contribution

 Linear response parameters
   LEPSILON=     F    determine dielectric tensor
   LRPA    =     F    only Hartree local field effects (RPA)
   LNABLA  =     F    use nabla operator in PAW spheres
   LVEL    =     F    velocity operator in full k-point grid
   LINTERFAST=   F  fast interpolation
   KINTER  =     0    interpolate to denser k-point grid
   CSHIFT  =0.1000    complex shift for real part using Kramers Kronig
   OMEGAMAX=  -1.0    maximum frequency
   DEG_THRESHOLD= 0.2000000E-02 threshold for treating states as degnerate
   RTIME   =   -0.100 relaxation time in fs
  (WPLASMAI=    0.000 imaginary part of plasma frequency in eV, 0.658/RTIME)
   DFIELD  = 0.0000000 0.0000000 0.0000000 field for delta impulse in time
 
 Orbital magnetization related:
   ORBITALMAG=     F  switch on orbital magnetization
   LCHIMAG   =     F  perturbation theory with respect to B field
   DQ        =  0.001000  dq finite difference perturbation B field
   LLRAUG    =     F  two centre corrections for induced B field



--------------------------------------------------------------------------------------------------------


 Static calculation
 charge density and potential will be updated during run
 non-spin polarized calculation
 Variant of blocked Davidson
 Davidson routine will perform the subspace rotation
 perform sub-space diagonalisation
    after iterative eigenvector-optimisation
 modified Broyden-mixing scheme, WC =      100.0
 initial mixing is a Kerker type mixing with AMIX =  0.4000 and BMIX =      0.0100
 Hartree-type preconditioning will be used
 using additional bands           165
 real space projection scheme for non local part
[...]
     13.54561      0.00000     45.35368         0.003962     -0.011333      0.011630
     13.54315      9.03140     45.35368        -0.006839      0.003735     -0.009083
     13.00247      7.98908     33.81527        -0.021901     -0.070313     -0.001622
     13.31210      8.89855     32.35580         0.052589      0.098866     -0.065128
     11.91989      9.97808     34.88926        -0.079798     -0.055204      0.000311
     12.76104     11.52439     34.74091         0.047815      0.009721      0.059372
     15.35874      9.16570     35.53567        -0.179501      0.078142      0.005459
     14.25053     10.42326     36.14441         0.016818     -0.093194     -0.024487
     15.74330     10.16026     33.14364         0.002677      0.053294      0.061648
     14.42054     11.27385     32.68673         0.168459     -0.006206      0.039933
     15.72086      8.36190     32.41419         0.048831      0.010993     -0.053248
     15.58747      7.64491     34.00880        -0.050842     -0.011366     -0.041115
     15.75429      5.89194     32.42094        -0.007857      0.000721     -0.053386
     14.14413      5.82556     33.10829         0.027732      0.019391      0.093145
     11.46802      9.94169     32.43515         0.024985     -0.020296     -0.028828
     12.42570     11.44726     32.22406         0.005342     -0.026834     -0.021675
     10.94357     11.44764     33.16969         0.058861     -0.019629      0.043575
     13.63026      8.46225     37.28774        -0.000989     -0.108457     -0.025112
     13.62712      7.41607     35.85051         0.039896      0.103946      0.035311
     12.34804      8.62414     36.10224         0.065554      0.020192     -0.000496
     14.74905     12.49627     34.90794         0.023023     -0.045540     -0.073471
     16.24235     12.42243     33.96827         0.004245      0.010648     -0.054308
     16.02733     11.31681     35.33065         0.168734      0.023966      0.061949
     14.81618      6.87062     30.32138         0.141993      0.228124     -0.292534
     14.17550      5.28866     30.72270         0.015702     -0.080348     -0.018969
     11.97338      5.53585     32.46303        -0.019323      0.031983     -0.063919
     13.20988      8.31646     29.41870         0.082459      0.091396     -0.136817
      9.68849      6.48822     32.40454         0.003921      0.025711     -0.039876
     10.91036      9.25092     29.33980        -0.054728      0.114283     -0.124652
      9.14231      8.35817     30.86157        -0.038609      0.061298     -0.032614
     17.91406      4.37886     34.64432         0.059199      0.070136      0.672152
      0.63158     13.87442     35.21269        -0.174338      0.117619     -0.028194
      8.43797      4.11233     34.88645         0.049572      0.585534      0.160595
      9.11127     13.67807     34.73790        -0.054771     -0.117122     -0.040626
      4.27372      9.64957     34.94992        -0.275562     -0.086410      0.024592
      4.63191     17.95376     34.72002         0.320020     -0.007698     -0.143148
     13.94226     17.81437     35.12493        -0.102175     -0.382491      0.059898
      0.14233      4.45275     40.57759        -0.184536      0.193466     -0.253660
      0.18236     13.82174     40.81237        -0.505406      0.279586      0.054610
      9.04889      4.46091     40.51026        -0.437712      0.390201     -0.144154
      8.97388     13.55892     40.52179        -0.180465      0.193987      0.301973
      4.62361      8.96661     40.56607        -0.141062     -0.203927     -0.033208
      4.54473      0.02408     40.41359         0.017934     -0.012240     -0.080639
     13.47677      9.35262     40.82629         0.049764     -0.391296      0.375328
     13.59145     18.03802     40.54519         0.142035      0.125526     -0.010120
      9.02897      4.51561     46.44552         0.002172      0.010571      0.026497
      9.02651     13.54701     46.44552         0.026499     -0.011163      0.040630
     18.05937      4.51561     46.44552         0.021105     -0.001286      0.036085
     18.05691     13.54701     46.44552         0.011606      0.007774      0.004985
      4.51521      0.00002     46.44421        -0.007210     -0.008309      0.051595
      4.51275      9.03142     46.44421        -0.008041     -0.008842      0.045366
     13.54561      0.00002     46.44421        -0.012275     -0.016006      0.032348
     13.54315      9.03142     46.44421        -0.008350     -0.001508      0.013230
     12.75803      6.87382     30.94204        -0.037714     -0.156361      0.042783
     11.74279      6.34843     31.76668         0.060024      0.106395     -0.063447
     12.43316      7.91087     30.06241        -0.238478     -0.042990      0.145800
     10.45412      6.88366     31.73380         0.055822      0.020722     -0.013967
     11.13383      8.43413     30.02047         0.268798      0.102416     -0.096250
     10.14813      7.94178     30.86562        -0.095815     -0.330952      0.209165
     13.75912      8.59400     33.30441        -0.158497      0.058667     -0.103176
     12.55290     10.57626     34.23158         0.060798      0.048635     -0.009038
     14.30329      9.48850     35.57088        -0.060607     -0.079667     -0.042348
     14.93899     10.79573     33.53076        -0.164470     -0.051905      0.061711
     15.03913      7.79758     33.06479        -0.014369     -0.006448     -0.046710
     14.78331      6.41412     32.43641         0.005309     -0.020076      0.185700
     11.83322     10.84860     32.92871         0.012712      0.000937     -0.099060
     13.42299      8.43485     36.21119         0.017077     -0.052948      0.022187
     15.50913     11.81038     34.50752        -0.122113     -0.011792     -0.216557
     14.17211      6.34580     31.02672        -0.125445      0.017254      0.342637
      0.99536      4.42814     35.29673        -0.296435      0.096145      0.009145
      0.65322     12.80215     35.96014        -0.137189      0.023255     -0.038153
      9.66620      3.70962     35.12787        -0.205470     -0.117220      0.022145
      8.74847     12.58013     35.36267        -0.041731      0.135648     -0.009500
      7.99425      5.34342     35.07761         0.184296     -0.185588     -0.026121
      8.68996     14.87876     35.04771         0.072192      0.320138      0.032085
     16.73948      4.45625     35.23440         0.081210     -0.139709     -0.101218
     17.71007     14.75391     35.18071         0.020147      0.005698      0.066907
      4.23916      8.39017     35.33164         0.799434      0.304967      0.040395
      3.44492      0.28936     35.08664         0.089723      0.262498      0.351509
     12.65171     17.81169     35.36434         0.148628      0.646846      0.245486
      5.75178      0.54173     34.97940        -0.784299      0.257168      0.303906
      5.33516     10.41520     34.95710         0.320388     -0.176396      0.147152
     14.76455      0.74922     35.33372        -0.356818      0.309312      0.069835
      0.96576      3.59547     41.12267         0.354275     -0.282583     -0.228176
      1.07023     12.92657     41.14085         0.574531     -0.513702      0.009758
      9.93193      3.71671     41.11943         0.282897     -0.293584      0.058813
      9.70510     12.71884     41.20990        -0.018162     -0.006684      0.695357
      3.85794      8.05796     41.11748        -0.096173     -0.019894      0.300873
      3.64940     17.34094     41.02242         0.167415      0.119954      0.264464
     12.63064      8.44322     41.25028        -0.034795     -0.144716      0.068501
     12.79201     17.18829     41.13821         0.024988      0.066872      0.373148
      8.26568      5.35050     41.08682         0.133024     -0.184522     -0.114810
      8.14168     14.44499     41.02064         0.073105     -0.031230     -0.060230
     17.25348      5.11470     41.19607         0.099223     -0.076643      0.132889
     17.03172     13.90999     41.31486        -0.184005     -0.291215      0.246821
      5.45111      0.78125     40.98426        -0.065526     -0.035274     -0.145981
      5.31017      9.87919     41.19738         0.379513      0.527998      0.119390
     14.36369      0.86216     41.13765        -0.129827     -0.094170     -0.141802
     14.77745      9.29543     40.99905        -0.238575     -0.103125     -0.042658
      0.82731      3.68697     47.03596         0.013633     -0.021313     -0.091641
      0.82485     12.71837     47.03596         0.025371     -0.027018     -0.068453
      9.85771      3.68697     47.03596         0.026730     -0.030918     -0.081189
      9.85525     12.71837     47.03596         0.007813     -0.011854     -0.082773
      3.68432      8.20234     47.03465        -0.005036     -0.006676     -0.068406
      3.68186     17.23373     47.03465        -0.005417     -0.003115     -0.062809
     12.71472      8.20234     47.03465        -0.008962     -0.015669     -0.062012
     12.71226     17.23373     47.03465        -0.010289     -0.000750     -0.067843
      8.20068      5.34457     47.03603        -0.017715      0.012735     -0.084177
      8.19822     14.37597     47.03603        -0.029021      0.027518     -0.084439
     17.23108      5.34457     47.03603        -0.031859      0.021571     -0.103383
     17.22862     14.37597     47.03603        -0.019124      0.019610     -0.067895
      5.34365      0.82909     47.03465         0.012427      0.012219     -0.062599
      5.34119      9.86049     47.03465         0.015772      0.016434     -0.070571
     14.37405      0.82909     47.03465         0.019645      0.025844     -0.068409
     14.37159      9.86049     47.03465         0.020044      0.017808     -0.071982
     13.89757      9.85262     34.14347         0.127159      0.017336      0.066885
      9.20552      0.24409     34.43802         0.056031     -0.002752      0.044156
      8.73710      9.10266     34.64571         0.039928     -0.052032     -0.081537
      0.04090      0.16361     34.48481        -0.008644      0.000685     -0.024116
      0.53528      9.10901     34.68621        -0.115297     -0.010564     -0.037795
      4.52432      4.47791     34.54674         0.008105     -0.033767      0.007133
      4.45281     13.84592     34.53408         0.008594     -0.013232      0.017738
     13.23263      3.80453     34.73810         0.041240      0.084905     -0.019327
     12.63343     14.37502     34.66790         0.028661     -0.031113     -0.070152
     17.98129     17.80197     40.89618         0.026206      0.009683     -0.017183
      0.25787      8.93692     40.98667         0.024949      0.009089     -0.077420
      9.02453      0.08493     40.88765         0.000107     -0.012349     -0.009630
      9.07195      8.95047     40.92347         0.018740      0.005515     -0.008096
      4.64206      4.40398     40.89532        -0.029402      0.004627      0.048286
      4.59744     13.64819     40.89597        -0.034842      0.000602     -0.007142
     13.48968      4.83221     40.93002        -0.001995     -0.010684      0.039561
     13.46857     13.42614     40.89626         0.001691     -0.012031     -0.032781
      2.34880      2.19212     37.96420         0.021852      0.003097     -0.000866
      2.75741     10.94784     38.04207        -0.018789     -0.016794      0.009379
     11.56441      2.05688     38.13923        -0.015764     -0.013215      0.008654
     11.36176     11.20629     38.07631         0.037596      0.028935     -0.057445
      6.58226      6.99606     37.97352        -0.051196      0.021467     -0.034910
      6.72783     15.93920     37.89303         0.000428      0.022822     -0.011179
     16.02764      6.69657     38.08010        -0.005743     -0.071263     -0.016334
     15.66882     15.91847     37.88882        -0.034433     -0.016572      0.021325
      2.21689      6.60468     38.01020         0.010783     -0.047546     -0.001179
      2.22228     15.82613     37.92657        -0.008566      0.001112      0.012927
     10.75520      6.26652     37.61639        -0.007494     -0.004713     -0.017699
     11.10842     15.65429     38.28788        -0.004801      0.005903      0.013524
      6.95869      2.39954     37.85946         0.032641     -0.027942      0.005215
      6.92706     11.42628     38.19849         0.024128      0.034379     -0.052242
     15.93397      2.45751     38.29073         0.044767      0.063769     -0.055903
     16.30816     11.61434     38.43133        -0.150250      0.017669     -0.218485
      0.00000      0.00000     47.17356        -0.002276      0.006776      0.379826
     -0.00246      9.03140     47.17356        -0.003842     -0.003841      0.510344
      9.03040      0.00000     47.17356         0.001481      0.000585      0.371992
      9.02794      9.03140     47.17356        -0.002628     -0.001355      0.436877
      4.51398      4.51570     47.17425        -0.000426     -0.004851      0.414164
      4.51152     13.54710     47.17425         0.004602      0.000091      0.409075
     13.54438      4.51570     47.17425         0.004424      0.000374      0.391925
     13.54192     13.54710     47.17425        -0.002898     -0.003051      0.413979
      2.45192      2.06295     44.04013        -0.000664     -0.032437     -0.025587
      2.44946     11.09435     44.04013         0.037074     -0.013612     -0.027390
     11.48232      2.06295     44.04013         0.040400      0.016820     -0.054453
     11.47986     11.09435     44.04013        -0.068683      0.024131      0.004558
      6.57602      6.96845     44.04013         0.005572     -0.007867     -0.047379
      6.57356     15.99985     44.04013         0.030063      0.012396     -0.054791
     15.60642      6.96845     44.04013        -0.014932     -0.017504     -0.077528
     15.60396     15.99985     44.04013        -0.059134      0.040764     -0.009425
      2.06108      6.57881     44.04000         0.055878     -0.036641     -0.010570
      2.05862     15.61021     44.04000         0.061213      0.064432     -0.024771
     11.09148      6.57881     44.04000        -0.037480     -0.066115      0.002136
     11.08902     15.61021     44.04000        -0.018710      0.020210     -0.043990
      6.96686      2.45259     44.04007        -0.004271     -0.043464     -0.036721
      6.96440     11.48399     44.04007         0.016301      0.015164     -0.032322
     15.99726      2.45259     44.04007         0.010286      0.048362     -0.076445
     15.99481     11.48399     44.04007         0.026003      0.016842     -0.085128
      2.43163      2.08322     50.06849         0.006137     -0.013275      0.022077
      2.42917     11.11462     50.06849         0.017531     -0.004331      0.024787
     11.46203      2.08322     50.06849         0.008632     -0.012395      0.022005
     11.45957     11.11462     50.06849         0.009612     -0.010152      0.024289
      6.59631      6.94818     50.06849        -0.013273      0.006526      0.023621
      6.59385     15.97958     50.06849        -0.004426      0.016559      0.022702
     15.62671      6.94818     50.06849        -0.020623     -0.002210      0.021444
     15.62425     15.97958     50.06849        -0.007924      0.016073      0.025407
      2.08113      6.59901     50.06905        -0.003450     -0.019379      0.023409
      2.07867     15.63041     50.06905        -0.013945     -0.005227      0.024266
     11.11153      6.59901     50.06905        -0.005716     -0.016730      0.023605
     11.10907     15.63041     50.06905        -0.016467     -0.004144      0.023429
      6.94681      2.43239     50.06905         0.015103      0.004253      0.023370
      6.94435     11.46379     50.06905         0.008552      0.011295      0.023999
     15.97721      2.43239     50.06905         0.009512      0.010049      0.022183
     15.97475     11.46379     50.06905         0.002472      0.015189      0.024854
     18.00365      0.06888     37.79530         0.009851     -0.007285      0.006678
      0.11011      9.10964     37.79662         0.054709     -0.014977     -0.008169
      9.08378      0.05321     37.76287         0.013451      0.010315      0.024705
      9.08045      9.03453     37.75373        -0.063246     -0.019328      0.061181
      4.56665      4.53854     37.75505        -0.029918      0.058925     -0.009374
      4.47449     13.58391     37.71819         0.040588      0.012267     -0.041704
     13.48386      4.60695     37.81327        -0.009022     -0.027147      0.024815
     13.39939     13.67542     37.71571         0.011168     -0.007716      0.006981
      0.00001      0.00001     44.04300        -0.009281     -0.150754      0.118016
     -0.00245      9.03141     44.04300         0.056699      0.013596      0.176985
      9.03041      0.00001     44.04300        -0.015811     -0.002958      0.115666
      9.02795      9.03141     44.04300         0.039701      0.013699      0.208741
      4.51397      4.51569     44.04275         0.016574      0.033927      0.076348
      4.51151     13.54709     44.04275        -0.082676      0.027508      0.126518
     13.54437      4.51569     44.04275        -0.069104      0.005089      0.203764
     13.54191     13.54709     44.04275        -0.015216      0.016791      0.117215
      0.00000      0.00000     50.44728         0.000285     -0.006516     -0.622756
     -0.00246      9.03140     50.44728         0.001371      0.005050     -0.654851
      9.03040      0.00000     50.44728        -0.002758     -0.003554     -0.619294
      9.02794      9.03140     50.44728        -0.001260      0.003325     -0.639097
      4.51397      4.51570     50.44728        -0.003915      0.009795     -0.631542
      4.51151     13.54710     50.44728        -0.004995     -0.011758     -0.631720
     13.54437      4.51570     50.44728         0.001563      0.010974     -0.621814
     13.54191     13.54710     50.44728         0.005166     -0.010806     -0.635351
 -----------------------------------------------------------------------------------
    total drift:                                0.186344      0.134391      0.603576


--------------------------------------------------------------------------------------------------------



  FREE ENERGIE OF THE ION-ELECTRON SYSTEM (eV)
  ---------------------------------------------------
  free  energy   TOTEN  =     -1575.77292309 eV

  energy  without entropy=    -1575.77292309  energy(sigma->0) =    -1575.77292309
 


--------------------------------------------------------------------------------------------------------


    POTLOK:  cpu time    0.5033: real time    0.5033


--------------------------------------------------------------------------------------------------------


     LOOP+:  cpu time  302.2157: real time  302.6186
 vacuum level on the upper side and lower side of the slab         2.339         1.524
    4ORBIT:  cpu time    0.0000: real time    0.0000

 total amount of memory used by VASP MPI-rank0  8653580. kBytes
=======================================================================

   base      :      30000. kBytes
   nonlr-proj:      53618. kBytes
   fftplans  :     249280. kBytes
   grid      :     701440. kBytes
   one-center:       2636. kBytes
   wavefun   :    7616606. kBytes
 
  
  
 General timing and accounting informations for this job:
 ========================================================
  
                  Total CPU time used (sec):      516.942
                            User time (sec):      418.475
                          System time (sec):       98.466
                         Elapsed time (sec):      518.348
  
                   Maximum memory used (kb):    10308428.
                   Average memory used (kb):          N/A
  
                          Minor page faults:      3684925
                          Major page faults:           11
                 Voluntary context switches:        11180
