 vasp.6.2.1 16May21 (build Nov 15 2021 14:57:28) complex                         
 executed on             LinuxPGI date 2023.07.24  21:58:06
 running on    4 total cores
 distrk:  each k-point on    4 cores,    1 groups
 distr:  one band on NCORE=   1 cores,    4 groups


--------------------------------------------------------------------------------------------------------


 INCAR:
   SYSTEM = PSC
   ISTART = 1
   ICHARG = 1
   PREC = Normal
   ENCUT = 500
   GGA_COMPAT = F
   NELM = 600
   ISYM = 0
   LREAL = Auto
   ISMEAR = 0
   SIGMA = 0.05
   AMIN = 0.01
   BMIX = 0.01
   LVTOT = T
   LWAVE = F
   LDIPOL = T
   IDIPOL = 3
   LVDW = T
   IVDW = 12

 POTCAR:    PAW_PBE H 15Jun2001                   
 POTCAR:    PAW_PBE C 08Apr2002                   
 POTCAR:    PAW_PBE N 08Apr2002                   
 POTCAR:    PAW_PBE I 08Apr2002                   
 POTCAR:    PAW_PBE Pb 08Apr2002                  
 WARNING: For LVTOT=.TRUE., VASP.5.x writes the TOTAL local potential to the
     file LOCPOT. If you want only the Hartree contributions, use LVHAR=.TRUE.
     instead. 

 POTCAR:    PAW_PBE H 15Jun2001                   
   SHA256 =  030f79b5d3ab3cf0e668861823c8fb652ff669f3e15e46930bd03bfd63a607b6 H/POTCAR              
   COPYR  = (c) Copyright 15Jun2001 Georg Kresse                                                    
   COPYR  = This file is part of the software VASP. Any use, copying, and all other rights are regul
   COPYR  = If you do not have a valid VASP license, you may not use, copy or distribute this file. 
   VRHFIN =H: ultrasoft test                                                                        
   LEXCH  = PE                                                                                      
   EATOM  =    12.4884 eV,    0.9179 Ry                                                             
                                                                                                    
   TITEL  = PAW_PBE H 15Jun2001                                                                     
   LULTRA =        F    use ultrasoft PP ?                                                          
   IUNSCR =        0    unscreen: 0-lin 1-nonlin 2-no                                               
   RPACOR =    0.000    partial core radius                                                         
   POMASS =    1.000; ZVAL   =    1.000    mass and valenz                                          
   RCORE  =    1.100    outmost cutoff radius                                                       
   RWIGS  =    0.700; RWIGS  =    0.370    wigner-seitz radius (au A)                               
   ENMAX  =  250.000; ENMIN  =  200.000 eV                                                          
   RCLOC  =    0.701    cutoff for local pot                                                        
   LCOR   =        T    correct aug charges                                                         
   LPAW   =        T    paw PP                                                                      
   EAUG   =  400.000                                                                                
   RMAX   =    1.123    core radius for proj-oper                                                   
   RAUG   =    1.200    factor for augmentation sphere                                              
   RDEP   =    1.112    radius for radial grids                                                     
   RDEPT  =    0.926    core radius for aug-charge                                                  
                                                                                                    
   Atomic configuration                                                                             
    2 entries                                                                                       
     n  l   j            E        occ.                                                              
     1  0  0.50        -6.4927   1.0000                                                             
     2  1  0.50        -3.4015   0.0000                                                             
   Description                                                                                      
     l       E           TYP  RCUT    TYP  RCUT                                                     
     0     -6.4927494     23  1.100                                                                 
     0      6.8029130     23  1.100                                                                 
     1     -4.0817478     23  1.100                                                                 
  local pseudopotential read in
  atomic valenz-charges read in
  non local Contribution for L=            0  read in
    real space projection operators read in
  non local Contribution for L=            0  read in
    real space projection operators read in
  non local Contribution for L=            1  read in
    real space projection operators read in
    PAW grid and wavefunctions read in
 
   number of l-projection  operators is LMAX  =            3
   number of lm-projection operators is LMMAX =            5
 
 POTCAR:    PAW_PBE C 08Apr2002                   
   SHA256 =  253f7b50bb8d59471dbedb8285d89021f4a42ed1a2c5d38a03a736e69125dd95 C/POTCAR              
   COPYR  = (c) Copyright 08Apr2002 Georg Kresse                                                    
   COPYR  = This file is part of the software VASP. Any use, copying, and all other rights are regul
   COPYR  = If you do not have a valid VASP license, you may not use, copy or distribute this file. 
   VRHFIN =C: s2p2                                                                                  
   LEXCH  = PE                                                                                      
   EATOM  =   147.1560 eV,   10.8157 Ry                                                             
                                                                                                    
   TITEL  = PAW_PBE C 08Apr2002                                                                     
   LULTRA =        F    use ultrasoft PP ?                                                          
   IUNSCR =        1    unscreen: 0-lin 1-nonlin 2-no                                               
   RPACOR =    1.200    partial core radius                                                         
   POMASS =   12.011; ZVAL   =    4.000    mass and valenz                                          
   RCORE  =    1.500    outmost cutoff radius                                                       
   RWIGS  =    1.630; RWIGS  =    0.863    wigner-seitz radius (au A)                               
   ENMAX  =  400.000; ENMIN  =  300.000 eV                                                          
   ICORE  =        2    local potential                                                             
   LCOR   =        T    correct aug charges                                                         
   LPAW   =        T    paw PP                                                                      
   EAUG   =  644.873                                                                                
   DEXC   =    0.000                                                                                
   RMAX   =    1.529    core radius for proj-oper                                                   
   RAUG   =    1.300    factor for augmentation sphere                                              
   RDEP   =    1.501    radius for radial grids                                                     
   RDEPT  =    1.300    core radius for aug-charge                                                  
                                                                                                    
   Atomic configuration                                                                             
    4 entries                                                                                       
     n  l   j            E        occ.                                                              
     1  0  0.50      -273.3789   2.0000                                                             
     2  0  0.50       -13.7508   2.0000                                                             
     2  1  0.50        -5.2854   2.0000                                                             
     3  2  1.50        -5.4423   0.0000                                                             
   Description                                                                                      
     l       E           TYP  RCUT    TYP  RCUT                                                     
     0    -13.7508458     23  1.200                                                                 
     0     -8.2022199     23  1.200                                                                 
     1     -5.2854383     23  1.500                                                                 
     1     34.0145650     23  1.500                                                                 
     2     -5.4423304      7  1.500                                                                 
  local pseudopotential read in
  partial core-charges read in
  partial kinetic energy density read in
  atomic valenz-charges read in
  non local Contribution for L=            0  read in
    real space projection operators read in
  non local Contribution for L=            0  read in
    real space projection operators read in
  non local Contribution for L=            1  read in
    real space projection operators read in
  non local Contribution for L=            1  read in
    real space projection operators read in
    PAW grid and wavefunctions read in
 
   number of l-projection  operators is LMAX  =            4
   number of lm-projection operators is LMMAX =            8
 
 POTCAR:    PAW_PBE N 08Apr2002                   
   SHA256 =  e053789ff3a61a86a1b75d8a110fcc91f86041011e7b0817c7c99e4e8a6349d7 N/POTCAR              
   COPYR  = (c) Copyright 08Apr2002 Georg Kresse                                                    
   COPYR  = This file is part of the software VASP. Any use, copying, and all other rights are regul
   COPYR  = If you do not have a valid VASP license, you may not use, copy or distribute this file. 
   VRHFIN =N: s2p3                                                                                  
   LEXCH  = PE                                                                                      
   EATOM  =   264.5486 eV,   19.4438 Ry                                                             
                                                                                                    
   TITEL  = PAW_PBE N 08Apr2002                                                                     
   LULTRA =        F    use ultrasoft PP ?                                                          
   IUNSCR =        1    unscreen: 0-lin 1-nonlin 2-no                                               
   RPACOR =    1.200    partial core radius                                                         
   POMASS =   14.001; ZVAL   =    5.000    mass and valenz                                          
   RCORE  =    1.500    outmost cutoff radius                                                       
   RWIGS  =    1.400; RWIGS  =    0.741    wigner-seitz radius (au A)                               
   ENMAX  =  400.000; ENMIN  =  300.000 eV                                                          
   ICORE  =        2    local potential                                                             
   LCOR   =        T    correct aug charges                                                         
   LPAW   =        T    paw PP                                                                      
   EAUG   =  627.112                                                                                
   DEXC   =    0.000                                                                                
   RMAX   =    1.529    core radius for proj-oper                                                   
   RAUG   =    1.300    factor for augmentation sphere                                              
   RDEP   =    1.514    radius for radial grids                                                     
   RDEPT  =    1.338    core radius for aug-charge                                                  
                                                                                                    
   Atomic configuration                                                                             
    4 entries                                                                                       
     n  l   j            E        occ.                                                              
     1  0  0.50      -384.7179   2.0000                                                             
     2  0  0.50       -18.5828   2.0000                                                             
     2  1  0.50        -7.0898   3.0000                                                             
     3  2  1.50        -6.8029   0.0000                                                             
   Description                                                                                      
     l       E           TYP  RCUT    TYP  RCUT                                                     
     0    -18.5828119     23  1.200                                                                 
     0    -13.5018863     23  1.200                                                                 
     1     -7.0897853     23  1.500                                                                 
     1      9.5240782     23  1.500                                                                 
     2     -6.8029130      7  1.500                                                                 
  local pseudopotential read in
  partial core-charges read in
  partial kinetic energy density read in
  atomic valenz-charges read in
  non local Contribution for L=            0  read in
    real space projection operators read in
  non local Contribution for L=            0  read in
    real space projection operators read in
  non local Contribution for L=            1  read in
    real space projection operators read in
  non local Contribution for L=            1  read in
    real space projection operators read in
    PAW grid and wavefunctions read in
 
   number of l-projection  operators is LMAX  =            4
   number of lm-projection operators is LMMAX =            8
 
 POTCAR:    PAW_PBE I 08Apr2002                   
   SHA256 =  e40f3f59b681c1fc3e3091736183c4589116986673d2b852a5012aec72758799 I/POTCAR              
   COPYR  = (c) Copyright 08Apr2002 Georg Kresse                                                    
   COPYR  = This file is part of the software VASP. Any use, copying, and all other rights are regul
   COPYR  = If you do not have a valid VASP license, you may not use, copy or distribute this file. 
   VRHFIN =I : s2p5                                                                                 
   LEXCH  = PE                                                                                      
   EATOM  =   315.8678 eV,   23.2156 Ry                                                             
                                                                                                    
   TITEL  = PAW_PBE I 08Apr2002                                                                     
   LULTRA =        F    use ultrasoft PP ?                                                          
   IUNSCR =        1    unscreen: 0-lin 1-nonlin 2-no                                               
   RPACOR =    2.200    partial core radius                                                         
   POMASS =  126.904; ZVAL   =    7.000    mass and valenz                                          
   RCORE  =    2.300    outmost cutoff radius                                                       
   RWIGS  =    2.810; RWIGS  =    1.487    wigner-seitz radius (au A)                               
   ENMAX  =  175.647; ENMIN  =  131.735 eV                                                          
   ICORE  =        3    local potential                                                             
   LCOR   =        T    correct aug charges                                                         
   LPAW   =        T    paw PP                                                                      
   EAUG   =  370.139                                                                                
   DEXC   =    0.000                                                                                
   RMAX   =    2.359    core radius for proj-oper                                                   
   RAUG   =    1.300    factor for augmentation sphere                                              
   RDEP   =    2.392    radius for radial grids                                                     
   RDEPT  =    2.170    core radius for aug-charge                                                  
                                                                                                    
   Atomic configuration                                                                             
   13 entries                                                                                       
     n  l   j            E        occ.                                                              
     1  0  0.50    -32976.3739   2.0000                                                             
     2  0  0.50     -5094.5933   2.0000                                                             
     2  1  1.50     -4572.0131   6.0000                                                             
     3  0  0.50     -1028.2813   2.0000                                                             
     3  1  1.50      -859.0250   6.0000                                                             
     3  2  2.50      -605.7620  10.0000                                                             
     4  0  0.50      -180.5540   2.0000                                                             
     4  1  1.50      -127.5306   6.0000                                                             
     4  2  2.50       -50.2720  10.0000                                                             
     5  0  0.50       -17.4058   2.0000                                                             
     5  1  0.50        -7.0851   5.0000                                                             
     5  2  1.50        -7.0750   0.0000                                                             
     4  3  2.50        -7.0750   0.0000                                                             
   Description                                                                                      
     l       E           TYP  RCUT    TYP  RCUT                                                     
     0    -17.4058016     23  2.300                                                                 
     0    -18.7663842     23  2.300                                                                 
     1     -7.0850686     23  2.300                                                                 
     1     -4.2150896     23  2.300                                                                 
     2     -7.0750295     23  2.300                                                                 
     3     -1.3605826     23  2.300                                                                 
  local pseudopotential read in
  partial core-charges read in
  partial kinetic energy density read in
  atomic valenz-charges read in
  non local Contribution for L=            0  read in
    real space projection operators read in
  non local Contribution for L=            0  read in
    real space projection operators read in
  non local Contribution for L=            1  read in
    real space projection operators read in
  non local Contribution for L=            1  read in
    real space projection operators read in
  non local Contribution for L=            2  read in
    real space projection operators read in
    PAW grid and wavefunctions read in
 
   number of l-projection  operators is LMAX  =            5
   number of lm-projection operators is LMMAX =           13
 
 POTCAR:    PAW_PBE Pb 08Apr2002                  
   SHA256 =  797118a27cf1bcd06b9881c67a26cdde129e3cd1a551dd4a281f9681ce847303 Pb/POTCAR             
   COPYR  = (c) Copyright 08Apr2002 Georg Kresse                                                    
   COPYR  = This file is part of the software VASP. Any use, copying, and all other rights are regul
   COPYR  = If you do not have a valid VASP license, you may not use, copy or distribute this file. 
   VRHFIN =Pb:                                                                                      
   LEXCH  = PE                                                                                      
   EATOM  =    96.9868 eV,    7.1283 Ry                                                             
                                                                                                    
   TITEL  = PAW_PBE Pb 08Apr2002                                                                    
   LULTRA =        F    use ultrasoft PP ?                                                          
   IUNSCR =        1    unscreen: 0-lin 1-nonlin 2-no                                               
   RPACOR =    2.200    partial core radius                                                         
   POMASS =  207.200; ZVAL   =    4.000    mass and valenz                                          
   RCORE  =    3.100    outmost cutoff radius                                                       
   RWIGS  =    3.260; RWIGS  =    1.725    wigner-seitz radius (au A)                               
   ENMAX  =   97.973; ENMIN  =   73.480 eV                                                          
   ICORE  =        3    local potential                                                             
   LCOR   =        T    correct aug charges                                                         
   LPAW   =        T    paw PP                                                                      
   EAUG   =  234.873                                                                                
   DEXC   =    0.000                                                                                
   RMAX   =    3.158    core radius for proj-oper                                                   
   RAUG   =    1.300    factor for augmentation sphere                                              
   RDEP   =    3.202    radius for radial grids                                                     
   RDEPT  =    2.659    core radius for aug-charge                                                  
                                                                                                    
   Atomic configuration                                                                             
   17 entries                                                                                       
     n  l   j            E        occ.                                                              
     1  0  0.50    -88091.8466   2.0000                                                             
     2  0  0.50    -15753.4197   2.0000                                                             
     2  1  1.50    -13508.1797   6.0000                                                             
     3  0  0.50     -3781.7194   2.0000                                                             
     3  1  1.50     -3138.2529   6.0000                                                             
     3  2  2.50     -2483.2977  10.0000                                                             
     4  0  0.50      -856.2895   2.0000                                                             
     4  1  1.50      -645.4943   6.0000                                                             
     4  2  2.50      -401.8768  10.0000                                                             
     4  3  3.50      -132.9059  14.0000                                                             
     5  0  0.50      -144.0950   2.0000                                                             
     5  1  1.50       -85.7879   6.0000                                                             
     5  2  2.50       -21.1769  10.0000                                                             
     6  0  0.50       -12.0372   2.0000                                                             
     6  1  1.50        -3.4971   2.0000                                                             
     6  2  2.50        -1.3606   0.0000                                                             
     5  3  2.50        -2.7212   0.0000                                                             
   Description                                                                                      
     l       E           TYP  RCUT    TYP  RCUT                                                     
     0    -12.0371566     23  3.100                                                                 
     0    -13.3977392     23  3.100                                                                 
     1     -3.4971341     23  3.100                                                                 
     1     -5.4423304     23  3.100                                                                 
     2     -1.3605826     23  3.100                                                                 
     3     -1.3605826     23  3.100                                                                 
  local pseudopotential read in
  partial core-charges read in
  partial kinetic energy density read in
  atomic valenz-charges read in
  non local Contribution for L=            0  read in
    real space projection operators read in
  non local Contribution for L=            0  read in
    real space projection operators read in
  non local Contribution for L=            1  read in
    real space projection operators read in
  non local Contribution for L=            1  read in
    real space projection operators read in
  non local Contribution for L=            2  read in
    real space projection operators read in
    PAW grid and wavefunctions read in
 
   number of l-projection  operators is LMAX  =            5
   number of lm-projection operators is LMMAX =           13
 
 Optimization of the real space projectors (new method)

 maximal supplied QI-value         = 34.20
 optimisation between [QCUT,QGAM] = [ 11.29, 22.57] = [ 35.68,142.71] Ry 
 Optimized for a Real-space Cutoff    1.16 Angstroem

   l    n(q)    QCUT    max X(q) W(low)/X(q) W(high)/X(q)  e(spline) 
   0      8    11.287    19.460    0.40E-03    0.73E-03    0.16E-06
   0      8    11.287    12.209    0.38E-03    0.70E-03    0.15E-06
   1      7    11.287     4.655    0.22E-03    0.25E-04    0.22E-06
 Optimization of the real space projectors (new method)

 maximal supplied QI-value         = 25.13
 optimisation between [QCUT,QGAM] = [ 11.31, 22.87] = [ 35.82,146.48] Ry 
 Optimized for a Real-space Cutoff    1.00 Angstroem

   l    n(q)    QCUT    max X(q) W(low)/X(q) W(high)/X(q)  e(spline) 
   0      7    11.310   115.676    0.43E-03    0.13E-02    0.19E-06
   0      7    11.310    87.132    0.43E-03    0.13E-02    0.18E-06
   1      6    11.310     4.429    0.42E-03    0.74E-03    0.11E-06
   1      6    11.310     2.733    0.34E-03    0.55E-03    0.92E-07
 Optimization of the real space projectors (new method)

 maximal supplied QI-value         = 25.13
 optimisation between [QCUT,QGAM] = [ 11.31, 22.87] = [ 35.82,146.48] Ry 
 Optimized for a Real-space Cutoff    1.27 Angstroem

   l    n(q)    QCUT    max X(q) W(low)/X(q) W(high)/X(q)  e(spline) 
   0      9    11.310    79.467    0.75E-04    0.16E-03    0.36E-06
   0      9    11.310    66.151    0.74E-04    0.16E-03    0.36E-06
   1      8    11.310    17.416    0.35E-03    0.12E-03    0.95E-06
   1      8    11.310    12.382    0.37E-03    0.13E-03    0.98E-06
 Optimization of the real space projectors (new method)

 maximal supplied QI-value         = 16.25
 optimisation between [QCUT,QGAM] = [ 11.38, 22.75] = [ 36.24,144.96] Ry 
 Optimized for a Real-space Cutoff    1.31 Angstroem

   l    n(q)    QCUT    max X(q) W(low)/X(q) W(high)/X(q)  e(spline) 
   0      9    11.376   194.483    0.24E-03    0.23E-03    0.67E-07
   0      9    11.376   190.334    0.23E-03    0.22E-03    0.65E-07
   1      8    11.376   116.687    0.25E-03    0.63E-04    0.16E-06
   1      8    11.376    88.696    0.25E-03    0.61E-04    0.16E-06
   2      8    11.376     4.877    0.17E-03    0.14E-03    0.29E-07
 Optimization of the real space projectors (new method)

 maximal supplied QI-value         = 12.09
 optimisation between [QCUT,QGAM] = [ 11.37, 22.86] = [ 36.19,146.31] Ry 
 Optimized for a Real-space Cutoff    1.66 Angstroem

   l    n(q)    QCUT    max X(q) W(low)/X(q) W(high)/X(q)  e(spline) 
   0     11    11.369   135.111    0.12E-03    0.69E-04    0.19E-05
   0     11    11.369   146.850    0.11E-03    0.65E-04    0.18E-05
   1     11    11.369   148.016    0.17E-03    0.32E-03    0.89E-06
   1     11    11.369   122.989    0.17E-03    0.32E-03    0.91E-06
   2     10    11.369     8.916    0.12E-03    0.45E-04    0.33E-06
  PAW_PBE H 15Jun2001                   :
 energy of atom  1       EATOM=  -12.4884
 kinetic energy error for atom=    0.0020 (will be added to EATOM!!)
  PAW_PBE C 08Apr2002                   :
 energy of atom  2       EATOM= -147.1560
 kinetic energy error for atom=    0.0076 (will be added to EATOM!!)
  PAW_PBE N 08Apr2002                   :
 energy of atom  3       EATOM= -264.5486
 kinetic energy error for atom=    0.0138 (will be added to EATOM!!)
  PAW_PBE I 08Apr2002                   :
 energy of atom  4       EATOM= -315.8678
 kinetic energy error for atom=    0.0009 (will be added to EATOM!!)
  PAW_PBE Pb 08Apr2002                  :
 energy of atom  5       EATOM=  -96.9868
 kinetic energy error for atom=    0.0000 (will be added to EATOM!!)
 
 
 POSCAR:  H  C  N  I Pb
  positions in cartesian coordinates
  No initial velocities read in
 exchange correlation table for  LEXCH =        8
   RHO(1)=    0.500       N(1)  =     2000
   RHO(2)=  100.500       N(2)  =     4000
 


--------------------------------------------------------------------------------------------------------


 ion  position               nearest neighbor table
   1  0.443  0.303  0.580- 187 1.06
   2  0.442  0.819  0.581- 188 1.07
   3  0.972  0.309  0.579- 189 1.05
   4  0.970  0.806  0.582- 190 1.03
   5  0.314  0.021  0.582- 194 1.01
   6  0.303  0.551  0.581- 195 1.01
   7  0.776  0.062  0.583- 196 1.00
   8  0.069  0.139  0.562- 183 1.03
   9  0.062  0.652  0.556- 184 1.01
  10  0.592  0.190  0.556- 185 1.02
  11  0.561  0.668  0.560- 186 1.01
  12  0.340  0.063  0.558- 194 1.06
  13  0.307  0.598  0.556- 195 1.06
  14  0.830  0.081  0.560- 196 1.06
  15  0.036  0.185  0.585- 183 1.06
  16  0.042  0.685  0.582- 184 1.06
  17  0.570  0.243  0.579- 185 1.07
  18  0.514  0.694  0.582- 186 1.02
  19  0.221  0.439  0.583- 191 1.00
  20  0.193  0.950  0.582- 192 1.00
  21  0.689  0.955  0.581- 193 1.01
  22  0.388  0.288  0.557- 187 1.01
  23  0.452  0.866  0.557- 188 1.02
  24  0.967  0.339  0.553- 189 1.02
  25  0.946  0.844  0.558- 190 1.02
  26  0.173  0.416  0.559- 191 1.06
  27  0.142  0.952  0.558- 192 1.06
  28  0.689  0.903  0.557- 193 1.07
  29  0.478  0.215  0.540- 146 1.08
  30  0.528  0.776  0.541- 147 1.09
  31  0.025  0.232  0.539- 144 1.09
  32  0.003  0.746  0.539- 145 1.07
  33  0.224  0.514  0.540- 148 1.10
  34  0.233  0.024  0.541- 149 1.10
  35  0.777  0.979  0.542- 150 1.10
  36  0.457  0.308  0.676- 205 1.06
  37  0.439  0.809  0.675- 206 1.05
  38  0.953  0.292  0.678- 207 1.06
  39  0.942  0.804  0.676- 208 1.00
  40  0.297  0.050  0.676- 209 1.06
  41  0.300  0.558  0.676- 210 1.06
  42  0.803  0.049  0.675- 211 1.07
  43  0.804  0.574  0.673- 212 1.01
  44  0.083  0.170  0.648- 197 1.00
  45  0.088  0.685  0.654- 198 0.99
  46  0.571  0.162  0.651- 199 1.00
  47  0.571  0.672  0.653- 200 1.05
  48  0.184  0.416  0.649- 201 1.00
  49  0.171  0.918  0.649- 202 0.98
  50  0.682  0.418  0.656- 203 1.05
  51  0.664  0.927  0.649- 204 0.98
  52  0.058  0.192  0.674- 197 1.00
  53  0.043  0.702  0.678- 198 1.00
  54  0.560  0.205  0.675- 199 1.01
  55  0.541  0.704  0.678- 200 1.04
  56  0.209  0.443  0.675- 201 1.07
  57  0.195  0.946  0.675- 202 1.06
  58  0.701  0.467  0.680- 203 1.03
  59  0.692  0.955  0.675- 204 1.06
  60  0.413  0.319  0.651- 205 1.01
  61  0.416  0.832  0.649- 206 1.00
  62  0.921  0.323  0.653- 207 1.05
  63  0.931  0.841  0.651- 208 1.02
  64  0.327  0.076  0.650- 209 1.01
  65  0.322  0.590  0.650- 210 0.98
  66  0.835  0.070  0.649- 211 1.01
  67  0.835  0.580  0.647- 212 1.08
  68  0.998  0.251  0.633- 151 1.06
  69  0.023  0.773  0.635- 152 1.06
  70  0.477  0.229  0.634- 153 1.10
  71  0.495  0.750  0.633- 154 1.06
  72  0.252  0.997  0.632- 156 1.08
  73  0.253  0.506  0.632- 155 1.07
  74  0.751  0.994  0.631- 158 1.08
  75  0.761  0.482  0.635- 157 1.08
  76  0.449  0.301  0.769- 221 1.02
  77  0.449  0.801  0.769- 222 1.02
  78  0.949  0.301  0.769- 223 1.02
  79  0.949  0.801  0.769- 224 1.02
  80  0.301  0.051  0.769- 225 1.02
  81  0.301  0.551  0.769- 226 1.02
  82  0.801  0.051  0.769- 227 1.02
  83  0.801  0.551  0.769- 228 1.02
  84  0.079  0.171  0.743- 213 1.02
  85  0.079  0.671  0.743- 214 1.02
  86  0.579  0.171  0.743- 215 1.02
  87  0.579  0.671  0.743- 216 1.02
  88  0.171  0.421  0.743- 217 1.02
  89  0.171  0.921  0.743- 218 1.02
  90  0.671  0.421  0.743- 219 1.02
  91  0.671  0.921  0.743- 220 1.02
  92  0.051  0.199  0.769- 213 1.02
  93  0.051  0.699  0.769- 214 1.02
  94  0.551  0.199  0.769- 215 1.02
  95  0.551  0.699  0.769- 216 1.02
  96  0.199  0.449  0.769- 217 1.02
  97  0.199  0.949  0.769- 218 1.02
  98  0.699  0.449  0.769- 219 1.02
  99  0.699  0.949  0.769- 220 1.02
 100  0.421  0.329  0.743- 221 1.02
 101  0.421  0.829  0.743- 222 1.02
 102  0.921  0.329  0.743- 223 1.02
 103  0.921  0.829  0.743- 224 1.02
 104  0.329  0.079  0.743- 225 1.02
 105  0.329  0.579  0.743- 226 1.02
 106  0.829  0.079  0.743- 227 1.02
 107  0.829  0.579  0.743- 228 1.02
 108  0.000  0.250  0.726- 161 1.09
 109  0.000  0.750  0.726- 162 1.09
 110  0.500  0.250  0.726- 159 1.09
 111  0.500  0.750  0.726- 160 1.09
 112  0.250  0.000  0.726- 163 1.09
 113  0.250  0.500  0.726- 164 1.09
 114  0.750  0.000  0.726- 165 1.09
 115  0.750  0.500  0.726- 166 1.09
 116  0.781  0.562  0.526- 173 1.11
 117  0.728  0.478  0.528- 173 1.11
 118  0.869  0.506  0.548- 174 1.08
 119  0.850  0.483  0.575- 174 1.09
 120  0.740  0.641  0.567- 175 1.08
 121  0.796  0.592  0.584- 175 1.10
 122  0.650  0.536  0.572- 176 1.11
 123  0.671  0.448  0.562- 176 1.11
 124  0.618  0.546  0.540- 177 1.09
 125  0.669  0.630  0.544- 177 1.13
 126  0.618  0.657  0.510- 178 1.12
 127  0.698  0.607  0.502- 178 1.13
 128  0.828  0.391  0.535- 179 1.09
 129  0.759  0.387  0.554- 179 1.07
 130  0.848  0.361  0.561- 179 1.09
 131  0.855  0.692  0.559- 180 1.08
 132  0.850  0.630  0.539- 180 1.09
 133  0.902  0.605  0.561- 180 1.08
 134  0.762  0.506  0.600- 181 1.11
 135  0.741  0.415  0.592- 181 1.08
 136  0.672  0.472  0.604- 181 1.10
 137  0.542  0.539  0.509- 182 1.13
 138  0.579  0.562  0.483- 182 1.11
 139  0.722  0.499  0.478- 168 1.14
 140  0.552  0.418  0.521- 169 1.09
 141  0.785  0.375  0.479- 170 1.13
 142  0.619  0.296  0.523- 171 1.09
 143  0.736  0.274  0.503- 172 1.14
 144  0.018  0.237  0.556-  31 1.09 183 1.29 189 1.32
 145  0.004  0.748  0.556-  32 1.07 190 1.32 184 1.33
 146  0.488  0.239  0.555-  29 1.08 187 1.28 185 1.33
 147  0.507  0.768  0.557-  30 1.09 188 1.28 186 1.32
 148  0.241  0.508  0.557-  33 1.10 195 1.29 191 1.34
 149  0.242  0.009  0.557-  34 1.10 194 1.29 192 1.34
 150  0.759  0.991  0.558-  35 1.10 193 1.29 196 1.34
 151  0.001  0.247  0.650-  68 1.06 207 1.29 197 1.36
 152  0.009  0.764  0.652-  69 1.06 208 1.31 198 1.37
 153  0.490  0.241  0.650-  70 1.10 205 1.27 199 1.37
 154  0.494  0.752  0.650-  71 1.06 206 1.31 200 1.31
 155  0.253  0.501  0.649-  73 1.07 201 1.29 210 1.36
 156  0.250  0.998  0.649-  72 1.08 209 1.27 202 1.36
 157  0.759  0.499  0.652-  75 1.08 212 1.29 203 1.32
 158  0.750  0.999  0.648-  74 1.08 211 1.28 204 1.36
 159  0.500  0.250  0.743- 110 1.09 221 1.31 215 1.31
 160  0.500  0.750  0.743- 111 1.09 222 1.31 216 1.31
 161  1.000  0.250  0.743- 108 1.09 223 1.31 213 1.31
 162  1.000  0.750  0.743- 109 1.09 224 1.31 214 1.31
 163  0.250  0.000  0.743- 112 1.09 225 1.31 218 1.31
 164  0.250  0.500  0.743- 113 1.09 226 1.31 217 1.31
 165  0.750  0.000  0.743- 114 1.09 227 1.31 220 1.31
 166  0.750  0.500  0.743- 115 1.09 228 1.31 219 1.31
 167  0.631  0.466  0.499- 169 1.41 168 1.43 182 1.53
 168  0.696  0.452  0.487- 139 1.14 170 1.37 167 1.43
 169  0.602  0.407  0.512- 140 1.09 171 1.37 167 1.41
 170  0.732  0.386  0.489- 141 1.13 168 1.37 172 1.40
 171  0.638  0.341  0.513- 142 1.09 169 1.37 172 1.41
 172  0.704  0.328  0.501- 143 1.14 170 1.40 171 1.41
 173  0.735  0.534  0.535- 117 1.11 116 1.11 177 1.51 229 1.53
 174  0.829  0.479  0.559- 118 1.08 119 1.09 179 1.50 229 1.56
 175  0.784  0.602  0.567- 120 1.08 121 1.10 229 1.50 180 1.51
 176  0.695  0.494  0.571- 122 1.11 123 1.11 181 1.50 229 1.55
 177  0.664  0.579  0.533- 124 1.09 125 1.13 173 1.51 178 1.54
 178  0.644  0.600  0.510- 126 1.12 127 1.13 182 1.53 177 1.54
 179  0.817  0.401  0.552- 129 1.07 128 1.09 130 1.09 174 1.50
 180  0.852  0.633  0.556- 131 1.08 133 1.08 132 1.09 175 1.51
 181  0.719  0.470  0.593- 135 1.08 136 1.10 134 1.11 176 1.50
 182  0.594  0.542  0.500- 138 1.11 137 1.13 167 1.53 178 1.53
 183  0.043  0.185  0.568-   8 1.03  15 1.06 144 1.29
 184  0.038  0.692  0.565-   9 1.01  16 1.06 145 1.33
 185  0.553  0.221  0.564-  10 1.02  17 1.07 146 1.33
 186  0.530  0.708  0.567-  11 1.01  18 1.02 147 1.32
 187  0.439  0.279  0.564-  22 1.01   1 1.06 146 1.28
 188  0.465  0.819  0.565-  23 1.02   2 1.07 147 1.28
 189  0.981  0.297  0.563-  24 1.02   3 1.05 144 1.32
 190  0.971  0.802  0.566-  25 1.02   4 1.03 145 1.32
 191  0.211  0.450  0.567-  19 1.00  26 1.06 148 1.34
 192  0.190  0.967  0.567-  20 1.00  27 1.06 149 1.34
 193  0.709  0.949  0.566-  21 1.01  28 1.07 150 1.29
 194  0.301  0.031  0.567-   5 1.01  12 1.06 149 1.29
 195  0.286  0.554  0.566-   6 1.01  13 1.06 148 1.29
 196  0.791  0.047  0.568-   7 1.00  14 1.06 150 1.34
 197  0.052  0.199  0.659-  52 1.00  44 1.00 151 1.36
 198  0.050  0.712  0.662-  45 0.99  53 1.00 152 1.37
 199  0.545  0.199  0.660-  46 1.00  54 1.01 153 1.37
 200  0.537  0.708  0.661-  55 1.04  47 1.05 154 1.31
 201  0.214  0.451  0.658-  48 1.00  56 1.07 155 1.29
 202  0.201  0.950  0.658-  49 0.98  57 1.06 156 1.36
 203  0.712  0.461  0.664-  58 1.03  50 1.05 157 1.32
 204  0.698  0.957  0.658-  51 0.98  59 1.06 158 1.36
 205  0.452  0.291  0.660-  60 1.01  36 1.06 153 1.27
 206  0.448  0.800  0.658-  61 1.00  37 1.05 154 1.31
 207  0.957  0.288  0.661-  62 1.05  38 1.06 151 1.29
 208  0.957  0.804  0.661-  39 1.00  63 1.02 152 1.31
 209  0.293  0.043  0.659-  64 1.01  40 1.06 156 1.27
 210  0.295  0.554  0.659-  65 0.98  41 1.06 155 1.36
 211  0.798  0.040  0.658-  66 1.01  42 1.07 158 1.28
 212  0.799  0.553  0.658-  43 1.01  67 1.08 157 1.29
 213  0.046  0.204  0.753-  92 1.02  84 1.02 161 1.31
 214  0.046  0.704  0.753-  93 1.02  85 1.02 162 1.31
 215  0.546  0.204  0.753-  94 1.02  86 1.02 159 1.31
 216  0.546  0.704  0.753-  95 1.02  87 1.02 160 1.31
 217  0.204  0.454  0.753-  96 1.02  88 1.02 164 1.31
 218  0.204  0.954  0.753-  97 1.02  89 1.02 163 1.31
 219  0.704  0.454  0.753-  98 1.02  90 1.02 166 1.31
 220  0.704  0.954  0.753-  99 1.02  91 1.02 165 1.31
 221  0.454  0.296  0.753-  76 1.02 100 1.02 159 1.31
 222  0.454  0.796  0.753-  77 1.02 101 1.02 160 1.31
 223  0.954  0.296  0.753-  78 1.02 102 1.02 161 1.31
 224  0.954  0.796  0.753-  79 1.02 103 1.02 162 1.31
 225  0.296  0.046  0.753-  80 1.02 104 1.02 163 1.31
 226  0.296  0.546  0.753-  81 1.02 105 1.02 164 1.31
 227  0.796  0.046  0.753-  82 1.02 106 1.02 165 1.31
 228  0.796  0.546  0.753-  83 1.02 107 1.02 166 1.31
 229  0.759  0.529  0.558- 175 1.50 173 1.53 176 1.55 174 1.56
 230  0.492  0.015  0.552- 304 3.18
 231  0.474  0.519  0.558- 305 3.10
 232  0.001  0.995  0.552- 302 3.23
 233  0.029  0.483  0.550- 303 3.37
 234  0.248  0.250  0.552- 306 3.15
 235  0.249  0.749  0.552- 307 3.09
 236  0.754  0.221  0.556- 308 3.14
 237  0.729  0.777  0.547- 309 3.58
 238  0.005  0.998  0.655- 310 3.14 302 3.18
 239  0.009  0.506  0.655- 311 3.13 303 3.19
 240  0.502  0.002  0.654- 312 3.17 304 3.24
 241  0.503  0.490  0.656- 313 3.05 305 3.08
 242  0.249  0.248  0.654- 314 3.16 306 3.26
 243  0.247  0.751  0.655- 315 3.13 307 3.31
 244  0.741  0.252  0.655- 316 3.10 308 3.12
 245  0.756  0.759  0.654- 309 3.09 317 3.21
 246  0.143  0.104  0.609- 302 3.16 306 3.24
 247  0.144  0.606  0.607- 303 3.12 307 3.25
 248  0.643  0.100  0.607- 304 3.09 308 3.21
 249  0.622  0.630  0.614- 309 3.31 305 3.37
 250  0.353  0.394  0.608- 305 3.14 306 3.29
 251  0.354  0.891  0.608- 307 3.20 304 3.39
 252  0.885  0.368  0.614- 303 3.32 308 3.40
 253  0.857  0.896  0.606- 309 3.18 302 3.24
 254  0.108  0.358  0.608- 303 3.21 306 3.27
 255  0.109  0.859  0.608- 307 3.23 302 3.26
 256  0.581  0.333  0.609- 305 3.32 308 3.38
 257  0.609  0.861  0.609- 309 3.14 304 3.28
 258  0.387  0.137  0.608- 304 3.17 306 3.19
 259  0.384  0.635  0.610- 305 3.23 307 3.24
 260  0.894  0.139  0.610- 302 3.15 308 3.32
 261  0.915  0.659  0.614- 303 3.34 309 3.55
 262  0.000  0.000  0.755- 310 3.13 318 3.27
 263  0.000  0.500  0.755- 311 3.13 319 3.27
 264  0.500  0.000  0.755- 312 3.13 320 3.27
 265  0.500  0.500  0.755- 313 3.13 321 3.27
 266  0.250  0.250  0.755- 314 3.13 322 3.27
 267  0.250  0.750  0.755- 315 3.13 323 3.27
 268  0.750  0.250  0.755- 316 3.13 324 3.27
 269  0.750  0.750  0.755- 317 3.13 325 3.27
 270  0.136  0.114  0.705- 310 3.20 314 3.20
 271  0.136  0.614  0.705- 311 3.20 315 3.20
 272  0.636  0.114  0.705- 312 3.20 316 3.20
 273  0.636  0.614  0.705- 313 3.20 317 3.20
 274  0.364  0.386  0.705- 313 3.20 314 3.20
 275  0.364  0.886  0.705- 312 3.20 315 3.20
 276  0.864  0.386  0.705- 311 3.20 316 3.20
 277  0.864  0.886  0.705- 310 3.20 317 3.20
 278  0.114  0.364  0.705- 314 3.21 311 3.21
 279  0.114  0.864  0.705- 315 3.21 310 3.21
 280  0.614  0.364  0.705- 316 3.21 313 3.21
 281  0.614  0.864  0.705- 317 3.21 312 3.21
 282  0.386  0.136  0.705- 314 3.21 312 3.21
 283  0.386  0.636  0.705- 315 3.21 313 3.21
 284  0.886  0.136  0.705- 316 3.21 310 3.21
 285  0.886  0.636  0.705- 317 3.21 311 3.21
 286  0.135  0.115  0.801- 318 3.22 322 3.22
 287  0.135  0.615  0.801- 319 3.22 323 3.22
 288  0.635  0.115  0.801- 320 3.22 324 3.22
 289  0.635  0.615  0.801- 321 3.22 325 3.22
 290  0.365  0.385  0.801- 321 3.22 322 3.22
 291  0.365  0.885  0.801- 320 3.22 323 3.22
 292  0.865  0.385  0.801- 319 3.22 324 3.22
 293  0.865  0.885  0.801- 318 3.22 325 3.22
 294  0.115  0.365  0.801- 319 3.23 322 3.23
 295  0.115  0.865  0.801- 318 3.23 323 3.23
 296  0.615  0.365  0.801- 321 3.23 324 3.23
 297  0.615  0.865  0.801- 320 3.23 325 3.23
 298  0.385  0.135  0.801- 320 3.23 322 3.23
 299  0.385  0.635  0.801- 321 3.23 323 3.23
 300  0.885  0.135  0.801- 318 3.23 324 3.23
 301  0.885  0.635  0.801- 319 3.23 325 3.23
 302  0.001  0.003  0.604- 260 3.15 246 3.16 238 3.18 232 3.23 253 3.24 255 3.26
 303  0.006  0.502  0.604- 247 3.12 239 3.19 254 3.21 252 3.32 261 3.34 233 3.37
 304  0.502  0.006  0.602- 248 3.09 258 3.17 230 3.18 240 3.24 257 3.28 251 3.39
 305  0.494  0.495  0.607- 241 3.08 231 3.10 250 3.14 259 3.23 256 3.32 249 3.37
 306  0.249  0.246  0.602- 234 3.15 258 3.19 246 3.24 242 3.26 254 3.27 250 3.29
 307  0.250  0.750  0.602- 235 3.09 251 3.20 255 3.23 259 3.24 247 3.25 243 3.31
 308  0.746  0.245  0.605- 244 3.12 236 3.14 248 3.21 260 3.32 256 3.38 252 3.40
 309  0.748  0.758  0.604- 245 3.09 257 3.14 253 3.18 249 3.31 261 3.55 237 3.58
 310  0.000  0.000  0.705- 262 3.13 238 3.14 270 3.20 277 3.20 279 3.21 284 3.21
 311  0.000  0.500  0.705- 263 3.13 239 3.13 271 3.20 276 3.20 278 3.21 285 3.21
 312  0.500  0.000  0.705- 264 3.13 240 3.17 272 3.20 275 3.20 281 3.21 282 3.21
 313  0.500  0.500  0.705- 241 3.05 265 3.13 273 3.20 274 3.20 280 3.21 283 3.21
 314  0.250  0.250  0.705- 266 3.13 242 3.16 270 3.20 274 3.20 282 3.21 278 3.21
 315  0.250  0.750  0.705- 243 3.13 267 3.13 271 3.20 275 3.20 283 3.21 279 3.21
 316  0.750  0.250  0.705- 244 3.10 268 3.13 272 3.20 276 3.20 284 3.21 280 3.21
 317  0.750  0.750  0.705- 269 3.13 273 3.20 277 3.20 285 3.21 281 3.21 245 3.21
 318  0.000  0.000  0.807- 286 3.22 293 3.22 300 3.23 295 3.23 262 3.27
 319  0.000  0.500  0.807- 287 3.22 292 3.22 301 3.23 294 3.23 263 3.27
 320  0.500  0.000  0.807- 288 3.22 291 3.22 298 3.23 297 3.23 264 3.27
 321  0.500  0.500  0.807- 289 3.22 290 3.22 299 3.23 296 3.23 265 3.27
 322  0.250  0.250  0.807- 290 3.22 286 3.22 294 3.23 298 3.23 266 3.27
 323  0.250  0.750  0.807- 291 3.22 287 3.22 299 3.23 295 3.23 267 3.27
 324  0.750  0.250  0.807- 292 3.22 288 3.22 296 3.23 300 3.23 268 3.27
 325  0.750  0.750  0.807- 293 3.22 289 3.22 297 3.23 301 3.23 269 3.27
 

IMPORTANT INFORMATION: All symmetrisations will be switched off!
NOSYMM: (Re-)initialisation of all symmetry stuff for point group C_1.


----------------------------------------------------------------------------------------

                                     Primitive cell                                     

  volume of cell :   20385.2105

  direct lattice vectors                    reciprocal lattice vectors
    18.060800552  0.000000000  0.000000000     0.055368531  0.000015077 -0.000000000
    -0.004918649 18.062799454  0.000000000     0.000000000  0.055362404  0.000000000
     0.000000000  0.000000000 62.487499237     0.000000000 -0.000000000  0.016003201

  length of vectors
    18.060800552 18.062800123 62.487499237     0.055368533  0.055362404  0.016003201

  position of ions in fractional coordinates (direct lattice)
     0.443453049  0.303233970  0.579662021
     0.441703549  0.818832550  0.580569124
     0.971739730  0.309360404  0.578940014
     0.970245553  0.806318227  0.582470566
     0.314023723  0.020760936  0.582146283
     0.303073196  0.551163508  0.581066538
     0.776100036  0.062076873  0.583143797
     0.068539421  0.139196827  0.561802614
     0.062474036  0.652034575  0.556190591
     0.591705464  0.190063414  0.556010806
     0.561027489  0.668342783  0.560254331
     0.339929072  0.063158288  0.557727397
     0.307034604  0.598206050  0.556394550
     0.830075202  0.080550366  0.560239130
     0.036299167  0.184982177  0.585272152
     0.042241070  0.685311172  0.581815528
     0.569562604  0.243347120  0.578882873
     0.513997111  0.694315979  0.582252993
     0.220553454  0.438911289  0.582537840
     0.193481310  0.950199125  0.582243226
     0.689466581  0.954672984  0.581388563
     0.388380653  0.288253440  0.557456713
     0.451826932  0.866406554  0.556696124
     0.966563541  0.338969884  0.552724871
     0.946442265  0.843626985  0.557719156
     0.173119075  0.415584763  0.558785714
     0.142124581  0.951849782  0.558256983
     0.689166697  0.902857230  0.557111246
     0.477507515  0.214554790  0.539625693
     0.527572779  0.776073538  0.541041626
     0.025174805  0.232189434  0.539221193
     0.002935960  0.746004507  0.538529343
     0.224034578  0.514132414  0.540066638
     0.232786055  0.024082968  0.540570950
     0.777475197  0.978697589  0.541633785
     0.456565624  0.308185524  0.675740808
     0.438897195  0.808833985  0.674620162
     0.952773433  0.291804482  0.678094306
     0.942020130  0.803699197  0.676101110
     0.297347042  0.049936536  0.675597591
     0.299745666  0.557916229  0.675580437
     0.803439730  0.048789235  0.674560091
     0.803564914  0.573598414  0.673376383
     0.083157659  0.170093185  0.648366376
     0.087711021  0.684772213  0.653902944
     0.570508533  0.161936652  0.650654003
     0.571262378  0.672138673  0.652671070
     0.183564885  0.415686847  0.649437757
     0.170536475  0.917707672  0.649220611
     0.681930665  0.417855354  0.656378415
     0.664045026  0.926849700  0.649363279
     0.058263899  0.192305812  0.674269017
     0.043143954  0.702114200  0.677832291
     0.560412311  0.204885247  0.675117515
     0.540857402  0.703522050  0.677720025
     0.209283296  0.443105460  0.675057200
     0.194546132  0.946075878  0.675089311
     0.700822247  0.467122923  0.679587952
     0.691704135  0.954688635  0.674936937
     0.412991997  0.318915020  0.651344999
     0.416249242  0.831772580  0.648689011
     0.920868229  0.322823581  0.653024045
     0.930660218  0.840801093  0.650858512
     0.327098849  0.075988744  0.650392904
     0.322475793  0.589698809  0.649997622
     0.835090265  0.069667988  0.649069214
     0.834764580  0.580204568  0.646779632
     0.997785614  0.251280582  0.633221684
     0.023184488  0.772625426  0.635417191
     0.477278332  0.229230123  0.633529118
     0.495273276  0.750492682  0.633006614
     0.252210230  0.996821571  0.631843845
     0.252832555  0.506202780  0.631832185
     0.750527625  0.993934673  0.631288131
     0.760668611  0.482387109  0.634976918
     0.448745018  0.301283966  0.768889017
     0.448745007  0.801283913  0.768889017
     0.948744965  0.301283966  0.768889017
     0.948745007  0.801283913  0.768889017
     0.301275995  0.051294496  0.768872961
     0.301276011  0.551294499  0.768872961
     0.801275943  0.051294496  0.768872961
     0.801275984  0.551294499  0.768872961
     0.078771004  0.171180501  0.743441971
     0.078771006  0.671180448  0.743441971
     0.578771004  0.171180501  0.743441971
     0.578770992  0.671180448  0.743441971
     0.171199499  0.421174482  0.743421032
     0.171199501  0.921174508  0.743421032
     0.671199512  0.421174482  0.743421032
     0.671199501  0.921174508  0.743421032
     0.051256000  0.198714991  0.768889017
     0.051256002  0.698714925  0.768889017
     0.551256027  0.198714991  0.768889017
     0.551256016  0.698714925  0.768889017
     0.198723491  0.448703970  0.768872046
     0.198723493  0.948703970  0.768872046
     0.698723518  0.448703970  0.768872046
     0.698723507  0.948703970  0.768872046
     0.421231519  0.328817467  0.743441971
     0.421231508  0.828817440  0.743441971
     0.921231466  0.328817467  0.743441971
     0.921231508  0.828817440  0.743441971
     0.328800503  0.078824997  0.743421032
     0.328800492  0.578824964  0.743421032
     0.828800477  0.078824997  0.743421032
     0.828800519  0.578824964  0.743421032
     0.000003500  0.250001478  0.725821992
     0.000003500  0.750001452  0.725821992
     0.500003506  0.250001478  0.725821992
     0.500003495  0.750001452  0.725821992
     0.250000502  0.000000000  0.725803983
     0.250000517  0.500000000  0.725803983
     0.750000502  0.000000000  0.725803983
     0.750000490  0.500000000  0.725803983
     0.780927704  0.561530812  0.526039296
     0.727678086  0.477620374  0.528296217
     0.868807083  0.506349769  0.548352536
     0.849929714  0.482709492  0.575176444
     0.739791705  0.641497315  0.566888470
     0.796381012  0.591512621  0.584383730
     0.650369280  0.536252064  0.571924817
     0.671096453  0.447594848  0.561532235
     0.618045581  0.546307017  0.539610614
     0.669467114  0.629534412  0.543522163
     0.618454978  0.656670161  0.510031242
     0.698253230  0.607232557  0.501602860
     0.828248134  0.391114136  0.534907281
     0.759374296  0.386629103  0.553887579
     0.848048467  0.360696931  0.561267961
     0.854692535  0.691508039  0.559434648
     0.849745561  0.629578392  0.538839037
     0.902052462  0.604851539  0.561453057
     0.762475139  0.506286147  0.599857650
     0.741149583  0.414579600  0.592387100
     0.672220359  0.471572925  0.603926457
     0.541832262  0.539299759  0.509391161
     0.578896813  0.561981335  0.483474142
     0.722155307  0.498936232  0.477506121
     0.551942159  0.418210340  0.520714623
     0.784752409  0.375343568  0.479384121
     0.618552048  0.296290967  0.522898287
     0.735530590  0.273782250  0.503048919
     0.017510421  0.237414189  0.556480871
     0.003977651  0.747879248  0.555582132
     0.488119406  0.239231988  0.555055476
     0.506518501  0.768223259  0.557155017
     0.240619095  0.507945790  0.556870170
     0.241935369  0.008633118  0.557334740
     0.759118915  0.990620506  0.558007849
     0.001296909  0.247056000  0.650093833
     0.009042120  0.764122092  0.651695288
     0.490192483  0.240818849  0.650418239
     0.493904263  0.752134638  0.649997683
     0.252656349  0.501351938  0.648934116
     0.249904564  0.997792401  0.649054257
     0.758744530  0.499356026  0.651544440
     0.750475938  0.999007475  0.648464051
     0.499988984  0.249994984  0.743277021
     0.499989025  0.749994958  0.743277021
     0.999988984  0.249994984  0.743277021
     0.999989025  0.749994958  0.743277021
     0.250000502  0.000001000  0.743255960
     0.250000517  0.500001003  0.743255960
     0.750000502  0.000001000  0.743255960
     0.750000491  0.500001003  0.743255960
     0.630576423  0.465573416  0.499255497
     0.696325777  0.452249546  0.487183228
     0.602178334  0.407315798  0.511721461
     0.731761262  0.385657652  0.488554840
     0.638426851  0.340584623  0.512620047
     0.704410381  0.328010559  0.501250250
     0.734711974  0.534358844  0.534635193
     0.829309014  0.479155942  0.558738219
     0.784283781  0.601819578  0.567468481
     0.694732919  0.494182063  0.570935239
     0.664027505  0.578546403  0.533247159
     0.643843218  0.599975143  0.510158404
     0.816631505  0.400783560  0.551820637
     0.851929012  0.632575824  0.556255118
     0.719386439  0.470017029  0.592849046
     0.594355536  0.541852000  0.499578498
     0.042633836  0.184736377  0.568454762
     0.038493741  0.692022763  0.565056683
     0.553235757  0.221472873  0.563761441
     0.529750007  0.708133560  0.567152500
     0.438504407  0.278901014  0.564244203
     0.464591706  0.818874577  0.564747966
     0.981301695  0.296888848  0.562805378
     0.971343140  0.802100799  0.565992295
     0.210776141  0.449972751  0.567106287
     0.190209873  0.967091901  0.566986329
     0.709015587  0.948751247  0.566403632
     0.301474081  0.031491906  0.566718514
     0.285724570  0.554189239  0.565760071
     0.791451670  0.046781863  0.568398538
     0.051780653  0.199139432  0.658547733
     0.050475595  0.712380026  0.662279864
     0.544704888  0.199439864  0.659708732
     0.536522064  0.708143328  0.661221669
     0.213524161  0.451055579  0.658200435
     0.201085438  0.950084379  0.658193964
     0.712077097  0.460863386  0.663500750
     0.697917395  0.956911465  0.658060148
     0.452105074  0.291037490  0.659555686
     0.447644379  0.799961753  0.658214476
     0.957268929  0.288025671  0.661285341
     0.957070928  0.804350087  0.660714854
     0.292836065  0.042582152  0.658745160
     0.294752450  0.553913688  0.658699680
     0.797904451  0.040489911  0.657743495
     0.799323539  0.553109948  0.658383394
     0.045862501  0.204119496  0.752725994
     0.045862500  0.704119456  0.752725994
     0.545862507  0.204119496  0.752725994
     0.545862496  0.704119456  0.752725994
     0.204119002  0.454101003  0.752704994
     0.204118991  0.954100951  0.752704994
     0.704118976  0.454101003  0.752704994
     0.704118964  0.954100951  0.752704994
     0.454140018  0.295888490  0.752726971
     0.454140007  0.795888516  0.752726971
     0.954140018  0.295888490  0.752726971
     0.954140060  0.795888516  0.752726971
     0.295882492  0.045900498  0.752704994
     0.295882481  0.545900528  0.752704994
     0.795882439  0.045900498  0.752704994
     0.795882481  0.545900528  0.752704994
     0.759283456  0.529263760  0.558089774
     0.491871387  0.015187277  0.551534935
     0.474393574  0.518921113  0.558034221
     0.001277031  0.994989562  0.552108964
     0.028916176  0.483452883  0.550447254
     0.248088809  0.249559588  0.551666920
     0.249298902  0.748611024  0.552287100
     0.754465000  0.221074924  0.555689636
     0.729060703  0.776825694  0.547496347
     0.005063377  0.997965175  0.654672874
     0.008869910  0.505965190  0.654756814
     0.501747110  0.001740425  0.654026504
     0.503424821  0.490478621  0.656069210
     0.248560749  0.248332173  0.654183884
     0.246732587  0.751483061  0.654777875
     0.741492979  0.251570732  0.655263934
     0.756412091  0.758974158  0.653560163
     0.142618616  0.104069829  0.609314131
     0.143805656  0.605624444  0.606782985
     0.643493316  0.100033596  0.607478070
     0.621632153  0.629860279  0.613580304
     0.353177945  0.394371886  0.607959185
     0.354147746  0.891448768  0.608021941
     0.885133961  0.367990458  0.613873698
     0.856960068  0.896413336  0.606467431
     0.108271898  0.358097568  0.607903693
     0.109390637  0.858927548  0.607660053
     0.580913893  0.333134972  0.608971411
     0.609063886  0.861291670  0.609107547
     0.386927495  0.136905407  0.607631727
     0.384250859  0.635405464  0.610451077
     0.894140872  0.138615089  0.610229719
     0.914579378  0.659192518  0.614222095
     0.000000000  0.000000000  0.754927972
     0.000000000  0.500000000  0.754927972
     0.500000000  0.000000000  0.754927972
     0.499999989  0.500000000  0.754927972
     0.250000496  0.250000000  0.754939022
     0.250000511  0.749999974  0.754939022
     0.750000470  0.250000000  0.754939022
     0.750000458  0.749999974  0.754939022
     0.135790500  0.114209997  0.704782994
     0.135790502  0.614209984  0.704782994
     0.635790447  0.114209997  0.704782994
     0.635790488  0.614209984  0.704782994
     0.364209516  0.385789989  0.704782994
     0.364209505  0.885789963  0.704782994
     0.864209542  0.385789989  0.704782994
     0.864209531  0.885789963  0.704782994
     0.114217990  0.364218986  0.704780979
     0.114217992  0.864218986  0.704780979
     0.614218004  0.364218986  0.704780979
     0.614217992  0.864218986  0.704780979
     0.385782012  0.135781489  0.704782017
     0.385782001  0.635781489  0.704782017
     0.885781985  0.135781489  0.704782017
     0.885782027  0.635781489  0.704782017
     0.134667000  0.115332001  0.801256025
     0.134666989  0.615331988  0.801256025
     0.634666987  0.115332001  0.801256025
     0.634666976  0.615331988  0.801256025
     0.365333002  0.384667985  0.801256025
     0.365332990  0.884667959  0.801256025
     0.865332949  0.384667985  0.801256025
     0.865332938  0.884667959  0.801256025
     0.115328503  0.365337004  0.801264999
     0.115328505  0.865336978  0.801264999
     0.615328503  0.365337004  0.801264999
     0.615328492  0.865336978  0.801264999
     0.384671513  0.134662996  0.801264999
     0.384671501  0.634662970  0.801264999
     0.884671486  0.134662996  0.801264999
     0.884671528  0.634662970  0.801264999
     0.000949599  0.002713502  0.603821333
     0.005590834  0.502286088  0.603754547
     0.501596025  0.005761162  0.602197962
     0.494409301  0.495321807  0.606879867
     0.249238517  0.246228027  0.602070556
     0.249711641  0.750065812  0.601805427
     0.745611871  0.245380676  0.605409664
     0.748187733  0.758411598  0.604210632
     0.000000500  0.000000500  0.704828963
     0.000000500  0.500000475  0.704828963
     0.500000475  0.000000500  0.704828963
     0.500000464  0.500000475  0.704828963
     0.249999994  0.249999472  0.704824995
     0.250000010  0.749999498  0.704824995
     0.749999994  0.249999472  0.704824995
     0.749999983  0.749999498  0.704824995
     0.000000000  0.000000000  0.807317968
     0.000000000  0.500000000  0.807317968
     0.500000000  0.000000000  0.807317968
     0.499999989  0.500000000  0.807317968
     0.249999994  0.250000000  0.807317968
     0.250000010  0.749999974  0.807317968
     0.749999994  0.250000000  0.807317968
     0.749999983  0.749999974  0.807317968

  ion indices of the primitive-cell ions
   primitive index   ion index
                 1           1
                 2           2
                 3           3
                 4           4
                 5           5
                 6           6
                 7           7
                 8           8
                 9           9
                10          10
                11          11
                12          12
                13          13
                14          14
                15          15
                16          16
                17          17
                18          18
                19          19
                20          20
                21          21
                22          22
                23          23
                24          24
                25          25
                26          26
                27          27
                28          28
                29          29
                30          30
                31          31
                32          32
                33          33
                34          34
                35          35
                36          36
                37          37
                38          38
                39          39
                40          40
                41          41
                42          42
                43          43
                44          44
                45          45
                46          46
                47          47
                48          48
                49          49
                50          50
                51          51
                52          52
                53          53
                54          54
                55          55
                56          56
                57          57
                58          58
                59          59
                60          60
                61          61
                62          62
                63          63
                64          64
                65          65
                66          66
                67          67
                68          68
                69          69
                70          70
                71          71
                72          72
                73          73
                74          74
                75          75
                76          76
                77          77
                78          78
                79          79
                80          80
                81          81
                82          82
                83          83
                84          84
                85          85
                86          86
                87          87
                88          88
                89          89
                90          90
                91          91
                92          92
                93          93
                94          94
                95          95
                96          96
                97          97
                98          98
                99          99
               100         100
               101         101
               102         102
               103         103
               104         104
               105         105
               106         106
               107         107
               108         108
               109         109
               110         110
               111         111
               112         112
               113         113
               114         114
               115         115
               116         116
               117         117
               118         118
               119         119
               120         120
               121         121
               122         122
               123         123
               124         124
               125         125
               126         126
               127         127
               128         128
               129         129
               130         130
               131         131
               132         132
               133         133
               134         134
               135         135
               136         136
               137         137
               138         138
               139         139
               140         140
               141         141
               142         142
               143         143
               144         144
               145         145
               146         146
               147         147
               148         148
               149         149
               150         150
               151         151
               152         152
               153         153
               154         154
               155         155
               156         156
               157         157
               158         158
               159         159
               160         160
               161         161
               162         162
               163         163
               164         164
               165         165
               166         166
               167         167
               168         168
               169         169
               170         170
               171         171
               172         172
               173         173
               174         174
               175         175
               176         176
               177         177
               178         178
               179         179
               180         180
               181         181
               182         182
               183         183
               184         184
               185         185
               186         186
               187         187
               188         188
               189         189
               190         190
               191         191
               192         192
               193         193
               194         194
               195         195
               196         196
               197         197
               198         198
               199         199
               200         200
               201         201
               202         202
               203         203
               204         204
               205         205
               206         206
               207         207
               208         208
               209         209
               210         210
               211         211
               212         212
               213         213
               214         214
               215         215
               216         216
               217         217
               218         218
               219         219
               220         220
               221         221
               222         222
               223         223
               224         224
               225         225
               226         226
               227         227
               228         228
               229         229
               230         230
               231         231
               232         232
               233         233
               234         234
               235         235
               236         236
               237         237
               238         238
               239         239
               240         240
               241         241
               242         242
               243         243
               244         244
               245         245
               246         246
               247         247
               248         248
               249         249
               250         250
               251         251
               252         252
               253         253
               254         254
               255         255
               256         256
               257         257
               258         258
               259         259
               260         260
               261         261
               262         262
               263         263
               264         264
               265         265
               266         266
               267         267
               268         268
               269         269
               270         270
               271         271
               272         272
               273         273
               274         274
               275         275
               276         276
               277         277
               278         278
               279         279
               280         280
               281         281
               282         282
               283         283
               284         284
               285         285
               286         286
               287         287
               288         288
               289         289
               290         290
               291         291
               292         292
               293         293
               294         294
               295         295
               296         296
               297         297
               298         298
               299         299
               300         300
               301         301
               302         302
               303         303
               304         304
               305         305
               306         306
               307         307
               308         308
               309         309
               310         310
               311         311
               312         312
               313         313
               314         314
               315         315
               316         316
               317         317
               318         318
               319         319
               320         320
               321         321
               322         322
               323         323
               324         324
               325         325

----------------------------------------------------------------------------------------

 
 
 KPOINTS: Automatic Mesh                          

Automatic generation of k-mesh.
 Grid dimensions read from file:
 generate k-points for:    3    3    1

 Generating k-lattice:

  Cartesian coordinates                     Fractional coordinates (reciprocal lattice)
     0.018456177  0.000005026 -0.000000000     0.333333333  0.000000000  0.000000000
     0.000000000  0.018454135  0.000000000     0.000000000  0.333333333  0.000000000
     0.000000000 -0.000000000  0.016003201     0.000000000  0.000000000  1.000000000

  Length of vectors
     0.018456178  0.018454135  0.016003201

  Shift w.r.t. Gamma in fractional coordinates (k-lattice)
     0.000000000  0.000000000  0.000000000

 
 Subroutine IBZKPT returns following result:
 ===========================================
 
 Found      5 irreducible k-points:
 
 Following reciprocal coordinates:
            Coordinates               Weight
  0.000000  0.000000  0.000000      1.000000
  0.333333  0.000000  0.000000      2.000000
  0.000000  0.333333  0.000000      2.000000
  0.333333  0.333333  0.000000      2.000000
 -0.333333  0.333333  0.000000      2.000000
 
 Following cartesian coordinates:
            Coordinates               Weight
  0.000000  0.000000  0.000000      1.000000
  0.018456  0.000005  0.000000      2.000000
  0.000000  0.018454  0.000000      2.000000
  0.018456  0.018459  0.000000      2.000000
 -0.018456  0.018449  0.000000      2.000000
 


--------------------------------------------------------------------------------------------------------




 Dimension of arrays:
   k-points           NKPTS =      5   k-points in BZ     NKDIM =      5   number of bands    NBANDS=    732
   number of dos      NEDOS =    301   number of ions     NIONS =    325
   non local maximal  LDIM  =      5   non local SUM 2l+1 LMDIM =     13
   total plane-waves  NPLWV = ******
   max r-space proj   IRMAX =   3336   max aug-charges    IRDMAX=  19845
   dimension x,y,z NGX =   100 NGY =  100 NGZ =  350
   dimension x,y,z NGXF=   200 NGYF=  200 NGZF=  700
   support grid    NGXF=   200 NGYF=  200 NGZF=  700
   ions per type =             143  39  47  72  24
   NGX,Y,Z   is equivalent  to a cutoff of   9.20,  9.20,  9.31 a.u.
   NGXF,Y,Z  is equivalent  to a cutoff of  18.41, 18.41, 18.62 a.u.

 SYSTEM =  PSC                                     
 POSCAR =   H  C  N  I Pb                          

 Startparameter for this run:
   NWRITE =      2    write-flag & timer
   PREC   = normal    normal or accurate (medium, high low for compatibility)
   ISTART =      0    job   : 0-new  1-cont  2-samecut
   ICHARG =      1    charge: 1-file 2-atom 10-const
   ISPIN  =      1    spin polarized calculation?
   LNONCOLLINEAR =      F non collinear calculations
   LSORBIT =      F    spin-orbit coupling
   INIWAV =      1    electr: 0-lowe 1-rand  2-diag
   LASPH  =      F    aspherical Exc in radial PAW
 Electronic Relaxation 1
   ENCUT  =  500.0 eV  36.75 Ry    6.06 a.u.  32.93 32.93113.93*2*pi/ulx,y,z
   ENINI  =  500.0     initial cutoff
   ENAUG  =  644.9 eV  augmentation charge cutoff
   NELM   =    600;   NELMIN=  2; NELMDL=  0     # of ELM steps 
   EDIFF  = 0.1E-03   stopping-criterion for ELM
   LREAL  =      T    real-space projection
   NLSPLINE    = F    spline interpolate recip. space projectors
   LCOMPAT=      F    compatible to vasp.4.4
   GGA_COMPAT  = F    GGA compatible to vasp.4.4-vasp.4.6
   LMAXPAW     = -100 max onsite density
   LMAXMIX     =    2 max onsite mixed and CHGCAR
   VOSKOWN=      0    Vosko Wilk Nusair interpolation
   ROPT   =   -0.00050  -0.00050  -0.00050  -0.00050
   ROPT   =   -0.00050
 Ionic relaxation
   EDIFFG = 0.1E-02   stopping-criterion for IOM
   NSW    =      0    number of steps for IOM
   NBLOCK =      1;   KBLOCK =      1    inner block; outer block 
   IBRION =     -1    ionic relax: 0-MD 1-quasi-New 2-CG
   NFREE  =      0    steps in history (QN), initial steepest desc. (CG)
   ISIF   =      2    stress and relaxation
   IWAVPR =     10    prediction:  0-non 1-charg 2-wave 3-comb
   ISYM   =      0    0-nonsym 1-usesym 2-fastsym
   LCORR  =      T    Harris-Foulkes like correction to forces

   POTIM  = 0.5000    time-step for ionic-motion
   TEIN   =    0.0    initial temperature
   TEBEG  =    0.0;   TEEND  =   0.0 temperature during run
   SMASS  =  -3.00    Nose mass-parameter (am)
   estimated Nose-frequenzy (Omega)   =  0.10E-29 period in steps = 0.13E+47 mass=  -0.745E-26a.u.
   SCALEE = 1.0000    scale energy and forces
   NPACO  =    256;   APACO  = 16.0  distance and # of slots for P.C.
   PSTRESS=    0.0 pullay stress

  Mass of Ions in am
   POMASS =   1.00 12.01 14.00126.90207.20
  Ionic Valenz
   ZVAL   =   1.00  4.00  5.00  7.00  4.00
  Atomic Wigner-Seitz radii
   RWIGS  =  -1.00 -1.00 -1.00 -1.00 -1.00
  virtual crystal weights 
   VCA    =   1.00  1.00  1.00  1.00  1.00
   NELECT =    1134.0000    total number of electrons
   NUPDOWN=      -1.0000    fix difference up-down

 DOS related values:
   EMIN   =  10.00;   EMAX   =-10.00  energy-range for DOS
   EFERMI =   0.00
   ISMEAR =     0;   SIGMA  =   0.05  broadening in eV -4-tet -1-fermi 0-gaus

 Electronic relaxation 2 (details)
   IALGO  =     38    algorithm
   LDIAG  =      T    sub-space diagonalisation (order eigenvalues)
   LSUBROT=      F    optimize rotation matrix (better conditioning)
   TURBO    =      0    0=normal 1=particle mesh
   IRESTART =      0    0=no restart 2=restart with 2 vectors
   NREBOOT  =      0    no. of reboots
   NMIN     =      0    reboot dimension
   EREF     =   0.00    reference energy to select bands
   IMIX   =      4    mixing-type and parameters
     AMIX     =   0.40;   BMIX     =  0.01
     AMIX_MAG =   1.60;   BMIX_MAG =  0.01
     AMIN     =   0.01
     WC   =   100.;   INIMIX=   1;  MIXPRE=   1;  MAXMIX= -45

 Intra band minimization:
   WEIMIN = 0.0000     energy-eigenvalue tresh-hold
   EBREAK =  0.34E-07  absolut break condition
   DEPER  =   0.30     relativ break condition  

   TIME   =   0.40     timestep for ELM

  volume/ion in A,a.u.               =      62.72       423.28
  Fermi-wavevector in a.u.,A,eV,Ry     =   0.624944  1.180972  5.313816  0.390554
  Thomas-Fermi vector in A             =   1.685677
 
 Write flags
   LWAVE        =      F    write WAVECAR
   LDOWNSAMPLE  =      F    k-point downsampling of WAVECAR
   LCHARG       =      T    write CHGCAR
   LVTOT        =      T    write LOCPOT, total local potential
   LVHAR        =      F    write LOCPOT, Hartree potential only
   LELF         =      F    write electronic localiz. function (ELF)
   LORBIT       =      0    0 simple, 1 ext, 2 COOP (PROOUT), +10 PAW based schemes


 Dipole corrections
   LMONO  =      F    monopole corrections only (constant potential shift)
   LDIPOL =      T    correct potential (dipole corrections)
   IDIPOL =      3    1-x, 2-y, 3-z, 4-all directions 
   EPSILON=  1.0000000 bulk dielectric constant

 Exchange correlation treatment:
   GGA     =    --    GGA type
   LEXCH   =     8    internal setting for exchange type
   VOSKOWN=      0    Vosko Wilk Nusair interpolation
   LHFCALC =     F    Hartree Fock is set to
   LHFONE  =     F    Hartree Fock one center treatment
   AEXX    =    0.0000 exact exchange contribution

 Linear response parameters
   LEPSILON=     F    determine dielectric tensor
   LRPA    =     F    only Hartree local field effects (RPA)
   LNABLA  =     F    use nabla operator in PAW spheres
   LVEL    =     F    velocity operator in full k-point grid
   LINTERFAST=   F  fast interpolation
   KINTER  =     0    interpolate to denser k-point grid
   CSHIFT  =0.1000    complex shift for real part using Kramers Kronig
   OMEGAMAX=  -1.0    maximum frequency
   DEG_THRESHOLD= 0.2000000E-02 threshold for treating states as degnerate
   RTIME   =   -0.100 relaxation time in fs
  (WPLASMAI=    0.000 imaginary part of plasma frequency in eV, 0.658/RTIME)
   DFIELD  = 0.0000000 0.0000000 0.0000000 field for delta impulse in time
 
 Orbital magnetization related:
   ORBITALMAG=     F  switch on orbital magnetization
   LCHIMAG   =     F  perturbation theory with respect to B field
   DQ        =  0.001000  dq finite difference perturbation B field
   LLRAUG    =     F  two centre corrections for induced B field



--------------------------------------------------------------------------------------------------------


 Static calculation
 charge density and potential will be updated during run
 non-spin polarized calculation
 Variant of blocked Davidson
 Davidson routine will perform the subspace rotation
 perform sub-space diagonalisation
    after iterative eigenvector-optimisation
 modified Broyden-mixing scheme, WC =      100.0
 initial mixing is a Kerker type mixing with AMIX =  0.4000 and BMIX =      0.0100
 Hartree-type preconditioning will be used
 using additional bands           165
 real space projection scheme for non local part
[...]
     13.54561      0.00000     45.35368        -0.003110      0.001721      0.010480
     13.54315      9.03140     45.35368         0.007327     -0.000566      0.017716
     14.10142     10.14282     32.87088        -0.308747     -0.190579      0.069849
     13.14010      8.62716     33.01191         0.153673      0.289600      0.319248
     15.68886      9.14609     34.26518         0.262493      0.153075     -0.089325
     15.34804      8.71908     35.94134         0.004113     -0.018931      0.065871
     13.35808     11.58724     35.42344        -0.614612      0.220690     -0.158438
     14.38037     10.68437     36.51668         0.088880     -0.034170      0.011178
     11.74355      9.68621     35.73815         0.374566     -0.063275     -0.021160
     12.11834      8.08482     35.08875         0.335404      0.368161      0.134933
     11.15971      9.86783     33.71892        -0.235426     -0.144819      0.215494
     12.08802     11.37115     33.96334        -0.032131     -0.521568     -0.615431
     11.16656     11.86130     31.87058         0.063171     -0.682322     -0.042138
     12.60803     10.96832     31.34391        -0.727791     -0.069637     -0.047122
     14.95690      7.06462     33.42502         0.139392      0.046366     -0.175546
     13.71301      6.98360     34.61105        -0.660025     -0.484714      0.151827
     15.31466      6.51520     35.07223         0.022805      0.132981      0.107671
     15.43303     12.49057     34.95767         0.128317      0.320549      0.332616
     15.34399     11.37195     33.67070        -0.175523     -0.109057     -0.229975
     16.28881     10.92531     35.08380         0.385641      0.026270      0.151342
     13.76842      9.14495     37.48360        -0.262674     -0.138072     -0.172105
     13.38372      7.48847     37.01679         0.276183     -0.567405      0.089519
     12.13852      8.51793     37.73785         0.095043     -0.084467     -0.115693
      9.78327      9.74126     31.83058         0.625794     -0.086349     -0.549828
     10.45258     10.15096     30.21109         0.063263     -0.280363      0.041736
     13.04025      9.01219     29.83816        -0.649430     -0.956598      0.613274
      9.96646      7.55405     32.53815        -0.184455     -0.115561      0.229383
     14.17141      6.77976     29.95551        -0.940436      0.312785      0.516363
     11.17009      5.35184     32.67461        -0.159683     -0.071900      0.115695
     13.28292      4.94527     31.43427        -0.707783      1.148725     -0.168412
      0.31508      4.28836     34.77310        -0.667152      1.054323     -0.993464
      0.06816     13.50879     34.71694         0.386174     -0.695246      1.689165
      8.81465      4.32120     34.68403         2.299627     -1.358771      0.367011
      9.14435     13.87626     34.81522         1.477245     -1.511031     -0.674353
      4.34328      9.17492     34.79742        -1.225794     -1.920987      0.428406
      4.36950      0.15594     34.82645        -1.764960     -1.180923      0.425843
     13.70542     17.89338     34.86852         1.251572      1.505333      0.476790
      0.02221      4.46252     40.62274         2.106605     -1.969698      1.961217
      0.15955     13.80218     40.72281         1.065461     -1.904113      2.768336
      8.85208      4.34986     40.64301         2.587310     -2.628040     -0.226116
      8.91661     13.58566     40.61673        -0.284608      0.278727      1.384894
      4.56071      9.05582     40.55027         1.964432      2.679527      0.963819
      4.50857     18.02292     40.55778        -2.678441     -2.718331      0.195645
     13.70108      9.01977     40.71338        -1.317520     -1.032763      0.948632
     13.54928     18.04487     40.52090        -2.839319     -2.487805      0.322601
      9.02897      4.51561     46.44552         0.012688      0.002936      0.043206
      9.02651     13.54701     46.44552        -0.000317      0.014953      0.045749
     18.05937      4.51561     46.44552         0.011692      0.006109      0.052317
     18.05691     13.54701     46.44552         0.033481     -0.012697      0.056841
      4.51521      0.00002     46.44421        -0.002875     -0.002588      0.058452
      4.51275      9.03142     46.44421         0.003044      0.006562      0.049477
     13.54561      0.00002     46.44421         0.003422      0.005030      0.049973
     13.54315      9.03142     46.44421        -0.013033     -0.015991      0.062675
     11.38643      8.40956     31.19723         0.258122      0.211751     -0.647624
     12.57398      8.16889     30.44286        -0.635415      2.202748     -0.113361
     10.87382      7.35726     31.97619        -0.135652      1.174754     -0.470279
     13.21430      6.96606     30.52857         1.809442     -1.568875     -0.697055
     11.52882      6.15191     32.03234         0.861211     -1.264744      0.113861
     12.72060      5.92479     31.32187         0.121264     -0.611598      0.355343
     13.26686      9.65202     33.40802         0.275652      0.302173      0.474858
     14.97563      8.65490     34.91415        -0.463402      0.312181      0.076765
     14.16183     10.87055     35.45969         0.301804     -0.287848     -0.211592
     12.54500      8.92631     35.67632         0.069429      0.552291     -0.158384
     11.99002     10.45017     33.32128        -0.236515      0.812922      0.054650
     11.62537     10.83723     31.87852         1.015449      0.810561      0.064385
     14.74705      7.23927     34.48189         0.052337      0.027974     -0.233403
     15.38341     11.42609     34.75899         0.036042     -0.030183      0.010881
     12.99038      8.48982     37.04565        -0.040355      0.493157      0.334081
     10.73187      9.78736     31.21741        -0.521883     -0.056200      0.313475
      0.76909      3.33686     35.52132         0.342688     -0.827878      1.640422
      0.69182     12.49987     35.30898        -0.357952      0.616226      0.967323
      9.99079      4.00042     35.22804        -0.328053      0.693396      0.723210
      9.56423     12.79087     35.43994        -0.407656      0.289118      0.238182
      7.91837      5.03773     35.25821        -0.847272      1.717037      2.019388
      8.38687     14.79117     35.28969        -1.946213      1.221234      2.461101
     17.72163      5.36264     35.16830        -0.184472      0.074529      1.145718
     17.53929     14.48819     35.36744        -0.082939     -0.163823     -0.013471
      3.80457      8.12777     35.43705        -0.502144      0.195167     -2.319506
      3.43059     17.46839     35.42956        -0.237019      0.575650     -2.512575
     12.80072     17.13710     35.39315        -1.164526     -1.522290     -1.360318
      5.44471      0.56883     35.41282         1.546364      1.483567     -1.344570
      5.15769     10.01021     35.35293         0.857456      1.808577     -1.578536
     14.29402      0.84501     35.51780         0.996438     -0.462820     -2.405930
      0.93422      3.59702     41.15100        -2.164746      2.035509     -1.653519
      0.90813     12.86758     41.38421        -2.398176      2.715982     -1.486073
      9.83683      3.60244     41.22355        -2.246510      1.847479     -1.089679
      9.68653     12.79105     41.31809         1.158721     -1.195444     -0.280065
      3.85420      8.14733     41.12930        -0.307993     -0.521498      2.430992
      3.62709     17.16118     41.12889         2.349239      2.460541      1.919690
     12.85842      8.32448     41.46050        -0.799176     -1.044757     -0.445879
     12.60024     17.28450     41.12053         2.434736      2.146485      1.950930
      8.16395      5.25695     41.21399        -0.782874      1.795872      2.580073
      8.08088     14.44955     41.13018        -0.163266      0.184473      1.500416
     17.28763      5.20255     41.32207        -1.472749      1.374088      1.169184
     17.28151     14.52881     41.28642         0.507433     -0.008394     -1.785453
      5.28864      0.76915     41.16334         1.289705      1.434633      2.820119
      5.32074     10.00523     41.16050        -2.048134     -2.813617      1.857804
     14.41059      0.73136     41.10075         1.280731      1.281141      2.580429
     14.43370      9.99071     41.14073         2.179644      1.765812     -2.317956
      0.82731      3.68697     47.03596         0.018217     -0.023179     -0.093835
      0.82485     12.71837     47.03596         0.000776     -0.010077     -0.092934
      9.85771      3.68697     47.03596         0.018412     -0.021469     -0.091080
      9.85525     12.71837     47.03596         0.031987     -0.026212     -0.092743
      3.68432      8.20234     47.03465        -0.012671     -0.014719     -0.070431
      3.68186     17.23373     47.03465        -0.008700     -0.005970     -0.074514
     12.71472      8.20234     47.03465        -0.001332     -0.000763     -0.087667
     12.71226     17.23373     47.03465        -0.009690     -0.016522     -0.071012
      8.20068      5.34457     47.03603        -0.020918      0.018373     -0.095438
      8.19822     14.37597     47.03603        -0.010245      0.012612     -0.098417
     17.23108      5.34457     47.03603        -0.017056      0.015376     -0.092063
     17.22862     14.37597     47.03603        -0.033993      0.024683     -0.092401
      5.34365      0.82909     47.03465         0.011299      0.009530     -0.070335
      5.34119      9.86049     47.03465         0.010192      0.006017     -0.073161
     14.37405      0.82909     47.03465         0.010468      0.006950     -0.076925
     14.37159      9.86049     47.03465         0.016089      0.022294     -0.079731
     13.71066      9.55999     34.87363         0.156320     -1.567770     -0.379709
      8.88352      0.27432     34.46404         0.017610     -0.025034      0.034215
      8.56538      9.37317     34.87016         0.135097     -0.155214     -0.123995
      0.01817     17.97230     34.49991        -0.026479      0.041601     -0.042495
      0.51987      8.73251     34.39607        -0.109421      0.151223      0.056077
      4.47945      4.50774     34.47229        -0.073536     -0.074836      0.029292
      4.49886     13.52201     34.51104         0.050760      0.004850      0.064657
     13.62515      3.99323     34.72366        -0.131296     -0.007622     -0.015851
     13.16360     14.03165     34.21168        -0.246196      0.247188      0.014138
      0.08654     18.02604     40.90887        -0.086973      0.019506     -0.034809
      0.15771      9.13915     40.91412         0.008172     -0.079571     -0.063722
      9.06195      0.03144     40.86848        -0.107263     -0.030133      0.003106
      9.08984      8.85942     40.99612         0.011584      0.003309      0.110672
      4.48798      4.48557     40.87831         0.061234     -0.004929     -0.000649
      4.45249     13.57389     40.91543         0.030699      0.010696     -0.032263
     13.39072      4.54407     40.94580         0.042530      0.002744      0.055105
     13.65767     13.70920     40.83934        -0.033577     -0.035580      0.106545
      2.57529      1.87979     38.07452         0.149751      0.111876      0.059559
      2.59427     10.93927     37.91635         0.079241      0.044626      0.059800
     11.62151      1.80689     37.95979         0.179032      0.141396      0.037376
     11.22408     11.37704     38.34110         0.059190     -0.010622     -0.072525
      6.37674      7.12346     37.98985        -0.117847     -0.203407     -0.013250
      6.39181     16.10206     37.99377         0.178973      0.064964     -0.042688
     15.98442      6.64694     38.35943        -0.177444      0.015749     -0.237209
     15.47298     16.19173     37.89663         0.083858     -0.045920      0.035058
      1.95372      6.46824     37.98638         0.158745     -0.140199      0.070560
      1.97146     15.51464     37.97116        -0.018796     -0.021602     -0.021778
     10.49013      6.01735     38.05310         0.178102      0.004072     -0.021066
     10.99594     15.55734     38.06161        -0.041816      0.048463      0.023202
      6.98755      2.47289     37.96939         0.004587      0.005563      0.048094
      6.93675     11.47720     38.14556         0.042678      0.086592      0.028140
     16.14822      2.50378     38.13173        -0.144869      0.126755      0.021973
     16.51479     11.90686     38.38120        -0.266987     -0.156632     -0.221814
      0.00000      0.00000     47.17356        -0.003069      0.000971      0.425092
     -0.00246      9.03140     47.17356        -0.005128      0.003000      0.431191
      9.03040      0.00000     47.17356         0.001413     -0.001202      0.423030
      9.02794      9.03140     47.17356         0.004512      0.001133      0.525948
      4.51398      4.51570     47.17425        -0.000221     -0.000508      0.434347
      4.51152     13.54710     47.17425         0.001753      0.002832      0.512266
     13.54438      4.51570     47.17425         0.001339      0.000568      0.462162
     13.54192     13.54710     47.17425         0.001384     -0.000895      0.299473
      2.45192      2.06295     44.04013         0.030230     -0.043418      0.034205
      2.44946     11.09435     44.04013         0.046031     -0.051847      0.088795
     11.48232      2.06295     44.04013         0.047828     -0.034406      0.031192
     11.47986     11.09435     44.04013         0.051498      0.020263     -0.042072
      6.57602      6.96845     44.04013        -0.001999      0.003531     -0.020989
      6.57356     15.99985     44.04013         0.007898      0.031140     -0.003571
     15.60642      6.96845     44.04013         0.014692     -0.014668     -0.015662
     15.60396     15.99985     44.04013        -0.058798      0.028216      0.057216
      2.06108      6.57881     44.04000         0.031409      0.013686     -0.046065
      2.05862     15.61021     44.04000        -0.015022      0.037408      0.041276
     11.09148      6.57881     44.04000        -0.038297     -0.049432      0.043013
     11.08902     15.61021     44.04000         0.016439     -0.022259     -0.012930
      6.96686      2.45259     44.04007        -0.037386     -0.039178     -0.038129
      6.96440     11.48399     44.04007         0.030886      0.006895      0.002196
     15.99726      2.45259     44.04007        -0.028217     -0.028534     -0.081014
     15.99481     11.48399     44.04007        -0.018947      0.071587     -0.014941
      2.43163      2.08322     50.06849         0.005132     -0.014491      0.022120
      2.42917     11.11462     50.06849         0.000843     -0.016997      0.022603
     11.46203      2.08322     50.06849         0.008617     -0.013375      0.022322
     11.45957     11.11462     50.06849         0.030429      0.009380      0.020305
      6.59631      6.94818     50.06849        -0.014195      0.005401      0.022860
      6.59385     15.97958     50.06849        -0.000728      0.018470      0.022573
     15.62671      6.94818     50.06849        -0.008250      0.013127      0.021853
     15.62425     15.97958     50.06849        -0.020415      0.000263      0.020284
      2.08113      6.59901     50.06905        -0.014297     -0.007034      0.023129
      2.07867     15.63041     50.06905        -0.020547     -0.000343      0.022643
     11.11153      6.59901     50.06905        -0.002774     -0.014286      0.021476
     11.10907     15.63041     50.06905         0.002118     -0.021391      0.021280
      6.94681      2.43239     50.06905         0.013522      0.006847      0.023312
      6.94435     11.46379     50.06905         0.011301      0.010413      0.023515
     15.97721      2.43239     50.06905         0.013410      0.005804      0.021912
     15.97475     11.46379     50.06905        -0.001895      0.021759      0.020036
      0.01714      0.04901     37.73129        -0.141497     -0.208393      0.014487
      0.09850      9.07269     37.72711        -0.035451     -0.009495      0.048669
      9.05920      0.10406     37.62984        -0.116586     -0.162786      0.018714
      8.92699      8.94690     37.92241         0.084507      0.150184     -0.329425
      4.50024      4.44757     37.62188        -0.132628      0.112222      0.049960
      4.50630     13.54829     37.60532        -0.073558     -0.105725     -0.008923
     13.46514      4.43226     37.83054         0.104213      0.067935     -0.194051
     13.50914     13.69904     37.75561        -0.000695     -0.077196     -0.079462
      0.00001      0.00001     44.04300         0.048132     -0.013363      0.072763
     -0.00245      9.03141     44.04300         0.070309     -0.033437     -0.001918
      9.03041      0.00001     44.04300        -0.010108      0.041047     -0.042265
      9.02795      9.03141     44.04300        -0.060752      0.007471      0.212306
      4.51397      4.51569     44.04275         0.004356     -0.014393     -0.015653
      4.51151     13.54709     44.04275        -0.052461     -0.023504     -0.067333
     13.54437      4.51569     44.04275        -0.002360      0.003807      0.156622
     13.54191     13.54709     44.04275        -0.041759      0.064156      0.050329
      0.00000      0.00000     50.44728         0.013225      0.004783     -0.629479
     -0.00246      9.03140     50.44728         0.013075     -0.006176     -0.631365
      9.03040      0.00000     50.44728        -0.012386      0.007022     -0.630408
      9.02794      9.03140     50.44728        -0.013594     -0.004636     -0.655175
      4.51397      4.51570     50.44728         0.005717      0.005844     -0.634238
      4.51151     13.54710     50.44728         0.006012     -0.004800     -0.655626
     13.54437      4.51570     50.44728        -0.006007      0.004863     -0.640146
     13.54191     13.54710     50.44728        -0.004948     -0.004862     -0.593153
 -----------------------------------------------------------------------------------
    total drift:                               -0.047439     -0.063208      0.259141


--------------------------------------------------------------------------------------------------------



  FREE ENERGIE OF THE ION-ELECTRON SYSTEM (eV)
  ---------------------------------------------------
  free  energy   TOTEN  =     -1571.14571251 eV

  energy  without entropy=    -1571.14571251  energy(sigma->0) =    -1571.14571251
 


--------------------------------------------------------------------------------------------------------


    POTLOK:  cpu time    0.5007: real time    0.5006


--------------------------------------------------------------------------------------------------------


     LOOP+:  cpu time  305.9312: real time  306.5238
 vacuum level on the upper side and lower side of the slab         2.301         1.586
    4ORBIT:  cpu time    0.0000: real time    0.0000

 total amount of memory used by VASP MPI-rank0  8653584. kBytes
=======================================================================

   base      :      30000. kBytes
   nonlr-proj:      53622. kBytes
   fftplans  :     249280. kBytes
   grid      :     701440. kBytes
   one-center:       2636. kBytes
   wavefun   :    7616606. kBytes
 
  
  
 General timing and accounting informations for this job:
 ========================================================
  
                  Total CPU time used (sec):      518.939
                            User time (sec):      418.279
                          System time (sec):      100.660
                         Elapsed time (sec):      521.818
  
                   Maximum memory used (kb):    10337380.
                   Average memory used (kb):          N/A
  
                          Minor page faults:      3729348
                          Major page faults:           12
                 Voluntary context switches:        11017
