<?xml version="1.0" encoding="ISO-8859-1"?>
<modeling>
 <generator>
  <i name="program" type="string">vasp </i>
  <i name="version" type="string">6.2.1  </i>
  <i name="subversion" type="string">16May21 (build Nov 15 2021 14:57:28) complex                          parallel </i>
  <i name="platform" type="string">LinuxPGI </i>
  <i name="date" type="string">2023 07 24 </i>
  <i name="time" type="string">21:58:06 </i>
 </generator>
 <incar>
  <i type="string" name="SYSTEM">PSC</i>
  <i type="int" name="ISTART">     1</i>
  <i type="string" name="PREC">Normal</i>
  <i name="BMIX">      0.01000000</i>
  <i name="AMIN">      0.01000000</i>
  <i type="int" name="ICHARG">     1</i>
  <i type="int" name="NELM">   600</i>
  <i type="int" name="ISYM">     0</i>
  <i name="ENCUT">    500.00000000</i>
  <i type="string" name="LREAL">Auto</i>
  <i type="int" name="ISMEAR">     0</i>
  <i name="SIGMA">      0.05000000</i>
  <i type="logical" name="LWAVE"> F  </i>
  <i type="logical" name="LVTOT"> T  </i>
  <i type="logical" name="GGA_COMPAT"> F  </i>
  <i type="logical" name="LDIPOL"> T  </i>
  <i type="int" name="IDIPOL">     3</i>
  <i type="int" name="IVDW">    12</i>
 </incar>
 <primitive_cell>
  <structure name="primitive_cell" >
   <crystal>
    <varray name="basis" >
     <v>      18.06080055       0.00000000       0.00000000 </v>
     <v>      -0.00491865      18.06279945       0.00000000 </v>
     <v>       0.00000000       0.00000000      62.48749924 </v>
    </varray>
    <i name="volume">  20385.21054034 </i>
    <varray name="rec_basis" >
     <v>       0.05536853       0.00001508      -0.00000000 </v>
     <v>       0.00000000       0.05536240       0.00000000 </v>
     <v>       0.00000000      -0.00000000       0.01600320 </v>
    </varray>
   </crystal>
   <varray name="positions" >
    <v>       0.44345305       0.30323397       0.57966202 </v>
    <v>       0.44170355       0.81883255       0.58056912 </v>
    <v>       0.97173973       0.30936040       0.57894001 </v>
    <v>       0.97024555       0.80631823       0.58247057 </v>
    <v>       0.31402372       0.02076094       0.58214628 </v>
    <v>       0.30307320       0.55116351       0.58106654 </v>
    <v>       0.77610004       0.06207687       0.58314380 </v>
    <v>       0.06853942       0.13919683       0.56180261 </v>
    <v>       0.06247404       0.65203458       0.55619059 </v>
    <v>       0.59170546       0.19006341       0.55601081 </v>
    <v>       0.56102749       0.66834278       0.56025433 </v>
    <v>       0.33992907       0.06315829       0.55772740 </v>
    <v>       0.30703460       0.59820605       0.55639455 </v>
    <v>       0.83007520       0.08055037       0.56023913 </v>
    <v>       0.03629917       0.18498218       0.58527215 </v>
    <v>       0.04224107       0.68531117       0.58181553 </v>
    <v>       0.56956260       0.24334712       0.57888287 </v>
    <v>       0.51399711       0.69431598       0.58225299 </v>
    <v>       0.22055345       0.43891129       0.58253784 </v>
    <v>       0.19348131       0.95019912       0.58224323 </v>
    <v>       0.68946658       0.95467298       0.58138856 </v>
    <v>       0.38838065       0.28825344       0.55745671 </v>
    <v>       0.45182693       0.86640655       0.55669612 </v>
    <v>       0.96656354       0.33896988       0.55272487 </v>
    <v>       0.94644226       0.84362698       0.55771916 </v>
    <v>       0.17311907       0.41558476       0.55878571 </v>
    <v>       0.14212458       0.95184978       0.55825698 </v>
    <v>       0.68916670       0.90285723       0.55711125 </v>
    <v>       0.47750752       0.21455479       0.53962569 </v>
    <v>       0.52757278       0.77607354       0.54104163 </v>
    <v>       0.02517481       0.23218943       0.53922119 </v>
    <v>       0.00293596       0.74600451       0.53852934 </v>
    <v>       0.22403458       0.51413241       0.54006664 </v>
    <v>       0.23278606       0.02408297       0.54057095 </v>
    <v>       0.77747520       0.97869759       0.54163379 </v>
    <v>       0.45656562       0.30818552       0.67574081 </v>
    <v>       0.43889719       0.80883398       0.67462016 </v>
    <v>       0.95277343       0.29180448       0.67809431 </v>
    <v>       0.94202013       0.80369920       0.67610111 </v>
    <v>       0.29734704       0.04993654       0.67559759 </v>
    <v>       0.29974567       0.55791623       0.67558044 </v>
    <v>       0.80343973       0.04878924       0.67456009 </v>
    <v>       0.80356491       0.57359841       0.67337638 </v>
    <v>       0.08315766       0.17009318       0.64836638 </v>
    <v>       0.08771102       0.68477221       0.65390294 </v>
    <v>       0.57050853       0.16193665       0.65065400 </v>
    <v>       0.57126238       0.67213867       0.65267107 </v>
    <v>       0.18356488       0.41568685       0.64943776 </v>
    <v>       0.17053648       0.91770767       0.64922061 </v>
    <v>       0.68193066       0.41785535       0.65637842 </v>
    <v>       0.66404503       0.92684970       0.64936328 </v>
    <v>       0.05826390       0.19230581       0.67426902 </v>
    <v>       0.04314395       0.70211420       0.67783229 </v>
    <v>       0.56041231       0.20488525       0.67511751 </v>
    <v>       0.54085740       0.70352205       0.67772002 </v>
    <v>       0.20928330       0.44310546       0.67505720 </v>
    <v>       0.19454613       0.94607588       0.67508931 </v>
    <v>       0.70082225       0.46712292       0.67958795 </v>
    <v>       0.69170414       0.95468864       0.67493694 </v>
    <v>       0.41299200       0.31891502       0.65134500 </v>
    <v>       0.41624924       0.83177258       0.64868901 </v>
    <v>       0.92086823       0.32282358       0.65302405 </v>
    <v>       0.93066022       0.84080109       0.65085851 </v>
    <v>       0.32709885       0.07598874       0.65039290 </v>
    <v>       0.32247579       0.58969881       0.64999762 </v>
    <v>       0.83509026       0.06966799       0.64906921 </v>
    <v>       0.83476458       0.58020457       0.64677963 </v>
    <v>       0.99778561       0.25128058       0.63322168 </v>
    <v>       0.02318449       0.77262543       0.63541719 </v>
    <v>       0.47727833       0.22923012       0.63352912 </v>
    <v>       0.49527328       0.75049268       0.63300661 </v>
    <v>       0.25221023       0.99682157       0.63184384 </v>
    <v>       0.25283256       0.50620278       0.63183218 </v>
    <v>       0.75052762       0.99393467       0.63128813 </v>
    <v>       0.76066861       0.48238711       0.63497692 </v>
    <v>       0.44874502       0.30128397       0.76888902 </v>
    <v>       0.44874501       0.80128391       0.76888902 </v>
    <v>       0.94874497       0.30128397       0.76888902 </v>
    <v>       0.94874501       0.80128391       0.76888902 </v>
    <v>       0.30127600       0.05129450       0.76887296 </v>
    <v>       0.30127601       0.55129450       0.76887296 </v>
    <v>       0.80127594       0.05129450       0.76887296 </v>
    <v>       0.80127598       0.55129450       0.76887296 </v>
    <v>       0.07877100       0.17118050       0.74344197 </v>
    <v>       0.07877101       0.67118045       0.74344197 </v>
    <v>       0.57877100       0.17118050       0.74344197 </v>
    <v>       0.57877099       0.67118045       0.74344197 </v>
    <v>       0.17119950       0.42117448       0.74342103 </v>
    <v>       0.17119950       0.92117451       0.74342103 </v>
    <v>       0.67119951       0.42117448       0.74342103 </v>
    <v>       0.67119950       0.92117451       0.74342103 </v>
    <v>       0.05125600       0.19871499       0.76888902 </v>
    <v>       0.05125600       0.69871493       0.76888902 </v>
    <v>       0.55125603       0.19871499       0.76888902 </v>
    <v>       0.55125602       0.69871493       0.76888902 </v>
    <v>       0.19872349       0.44870397       0.76887205 </v>
    <v>       0.19872349       0.94870397       0.76887205 </v>
    <v>       0.69872352       0.44870397       0.76887205 </v>
    <v>       0.69872351       0.94870397       0.76887205 </v>
    <v>       0.42123152       0.32881747       0.74344197 </v>
    <v>       0.42123151       0.82881744       0.74344197 </v>
    <v>       0.92123147       0.32881747       0.74344197 </v>
    <v>       0.92123151       0.82881744       0.74344197 </v>
    <v>       0.32880050       0.07882500       0.74342103 </v>
    <v>       0.32880049       0.57882496       0.74342103 </v>
    <v>       0.82880048       0.07882500       0.74342103 </v>
    <v>       0.82880052       0.57882496       0.74342103 </v>
    <v>       0.00000350       0.25000148       0.72582199 </v>
    <v>       0.00000350       0.75000145       0.72582199 </v>
    <v>       0.50000351       0.25000148       0.72582199 </v>
    <v>       0.50000350       0.75000145       0.72582199 </v>
    <v>       0.25000050       0.00000000       0.72580398 </v>
    <v>       0.25000052       0.50000000       0.72580398 </v>
    <v>       0.75000050       0.00000000       0.72580398 </v>
    <v>       0.75000049       0.50000000       0.72580398 </v>
    <v>       0.78092770       0.56153081       0.52603930 </v>
    <v>       0.72767809       0.47762037       0.52829622 </v>
    <v>       0.86880708       0.50634977       0.54835254 </v>
    <v>       0.84992971       0.48270949       0.57517644 </v>
    <v>       0.73979171       0.64149732       0.56688847 </v>
    <v>       0.79638101       0.59151262       0.58438373 </v>
    <v>       0.65036928       0.53625206       0.57192482 </v>
    <v>       0.67109645       0.44759485       0.56153224 </v>
    <v>       0.61804558       0.54630702       0.53961061 </v>
    <v>       0.66946711       0.62953441       0.54352216 </v>
    <v>       0.61845498       0.65667016       0.51003124 </v>
    <v>       0.69825323       0.60723256       0.50160286 </v>
    <v>       0.82824813       0.39111414       0.53490728 </v>
    <v>       0.75937430       0.38662910       0.55388758 </v>
    <v>       0.84804847       0.36069693       0.56126796 </v>
    <v>       0.85469254       0.69150804       0.55943465 </v>
    <v>       0.84974556       0.62957839       0.53883904 </v>
    <v>       0.90205246       0.60485154       0.56145306 </v>
    <v>       0.76247514       0.50628615       0.59985765 </v>
    <v>       0.74114958       0.41457960       0.59238710 </v>
    <v>       0.67222036       0.47157292       0.60392646 </v>
    <v>       0.54183226       0.53929976       0.50939116 </v>
    <v>       0.57889681       0.56198134       0.48347414 </v>
    <v>       0.72215531       0.49893623       0.47750612 </v>
    <v>       0.55194216       0.41821034       0.52071462 </v>
    <v>       0.78475241       0.37534357       0.47938412 </v>
    <v>       0.61855205       0.29629097       0.52289829 </v>
    <v>       0.73553059       0.27378225       0.50304892 </v>
    <v>       0.01751042       0.23741419       0.55648087 </v>
    <v>       0.00397765       0.74787925       0.55558213 </v>
    <v>       0.48811941       0.23923199       0.55505548 </v>
    <v>       0.50651850       0.76822326       0.55715502 </v>
    <v>       0.24061909       0.50794579       0.55687017 </v>
    <v>       0.24193537       0.00863312       0.55733474 </v>
    <v>       0.75911891       0.99062051       0.55800785 </v>
    <v>       0.00129691       0.24705600       0.65009383 </v>
    <v>       0.00904212       0.76412209       0.65169529 </v>
    <v>       0.49019248       0.24081885       0.65041824 </v>
    <v>       0.49390426       0.75213464       0.64999768 </v>
    <v>       0.25265635       0.50135194       0.64893412 </v>
    <v>       0.24990456       0.99779240       0.64905426 </v>
    <v>       0.75874453       0.49935603       0.65154444 </v>
    <v>       0.75047594       0.99900747       0.64846405 </v>
    <v>       0.49998898       0.24999498       0.74327702 </v>
    <v>       0.49998903       0.74999496       0.74327702 </v>
    <v>       0.99998898       0.24999498       0.74327702 </v>
    <v>       0.99998903       0.74999496       0.74327702 </v>
    <v>       0.25000050       0.00000100       0.74325596 </v>
    <v>       0.25000052       0.50000100       0.74325596 </v>
    <v>       0.75000050       0.00000100       0.74325596 </v>
    <v>       0.75000049       0.50000100       0.74325596 </v>
    <v>       0.63057642       0.46557342       0.49925550 </v>
    <v>       0.69632578       0.45224955       0.48718323 </v>
    <v>       0.60217833       0.40731580       0.51172146 </v>
    <v>       0.73176126       0.38565765       0.48855484 </v>
    <v>       0.63842685       0.34058462       0.51262005 </v>
    <v>       0.70441038       0.32801056       0.50125025 </v>
    <v>       0.73471197       0.53435884       0.53463519 </v>
    <v>       0.82930901       0.47915594       0.55873822 </v>
    <v>       0.78428378       0.60181958       0.56746848 </v>
    <v>       0.69473292       0.49418206       0.57093524 </v>
    <v>       0.66402750       0.57854640       0.53324716 </v>
    <v>       0.64384322       0.59997514       0.51015840 </v>
    <v>       0.81663151       0.40078356       0.55182064 </v>
    <v>       0.85192901       0.63257582       0.55625512 </v>
    <v>       0.71938644       0.47001703       0.59284905 </v>
    <v>       0.59435554       0.54185200       0.49957850 </v>
    <v>       0.04263384       0.18473638       0.56845476 </v>
    <v>       0.03849374       0.69202276       0.56505668 </v>
    <v>       0.55323576       0.22147287       0.56376144 </v>
    <v>       0.52975001       0.70813356       0.56715250 </v>
    <v>       0.43850441       0.27890101       0.56424420 </v>
    <v>       0.46459171       0.81887458       0.56474797 </v>
    <v>       0.98130170       0.29688885       0.56280538 </v>
    <v>       0.97134314       0.80210080       0.56599229 </v>
    <v>       0.21077614       0.44997275       0.56710629 </v>
    <v>       0.19020987       0.96709190       0.56698633 </v>
    <v>       0.70901559       0.94875125       0.56640363 </v>
    <v>       0.30147408       0.03149191       0.56671851 </v>
    <v>       0.28572457       0.55418924       0.56576007 </v>
    <v>       0.79145167       0.04678186       0.56839854 </v>
    <v>       0.05178065       0.19913943       0.65854773 </v>
    <v>       0.05047559       0.71238003       0.66227986 </v>
    <v>       0.54470489       0.19943986       0.65970873 </v>
    <v>       0.53652206       0.70814333       0.66122167 </v>
    <v>       0.21352416       0.45105558       0.65820043 </v>
    <v>       0.20108544       0.95008438       0.65819396 </v>
    <v>       0.71207710       0.46086339       0.66350075 </v>
    <v>       0.69791739       0.95691146       0.65806015 </v>
    <v>       0.45210507       0.29103749       0.65955569 </v>
    <v>       0.44764438       0.79996175       0.65821448 </v>
    <v>       0.95726893       0.28802567       0.66128534 </v>
    <v>       0.95707093       0.80435009       0.66071485 </v>
    <v>       0.29283606       0.04258215       0.65874516 </v>
    <v>       0.29475245       0.55391369       0.65869968 </v>
    <v>       0.79790445       0.04048991       0.65774350 </v>
    <v>       0.79932354       0.55310995       0.65838339 </v>
    <v>       0.04586250       0.20411950       0.75272599 </v>
    <v>       0.04586250       0.70411946       0.75272599 </v>
    <v>       0.54586251       0.20411950       0.75272599 </v>
    <v>       0.54586250       0.70411946       0.75272599 </v>
    <v>       0.20411900       0.45410100       0.75270499 </v>
    <v>       0.20411899       0.95410095       0.75270499 </v>
    <v>       0.70411898       0.45410100       0.75270499 </v>
    <v>       0.70411896       0.95410095       0.75270499 </v>
    <v>       0.45414002       0.29588849       0.75272697 </v>
    <v>       0.45414001       0.79588852       0.75272697 </v>
    <v>       0.95414002       0.29588849       0.75272697 </v>
    <v>       0.95414006       0.79588852       0.75272697 </v>
    <v>       0.29588249       0.04590050       0.75270499 </v>
    <v>       0.29588248       0.54590053       0.75270499 </v>
    <v>       0.79588244       0.04590050       0.75270499 </v>
    <v>       0.79588248       0.54590053       0.75270499 </v>
    <v>       0.75928346       0.52926376       0.55808977 </v>
    <v>       0.49187139       0.01518728       0.55153494 </v>
    <v>       0.47439357       0.51892111       0.55803422 </v>
    <v>       0.00127703       0.99498956       0.55210896 </v>
    <v>       0.02891618       0.48345288       0.55044725 </v>
    <v>       0.24808881       0.24955959       0.55166692 </v>
    <v>       0.24929890       0.74861102       0.55228710 </v>
    <v>       0.75446500       0.22107492       0.55568964 </v>
    <v>       0.72906070       0.77682569       0.54749635 </v>
    <v>       0.00506338       0.99796518       0.65467287 </v>
    <v>       0.00886991       0.50596519       0.65475681 </v>
    <v>       0.50174711       0.00174043       0.65402650 </v>
    <v>       0.50342482       0.49047862       0.65606921 </v>
    <v>       0.24856075       0.24833217       0.65418388 </v>
    <v>       0.24673259       0.75148306       0.65477788 </v>
    <v>       0.74149298       0.25157073       0.65526393 </v>
    <v>       0.75641209       0.75897416       0.65356016 </v>
    <v>       0.14261862       0.10406983       0.60931413 </v>
    <v>       0.14380566       0.60562444       0.60678299 </v>
    <v>       0.64349332       0.10003360       0.60747807 </v>
    <v>       0.62163215       0.62986028       0.61358030 </v>
    <v>       0.35317794       0.39437189       0.60795918 </v>
    <v>       0.35414775       0.89144877       0.60802194 </v>
    <v>       0.88513396       0.36799046       0.61387370 </v>
    <v>       0.85696007       0.89641334       0.60646743 </v>
    <v>       0.10827190       0.35809757       0.60790369 </v>
    <v>       0.10939064       0.85892755       0.60766005 </v>
    <v>       0.58091389       0.33313497       0.60897141 </v>
    <v>       0.60906389       0.86129167       0.60910755 </v>
    <v>       0.38692749       0.13690541       0.60763173 </v>
    <v>       0.38425086       0.63540546       0.61045108 </v>
    <v>       0.89414087       0.13861509       0.61022972 </v>
    <v>       0.91457938       0.65919252       0.61422210 </v>
    <v>       0.00000000       0.00000000       0.75492797 </v>
    <v>       0.00000000       0.50000000       0.75492797 </v>
    <v>       0.50000000       0.00000000       0.75492797 </v>
    <v>       0.49999999       0.50000000       0.75492797 </v>
    <v>       0.25000050       0.25000000       0.75493902 </v>
    <v>       0.25000051       0.74999997       0.75493902 </v>
    <v>       0.75000047       0.25000000       0.75493902 </v>
    <v>       0.75000046       0.74999997       0.75493902 </v>
    <v>       0.13579050       0.11421000       0.70478299 </v>
    <v>       0.13579050       0.61420998       0.70478299 </v>
    <v>       0.63579045       0.11421000       0.70478299 </v>
    <v>       0.63579049       0.61420998       0.70478299 </v>
    <v>       0.36420952       0.38578999       0.70478299 </v>
    <v>       0.36420950       0.88578996       0.70478299 </v>
    <v>       0.86420954       0.38578999       0.70478299 </v>
    <v>       0.86420953       0.88578996       0.70478299 </v>
    <v>       0.11421799       0.36421899       0.70478098 </v>
    <v>       0.11421799       0.86421899       0.70478098 </v>
    <v>       0.61421800       0.36421899       0.70478098 </v>
    <v>       0.61421799       0.86421899       0.70478098 </v>
    <v>       0.38578201       0.13578149       0.70478202 </v>
    <v>       0.38578200       0.63578149       0.70478202 </v>
    <v>       0.88578199       0.13578149       0.70478202 </v>
    <v>       0.88578203       0.63578149       0.70478202 </v>
    <v>       0.13466700       0.11533200       0.80125603 </v>
    <v>       0.13466699       0.61533199       0.80125603 </v>
    <v>       0.63466699       0.11533200       0.80125603 </v>
    <v>       0.63466698       0.61533199       0.80125603 </v>
    <v>       0.36533300       0.38466799       0.80125603 </v>
    <v>       0.36533299       0.88466796       0.80125603 </v>
    <v>       0.86533295       0.38466799       0.80125603 </v>
    <v>       0.86533294       0.88466796       0.80125603 </v>
    <v>       0.11532850       0.36533700       0.80126500 </v>
    <v>       0.11532850       0.86533698       0.80126500 </v>
    <v>       0.61532850       0.36533700       0.80126500 </v>
    <v>       0.61532849       0.86533698       0.80126500 </v>
    <v>       0.38467151       0.13466300       0.80126500 </v>
    <v>       0.38467150       0.63466297       0.80126500 </v>
    <v>       0.88467149       0.13466300       0.80126500 </v>
    <v>       0.88467153       0.63466297       0.80126500 </v>
    <v>       0.00094960       0.00271350       0.60382133 </v>
    <v>       0.00559083       0.50228609       0.60375455 </v>
    <v>       0.50159602       0.00576116       0.60219796 </v>
    <v>       0.49440930       0.49532181       0.60687987 </v>
    <v>       0.24923852       0.24622803       0.60207056 </v>
    <v>       0.24971164       0.75006581       0.60180543 </v>
    <v>       0.74561187       0.24538068       0.60540966 </v>
    <v>       0.74818773       0.75841160       0.60421063 </v>
    <v>       0.00000050       0.00000050       0.70482896 </v>
    <v>       0.00000050       0.50000048       0.70482896 </v>
    <v>       0.50000048       0.00000050       0.70482896 </v>
    <v>       0.50000046       0.50000048       0.70482896 </v>
    <v>       0.24999999       0.24999947       0.70482499 </v>
    <v>       0.25000001       0.74999950       0.70482499 </v>
    <v>       0.74999999       0.24999947       0.70482499 </v>
    <v>       0.74999998       0.74999950       0.70482499 </v>
    <v>       0.00000000       0.00000000       0.80731797 </v>
    <v>       0.00000000       0.50000000       0.80731797 </v>
    <v>       0.50000000       0.00000000       0.80731797 </v>
    <v>       0.49999999       0.50000000       0.80731797 </v>
    <v>       0.24999999       0.25000000       0.80731797 </v>
    <v>       0.25000001       0.74999997       0.80731797 </v>
    <v>       0.74999999       0.25000000       0.80731797 </v>
    <v>       0.74999998       0.74999997       0.80731797 </v>
   </varray>
  </structure>
  <varray name="primitive_index" >
   <v type="int" >        1 </v>
   <v type="int" >        2 </v>
   <v type="int" >        3 </v>
   <v type="int" >        4 </v>
   <v type="int" >        5 </v>
   <v type="int" >        6 </v>
   <v type="int" >        7 </v>
   <v type="int" >        8 </v>
   <v type="int" >        9 </v>
   <v type="int" >       10 </v>
   <v type="int" >       11 </v>
   <v type="int" >       12 </v>
   <v type="int" >       13 </v>
   <v type="int" >       14 </v>
   <v type="int" >       15 </v>
   <v type="int" >       16 </v>
   <v type="int" >       17 </v>
   <v type="int" >       18 </v>
   <v type="int" >       19 </v>
   <v type="int" >       20 </v>
   <v type="int" >       21 </v>
   <v type="int" >       22 </v>
   <v type="int" >       23 </v>
   <v type="int" >       24 </v>
   <v type="int" >       25 </v>
   <v type="int" >       26 </v>
   <v type="int" >       27 </v>
   <v type="int" >       28 </v>
   <v type="int" >       29 </v>
   <v type="int" >       30 </v>
   <v type="int" >       31 </v>
   <v type="int" >       32 </v>
   <v type="int" >       33 </v>
   <v type="int" >       34 </v>
   <v type="int" >       35 </v>
   <v type="int" >       36 </v>
   <v type="int" >       37 </v>
   <v type="int" >       38 </v>
   <v type="int" >       39 </v>
   <v type="int" >       40 </v>
   <v type="int" >       41 </v>
   <v type="int" >       42 </v>
   <v type="int" >       43 </v>
   <v type="int" >       44 </v>
   <v type="int" >       45 </v>
   <v type="int" >       46 </v>
   <v type="int" >       47 </v>
   <v type="int" >       48 </v>
   <v type="int" >       49 </v>
   <v type="int" >       50 </v>
   <v type="int" >       51 </v>
   <v type="int" >       52 </v>
   <v type="int" >       53 </v>
   <v type="int" >       54 </v>
   <v type="int" >       55 </v>
   <v type="int" >       56 </v>
   <v type="int" >       57 </v>
   <v type="int" >       58 </v>
   <v type="int" >       59 </v>
   <v type="int" >       60 </v>
   <v type="int" >       61 </v>
   <v type="int" >       62 </v>
   <v type="int" >       63 </v>
   <v type="int" >       64 </v>
   <v type="int" >       65 </v>
   <v type="int" >       66 </v>
   <v type="int" >       67 </v>
   <v type="int" >       68 </v>
   <v type="int" >       69 </v>
   <v type="int" >       70 </v>
   <v type="int" >       71 </v>
   <v type="int" >       72 </v>
   <v type="int" >       73 </v>
   <v type="int" >       74 </v>
   <v type="int" >       75 </v>
   <v type="int" >       76 </v>
   <v type="int" >       77 </v>
   <v type="int" >       78 </v>
   <v type="int" >       79 </v>
   <v type="int" >       80 </v>
   <v type="int" >       81 </v>
   <v type="int" >       82 </v>
   <v type="int" >       83 </v>
   <v type="int" >       84 </v>
   <v type="int" >       85 </v>
   <v type="int" >       86 </v>
   <v type="int" >       87 </v>
   <v type="int" >       88 </v>
   <v type="int" >       89 </v>
   <v type="int" >       90 </v>
   <v type="int" >       91 </v>
   <v type="int" >       92 </v>
   <v type="int" >       93 </v>
   <v type="int" >       94 </v>
   <v type="int" >       95 </v>
   <v type="int" >       96 </v>
   <v type="int" >       97 </v>
   <v type="int" >       98 </v>
   <v type="int" >       99 </v>
   <v type="int" >      100 </v>
   <v type="int" >      101 </v>
   <v type="int" >      102 </v>
   <v type="int" >      103 </v>
   <v type="int" >      104 </v>
   <v type="int" >      105 </v>
   <v type="int" >      106 </v>
   <v type="int" >      107 </v>
   <v type="int" >      108 </v>
   <v type="int" >      109 </v>
   <v type="int" >      110 </v>
   <v type="int" >      111 </v>
   <v type="int" >      112 </v>
   <v type="int" >      113 </v>
   <v type="int" >      114 </v>
   <v type="int" >      115 </v>
   <v type="int" >      116 </v>
   <v type="int" >      117 </v>
   <v type="int" >      118 </v>
   <v type="int" >      119 </v>
   <v type="int" >      120 </v>
   <v type="int" >      121 </v>
   <v type="int" >      122 </v>
   <v type="int" >      123 </v>
   <v type="int" >      124 </v>
   <v type="int" >      125 </v>
   <v type="int" >      126 </v>
   <v type="int" >      127 </v>
   <v type="int" >      128 </v>
   <v type="int" >      129 </v>
   <v type="int" >      130 </v>
   <v type="int" >      131 </v>
   <v type="int" >      132 </v>
   <v type="int" >      133 </v>
   <v type="int" >      134 </v>
   <v type="int" >      135 </v>
   <v type="int" >      136 </v>
   <v type="int" >      137 </v>
   <v type="int" >      138 </v>
   <v type="int" >      139 </v>
   <v type="int" >      140 </v>
   <v type="int" >      141 </v>
   <v type="int" >      142 </v>
   <v type="int" >      143 </v>
   <v type="int" >      144 </v>
   <v type="int" >      145 </v>
   <v type="int" >      146 </v>
   <v type="int" >      147 </v>
   <v type="int" >      148 </v>
   <v type="int" >      149 </v>
   <v type="int" >      150 </v>
   <v type="int" >      151 </v>
   <v type="int" >      152 </v>
   <v type="int" >      153 </v>
   <v type="int" >      154 </v>
   <v type="int" >      155 </v>
   <v type="int" >      156 </v>
   <v type="int" >      157 </v>
   <v type="int" >      158 </v>
   <v type="int" >      159 </v>
   <v type="int" >      160 </v>
   <v type="int" >      161 </v>
   <v type="int" >      162 </v>
   <v type="int" >      163 </v>
   <v type="int" >      164 </v>
   <v type="int" >      165 </v>
   <v type="int" >      166 </v>
   <v type="int" >      167 </v>
   <v type="int" >      168 </v>
   <v type="int" >      169 </v>
   <v type="int" >      170 </v>
   <v type="int" >      171 </v>
   <v type="int" >      172 </v>
   <v type="int" >      173 </v>
   <v type="int" >      174 </v>
   <v type="int" >      175 </v>
   <v type="int" >      176 </v>
   <v type="int" >      177 </v>
   <v type="int" >      178 </v>
   <v type="int" >      179 </v>
   <v type="int" >      180 </v>
   <v type="int" >      181 </v>
   <v type="int" >      182 </v>
   <v type="int" >      183 </v>
   <v type="int" >      184 </v>
   <v type="int" >      185 </v>
   <v type="int" >      186 </v>
   <v type="int" >      187 </v>
   <v type="int" >      188 </v>
   <v type="int" >      189 </v>
   <v type="int" >      190 </v>
   <v type="int" >      191 </v>
   <v type="int" >      192 </v>
   <v type="int" >      193 </v>
   <v type="int" >      194 </v>
   <v type="int" >      195 </v>
   <v type="int" >      196 </v>
   <v type="int" >      197 </v>
   <v type="int" >      198 </v>
   <v type="int" >      199 </v>
   <v type="int" >      200 </v>
   <v type="int" >      201 </v>
   <v type="int" >      202 </v>
   <v type="int" >      203 </v>
   <v type="int" >      204 </v>
   <v type="int" >      205 </v>
   <v type="int" >      206 </v>
   <v type="int" >      207 </v>
   <v type="int" >      208 </v>
   <v type="int" >      209 </v>
   <v type="int" >      210 </v>
   <v type="int" >      211 </v>
   <v type="int" >      212 </v>
   <v type="int" >      213 </v>
   <v type="int" >      214 </v>
   <v type="int" >      215 </v>
   <v type="int" >      216 </v>
   <v type="int" >      217 </v>
   <v type="int" >      218 </v>
   <v type="int" >      219 </v>
   <v type="int" >      220 </v>
   <v type="int" >      221 </v>
   <v type="int" >      222 </v>
   <v type="int" >      223 </v>
   <v type="int" >      224 </v>
   <v type="int" >      225 </v>
   <v type="int" >      226 </v>
   <v type="int" >      227 </v>
   <v type="int" >      228 </v>
   <v type="int" >      229 </v>
   <v type="int" >      230 </v>
   <v type="int" >      231 </v>
   <v type="int" >      232 </v>
   <v type="int" >      233 </v>
   <v type="int" >      234 </v>
   <v type="int" >      235 </v>
   <v type="int" >      236 </v>
   <v type="int" >      237 </v>
   <v type="int" >      238 </v>
   <v type="int" >      239 </v>
   <v type="int" >      240 </v>
   <v type="int" >      241 </v>
   <v type="int" >      242 </v>
   <v type="int" >      243 </v>
   <v type="int" >      244 </v>
   <v type="int" >      245 </v>
   <v type="int" >      246 </v>
   <v type="int" >      247 </v>
   <v type="int" >      248 </v>
   <v type="int" >      249 </v>
   <v type="int" >      250 </v>
   <v type="int" >      251 </v>
   <v type="int" >      252 </v>
   <v type="int" >      253 </v>
   <v type="int" >      254 </v>
   <v type="int" >      255 </v>
   <v type="int" >      256 </v>
   <v type="int" >      257 </v>
   <v type="int" >      258 </v>
   <v type="int" >      259 </v>
   <v type="int" >      260 </v>
   <v type="int" >      261 </v>
   <v type="int" >      262 </v>
   <v type="int" >      263 </v>
   <v type="int" >      264 </v>
   <v type="int" >      265 </v>
   <v type="int" >      266 </v>
   <v type="int" >      267 </v>
   <v type="int" >      268 </v>
   <v type="int" >      269 </v>
   <v type="int" >      270 </v>
   <v type="int" >      271 </v>
   <v type="int" >      272 </v>
   <v type="int" >      273 </v>
   <v type="int" >      274 </v>
   <v type="int" >      275 </v>
   <v type="int" >      276 </v>
   <v type="int" >      277 </v>
   <v type="int" >      278 </v>
   <v type="int" >      279 </v>
   <v type="int" >      280 </v>
   <v type="int" >      281 </v>
   <v type="int" >      282 </v>
   <v type="int" >      283 </v>
   <v type="int" >      284 </v>
   <v type="int" >      285 </v>
   <v type="int" >      286 </v>
   <v type="int" >      287 </v>
   <v type="int" >      288 </v>
   <v type="int" >      289 </v>
   <v type="int" >      290 </v>
   <v type="int" >      291 </v>
   <v type="int" >      292 </v>
   <v type="int" >      293 </v>
   <v type="int" >      294 </v>
   <v type="int" >      295 </v>
   <v type="int" >      296 </v>
   <v type="int" >      297 </v>
   <v type="int" >      298 </v>
   <v type="int" >      299 </v>
   <v type="int" >      300 </v>
   <v type="int" >      301 </v>
   <v type="int" >      302 </v>
   <v type="int" >      303 </v>
   <v type="int" >      304 </v>
   <v type="int" >      305 </v>
   <v type="int" >      306 </v>
   <v type="int" >      307 </v>
   <v type="int" >      308 </v>
   <v type="int" >      309 </v>
   <v type="int" >      310 </v>
   <v type="int" >      311 </v>
   <v type="int" >      312 </v>
   <v type="int" >      313 </v>
   <v type="int" >      314 </v>
   <v type="int" >      315 </v>
   <v type="int" >      316 </v>
   <v type="int" >      317 </v>
   <v type="int" >      318 </v>
   <v type="int" >      319 </v>
   <v type="int" >      320 </v>
   <v type="int" >      321 </v>
   <v type="int" >      322 </v>
   <v type="int" >      323 </v>
   <v type="int" >      324 </v>
   <v type="int" >      325 </v>
  </varray>
 </primitive_cell>
 <kpoints>
  <generation param="Gamma">
   <v type="int" name="divisions">       3        3        1 </v>
   <v name="usershift">      0.00000000       0.00000000       0.00000000 </v>
   <v name="genvec1">      0.33333333       0.00000000       0.00000000 </v>
   <v name="genvec2">      0.00000000       0.33333333       0.00000000 </v>
   <v name="genvec3">      0.00000000       0.00000000       1.00000000 </v>
   <v name="shift">      0.00000000       0.00000000       0.00000000 </v>
  </generation>
  <varray name="kpointlist" >
   <v>       0.00000000       0.00000000       0.00000000 </v>
   <v>       0.33333333       0.00000000       0.00000000 </v>
   <v>       0.00000000       0.33333333       0.00000000 </v>
   <v>       0.33333333       0.33333333       0.00000000 </v>
   <v>      -0.33333333       0.33333333       0.00000000 </v>
  </varray>
  <varray name="weights" >
   <v>       0.11111111 </v>
   <v>       0.22222222 </v>
   <v>       0.22222222 </v>
   <v>       0.22222222 </v>
   <v>       0.22222222 </v>
  </varray>
 </kpoints>
 <parameters>
  <separator name="general" >
   <i type="string" name="SYSTEM">PSC</i>
   <i type="logical" name="LCOMPAT"> F  </i>
  </separator>
  <separator name="electronic" >
   <i type="string" name="PREC">normal</i>
   <i name="ENMAX">    500.00000000</i>
   <i name="ENAUG">    644.87300000</i>
   <i name="EDIFF">      0.00010000</i>
   <i type="int" name="IALGO">    38</i>
   <i type="int" name="IWAVPR">    10</i>
   <i type="int" name="NBANDS">   732</i>
   <i type="int" name="NBANDSLOW">    -1</i>
   <i type="int" name="NBANDSHIGH">    -1</i>
   <i name="NELECT">   1134.00000000</i>
   <i type="int" name="TURBO">     0</i>
   <i type="int" name="IRESTART">     0</i>
   <i type="int" name="NREBOOT">     0</i>
   <i type="int" name="NMIN">     0</i>
   <i name="EREF">      0.00000000</i>
   <separator name="electronic smearing" >
    <i type="int" name="ISMEAR">     0</i>
    <i name="SIGMA">      0.05000000</i>
    <i name="KSPACING">      0.50000000</i>
    <i type="logical" name="KGAMMA"> T  </i>
    <i type="logical" name="KBLOWUP"> T  </i>
   </separator>
   <separator name="electronic projectors" >
    <i type="logical" name="LREAL"> T  </i>
    <v name="ROPT">     -0.00050000     -0.00050000     -0.00050000     -0.00050000     -0.00050000</v>
    <i type="int" name="LMAXPAW">  -100</i>
    <i type="int" name="LMAXMIX">     2</i>
    <i type="logical" name="NLSPLINE"> F  </i>
   </separator>
   <separator name="electronic startup" >
    <i type="int" name="ISTART">     0</i>
    <i type="int" name="ICHARG">     1</i>
    <i type="int" name="INIWAV">     1</i>
   </separator>
   <separator name="electronic spin" >
    <i type="int" name="ISPIN">     1</i>
    <i type="logical" name="LNONCOLLINEAR"> F  </i>
    <v name="MAGMOM">      1.00000000      1.00000000      1.00000000      1.00000000      1.00000000      1.00000000      1.00000000      1.00000000      1.00000000      1.00000000      1.00000000      1.00000000      1.00000000      1.00000000      1.00000000      1.00000000      1.00000000      1.00000000      1.00000000      1.00000000
      1.00000000      1.00000000      1.00000000      1.00000000      1.00000000      1.00000000      1.00000000      1.00000000      1.00000000      1.00000000      1.00000000      1.00000000      1.00000000      1.00000000      1.00000000      1.00000000      1.00000000      1.00000000      1.00000000      1.00000000
      1.00000000      1.00000000      1.00000000      1.00000000      1.00000000      1.00000000      1.00000000      1.00000000      1.00000000      1.00000000      1.00000000      1.00000000      1.00000000      1.00000000      1.00000000      1.00000000      1.00000000      1.00000000      1.00000000      1.00000000
      1.00000000      1.00000000      1.00000000      1.00000000      1.00000000      1.00000000      1.00000000      1.00000000      1.00000000      1.00000000      1.00000000      1.00000000      1.00000000      1.00000000      1.00000000      1.00000000      1.00000000      1.00000000      1.00000000      1.00000000
      1.00000000      1.00000000      1.00000000      1.00000000      1.00000000      1.00000000      1.00000000      1.00000000      1.00000000      1.00000000      1.00000000      1.00000000      1.00000000      1.00000000      1.00000000      1.00000000      1.00000000      1.00000000      1.00000000      1.00000000
      1.00000000      1.00000000      1.00000000      1.00000000      1.00000000      1.00000000      1.00000000      1.00000000      1.00000000      1.00000000      1.00000000      1.00000000      1.00000000      1.00000000      1.00000000      1.00000000      1.00000000      1.00000000      1.00000000      1.00000000
      1.00000000      1.00000000      1.00000000      1.00000000      1.00000000      1.00000000      1.00000000      1.00000000      1.00000000      1.00000000      1.00000000      1.00000000      1.00000000      1.00000000      1.00000000      1.00000000      1.00000000      1.00000000      1.00000000      1.00000000
      1.00000000      1.00000000      1.00000000      1.00000000      1.00000000      1.00000000      1.00000000      1.00000000      1.00000000      1.00000000      1.00000000      1.00000000      1.00000000      1.00000000      1.00000000      1.00000000      1.00000000      1.00000000      1.00000000      1.00000000
      1.00000000      1.00000000      1.00000000      1.00000000      1.00000000      1.00000000      1.00000000      1.00000000      1.00000000      1.00000000      1.00000000      1.00000000      1.00000000      1.00000000      1.00000000      1.00000000      1.00000000      1.00000000      1.00000000      1.00000000
      1.00000000      1.00000000      1.00000000      1.00000000      1.00000000      1.00000000      1.00000000      1.00000000      1.00000000      1.00000000      1.00000000      1.00000000      1.00000000      1.00000000      1.00000000      1.00000000      1.00000000      1.00000000      1.00000000      1.00000000
      1.00000000      1.00000000      1.00000000      1.00000000      1.00000000      1.00000000      1.00000000      1.00000000      1.00000000      1.00000000      1.00000000      1.00000000      1.00000000      1.00000000      1.00000000      1.00000000      1.00000000      1.00000000      1.00000000      1.00000000
      1.00000000      1.00000000      1.00000000      1.00000000      1.00000000      1.00000000      1.00000000      1.00000000      1.00000000      1.00000000      1.00000000      1.00000000      1.00000000      1.00000000      1.00000000      1.00000000      1.00000000      1.00000000      1.00000000      1.00000000
      1.00000000      1.00000000      1.00000000      1.00000000      1.00000000      1.00000000      1.00000000      1.00000000      1.00000000      1.00000000      1.00000000      1.00000000      1.00000000      1.00000000      1.00000000      1.00000000      1.00000000      1.00000000      1.00000000      1.00000000
      1.00000000      1.00000000      1.00000000      1.00000000      1.00000000      1.00000000      1.00000000      1.00000000      1.00000000      1.00000000      1.00000000      1.00000000      1.00000000      1.00000000      1.00000000      1.00000000      1.00000000      1.00000000      1.00000000      1.00000000
      1.00000000      1.00000000      1.00000000      1.00000000      1.00000000      1.00000000      1.00000000      1.00000000      1.00000000      1.00000000      1.00000000      1.00000000      1.00000000      1.00000000      1.00000000      1.00000000      1.00000000      1.00000000      1.00000000      1.00000000
      1.00000000      1.00000000      1.00000000      1.00000000      1.00000000      1.00000000      1.00000000      1.00000000      1.00000000      1.00000000      1.00000000      1.00000000      1.00000000      1.00000000      1.00000000      1.00000000      1.00000000      1.00000000      1.00000000      1.00000000
      1.00000000      1.00000000      1.00000000      1.00000000      1.00000000</v>
    <i name="NUPDOWN">     -1.00000000</i>
    <i type="logical" name="LSORBIT"> F  </i>
    <v name="SAXIS">      0.00000000      0.00000000      1.00000000</v>
    <i type="logical" name="LSPIRAL"> F  </i>
    <v name="QSPIRAL">      0.00000000      0.00000000      0.00000000</v>
    <i type="logical" name="LZEROZ"> F  </i>
   </separator>
   <separator name="electronic exchange-correlation" >
    <i type="logical" name="LASPH"> F  </i>
    <i type="logical" name="LMETAGGA"> F  </i>
   </separator>
   <separator name="electronic convergence" >
    <i type="int" name="NELM">   600</i>
    <i type="int" name="NELMDL">     0</i>
    <i type="int" name="NELMIN">     2</i>
    <i name="ENINI">    500.00000000</i>
    <separator name="electronic convergence detail" >
     <i type="logical" name="LDIAG"> T  </i>
     <i type="logical" name="LSUBROT"> F  </i>
     <i name="WEIMIN">      0.00000000</i>
     <i name="EBREAK">      0.00000003</i>
     <i name="DEPER">      0.30000000</i>
     <i type="int" name="NRMM">     4</i>
     <i name="TIME">      0.40000000</i>
    </separator>
   </separator>
   <separator name="electronic mixer" >
    <i name="AMIX">      0.40000000</i>
    <i name="BMIX">      0.01000000</i>
    <i name="AMIN">      0.01000000</i>
    <i name="AMIX_MAG">      1.60000000</i>
    <i name="BMIX_MAG">      0.01000000</i>
    <separator name="electronic mixer details" >
     <i type="int" name="IMIX">     4</i>
     <i type="logical" name="MIXFIRST"> F  </i>
     <i type="int" name="MAXMIX">   -45</i>
     <i name="WC">    100.00000000</i>
     <i type="int" name="INIMIX">     1</i>
     <i type="int" name="MIXPRE">     1</i>
     <i type="int" name="MREMOVE">     5</i>
    </separator>
   </separator>
   <separator name="electronic dipolcorrection" >
    <i type="logical" name="LDIPOL"> T  </i>
    <i type="logical" name="LMONO"> F  </i>
    <i type="int" name="IDIPOL">     3</i>
    <i name="EPSILON">      1.00000000</i>
    <v name="DIPOL">   -100.00000000   -100.00000000   -100.00000000</v>
    <i name="EFIELD">      0.00000000</i>
   </separator>
  </separator>
  <separator name="grids" >
   <i type="int" name="NGX">   100</i>
   <i type="int" name="NGY">   100</i>
   <i type="int" name="NGZ">   350</i>
   <i type="int" name="NGXF">   200</i>
   <i type="int" name="NGYF">   200</i>
   <i type="int" name="NGZF">   700</i>
   <i type="logical" name="ADDGRID"> F  </i>
  </separator>
  <separator name="ionic" >
   <i type="int" name="NSW">     0</i>
   <i type="int" name="IBRION">    -1</i>
   <i type="int" name="MDALGO">     0</i>
   <i type="int" name="ISIF">     2</i>
   <i name="PSTRESS">      0.00000000</i>
   <i name="EDIFFG">      0.00100000</i>
   <i type="int" name="NFREE">     0</i>
   <i name="POTIM">      0.50000000</i>
   <i name="SMASS">     -3.00000000</i>
   <i name="SCALEE">      1.00000000</i>
  </separator>
  <separator name="ionic md" >
   <i name="TEBEG">      0.00010000</i>
   <i name="TEEND">      0.00010000</i>
   <i type="int" name="NBLOCK">     1</i>
   <i type="int" name="KBLOCK">     1</i>
   <i type="int" name="NPACO">   256</i>
   <i name="APACO">     16.00000000</i>
  </separator>
  <separator name="symmetry" >
   <i type="int" name="ISYM">     0</i>
   <i name="SYMPREC">      0.00001000</i>
  </separator>
  <separator name="dos" >
   <i type="int" name="LORBIT">     0</i>
   <v name="RWIGS">     -1.00000000     -1.00000000     -1.00000000     -1.00000000     -1.00000000</v>
   <i type="int" name="NEDOS">   301</i>
   <i name="EMIN">     10.00000000</i>
   <i name="EMAX">    -10.00000000</i>
   <i name="EFERMI">      0.00000000</i>
  </separator>
  <separator name="writing" >
   <i type="int" name="NWRITE">     2</i>
   <i type="logical" name="LWAVE"> F  </i>
   <i type="logical" name="LDOWNSAMPLE"> F  </i>
   <i type="logical" name="LCHARG"> T  </i>
   <i type="logical" name="LPARD"> F  </i>
   <i type="logical" name="LVTOT"> T  </i>
   <i type="logical" name="LVHAR"> F  </i>
   <i type="logical" name="LELF"> F  </i>
   <i type="logical" name="LOPTICS"> F  </i>
   <v name="STM">      0.00000000      0.00000000      0.00000000      0.00000000      0.00000000      0.00000000      0.00000000</v>
  </separator>
  <separator name="performance" >
   <i type="int" name="NPAR">     4</i>
   <i type="int" name="NSIM">     4</i>
   <i type="int" name="NBLK">    -1</i>
   <i type="logical" name="LPLANE"> T  </i>
   <i type="logical" name="LSCALAPACK"> T  </i>
   <i type="logical" name="LSCAAWARE"> F  </i>
   <i type="logical" name="LSCALU"> F  </i>
   <i type="logical" name="LASYNC"> F  </i>
   <i type="logical" name="LORBITALREAL"> F  </i>
  </separator>
  <separator name="miscellaneous" >
   <i type="int" name="IDIOT">     3</i>
   <i type="int" name="PHON_NSTRUCT">    -1</i>
   <i type="logical" name="LMUSIC"> F  </i>
   <v name="POMASS">      1.00000000     12.01100000     14.00100000    126.90400000    207.20000000</v>
   <v name="DARWINR">      0.00000000      0.00000000      0.00000000      0.00000000      0.00000000</v>
   <v name="DARWINV">      1.00000000      1.00000000      1.00000000      1.00000000      1.00000000</v>
   <i type="logical" name="LCORR"> T  </i>
  </separator>
  <i type="logical" name="GGA_COMPAT"> F  </i>
  <i type="logical" name="LBERRY"> F  </i>
  <i type="int" name="ICORELEVEL">     0</i>
  <i type="logical" name="LDAU"> F  </i>
  <i type="int" name="I_CONSTRAINED_M">     0</i>
  <separator name="electronic exchange-correlation" >
   <i type="string" name="GGA">--</i>
   <i type="int" name="VOSKOWN">     0</i>
   <i type="logical" name="LHFCALC"> F  </i>
   <i type="string" name="PRECFOCK"></i>
   <i type="logical" name="LSYMGRAD"> F  </i>
   <i type="logical" name="LHFONE"> F  </i>
   <i type="logical" name="LRHFCALC"> F  </i>
   <i type="logical" name="LTHOMAS"> F  </i>
   <i type="logical" name="LMODELHF"> F  </i>
   <i type="logical" name="LFOCKACE"> F  </i>
   <i name="ENCUT4O">     -1.00000000</i>
   <i type="int" name="EXXOEP">     0</i>
   <i type="int" name="FOURORBIT">     0</i>
   <i name="AEXX">      0.00000000</i>
   <i name="HFALPHA">      0.00000000</i>
   <i name="MCALPHA">      0.00000000</i>
   <i name="ALDAX">      1.00000000</i>
   <i name="AGGAX">      1.00000000</i>
   <i name="ALDAC">      1.00000000</i>
   <i name="AGGAC">      1.00000000</i>
   <i type="int" name="NKREDX">     1</i>
   <i type="int" name="NKREDY">     1</i>
   <i type="int" name="NKREDZ">     1</i>
   <i type="logical" name="SHIFTRED"> F  </i>
   <i type="logical" name="ODDONLY"> F  </i>
   <i type="logical" name="EVENONLY"> F  </i>
   <i type="int" name="LMAXFOCK">     0</i>
   <i type="int" name="NMAXFOCKAE">     0</i>
   <i type="logical" name="LFOCKAEDFT"> F  </i>
   <i name="HFSCREEN">      0.00000000</i>
   <i name="HFSCREENC">      0.00000000</i>
   <i type="int" name="NBANDSGWLOW">     0</i>
  </separator>
  <separator name="vdW DFT" >
   <i type="logical" name="LUSE_VDW"> F  </i>
   <i name="Zab_VDW">     -0.84910000</i>
   <i name="PARAM1">      0.12340000</i>
   <i name="PARAM2">      1.00000000</i>
   <i name="PARAM3">      0.00000000</i>
  </separator>
  <separator name="model GW" >
   <i type="int" name="MODEL_GW">     0</i>
   <i name="MODEL_EPS0">     37.63423484</i>
   <i name="MODEL_ALPHA">      1.00000000</i>
  </separator>
  <separator name="linear response parameters" >
   <i type="logical" name="LEPSILON"> F  </i>
   <i type="logical" name="LRPA"> F  </i>
   <i type="logical" name="LNABLA"> F  </i>
   <i type="logical" name="LVEL"> F  </i>
   <i type="int" name="KINTER">     0</i>
   <i name="CSHIFT">      0.10000000</i>
   <i name="OMEGAMAX">     -1.00000000</i>
   <i name="DEG_THRESHOLD">      0.00200000</i>
   <i name="RTIME">     -0.10000000</i>
   <i name="WPLASMAI">      0.00000000</i>
   <v name="DFIELD">      0.00000000      0.00000000      0.00000000</v>
   <v name="WPLASMA">      0.00000000      0.00000000      0.00000000      0.00000000      0.00000000      0.00000000      0.00000000      0.00000000      0.00000000</v>
  </separator>
  <separator name="orbital magnetization" >
   <i type="logical" name="NUCIND"> F  </i>
   <v name="MAGPOS">      0.00000000      0.00000000      0.00000000</v>
   <i type="logical" name="LNICSALL"> T  </i>
   <i type="logical" name="ORBITALMAG"> F  </i>
   <i type="logical" name="LMAGBLOCH"> F  </i>
   <i type="logical" name="LCHIMAG"> F  </i>
   <i type="logical" name="LGAUGE"> T  </i>
   <i type="int" name="MAGATOM">     0</i>
   <v name="MAGDIPOL">      0.00000000      0.00000000      0.00000000</v>
   <v name="AVECCONST">      0.00000000      0.00000000      0.00000000</v>
  </separator>
  <separator name="response functions" >
   <i type="logical" name="LFINITE_TEMPERATURE"> F  </i>
   <i type="logical" name="LADDER"> F  </i>
   <i type="logical" name="LRPAFORCE"> F  </i>
   <i type="logical" name="LFXC"> F  </i>
   <i type="logical" name="LHARTREE"> T  </i>
   <i type="int" name="IBSE">     0</i>
   <v type="int" name="KPOINT">    -1     0     0     0</v>
   <i type="logical" name="LTCTC"> F  </i>
   <i type="logical" name="LTCTE"> F  </i>
   <i type="logical" name="LTETE"> F  </i>
   <i type="logical" name="LTRIPLET"> F  </i>
   <i type="logical" name="LFXCEPS"> F  </i>
   <i type="logical" name="LFXHEG"> F  </i>
   <i type="int" name="NATURALO">     2</i>
   <i type="logical" name="LHOLEGF"> F  </i>
   <i type="logical" name="L2ORDER"> F  </i>
   <i type="logical" name="LDMP1"> F  </i>
   <i type="logical" name="LMP2LT"> F  </i>
   <i type="logical" name="LSMP2LT"> F  </i>
   <i type="logical" name="LGWLF"> F  </i>
   <i name="ENCUTGW">     -2.00000000</i>
   <i name="ENCUTGWSOFT">     -2.00000000</i>
   <i name="ENCUTLF">     -1.00000000</i>
   <i type="logical" name="LESF_SPLINES"> F  </i>
   <i type="int" name="LMAXMP2">    -1</i>
   <i name="SCISSOR">      0.00000000</i>
   <i type="int" name="NOMEGA">     0</i>
   <i type="int" name="NOMEGAR">     0</i>
   <i type="int" name="NBANDSGW">    -1</i>
   <i type="int" name="NBANDSO">    -1</i>
   <i type="int" name="NBANDSV">    -1</i>
   <i type="int" name="NELM">   600</i>
   <i type="int" name="NELMHF">     1</i>
   <i type="int" name="DIM">     3</i>
   <i type="int" name="IESPILON">     4</i>
   <i type="int" name="ANTIRES">     0</i>
   <i name="OMEGAMAX">    -30.00000000</i>
   <i name="OMEGAMIN">    -30.00000000</i>
   <i name="OMEGATL">   -200.00000000</i>
   <i type="int" name="OMEGAGRID">     0</i>
   <i name="CSHIFT">     -0.10000000</i>
   <i type="logical" name="LSELFENERGY"> F  </i>
   <i type="logical" name="LSPECTRAL"> F  </i>
   <i type="logical" name="LSPECTRALGW"> F  </i>
   <i type="logical" name="LSINGLES"> F  </i>
   <i type="logical" name="LFERMIGW"> F  </i>
   <i type="logical" name="ODDONLYGW"> F  </i>
   <i type="logical" name="EVENONLYGW"> F  </i>
   <i type="int" name="NKREDLFX">     1</i>
   <i type="int" name="NKREDLFY">     1</i>
   <i type="int" name="NKREDLFZ">     1</i>
   <i type="int" name="MAXMEM">  2800</i>
   <i type="int" name="TELESCOPE">     0</i>
   <i type="int" name="NTAUPAR">    -1</i>
   <i type="int" name="NOMEGAPAR">    -1</i>
   <i name="DAMP_NEWTON">      0.80000001</i>
   <i name="LAMBDA">      1.00000000</i>
  </separator>
  <separator name="External order field" >
   <i name="OFIELD_KAPPA">      0.00000000</i>
   <v name="OFIELD_K">      0.00000000      0.00000000      0.00000000</v>
   <i name="OFIELD_Q6_NEAR">      0.00000000</i>
   <i name="OFIELD_Q6_FAR">      0.00000000</i>
   <i name="OFIELD_A">      0.00000000</i>
  </separator>
 </parameters>
 <atominfo>
  <atoms>     325 </atoms>
  <types>       5 </types>
  <array name="atoms" >
   <dimension dim="1">ion</dimension>
   <field type="string">element</field>
   <field type="int">atomtype</field>
   <set>
    <rc><c>H </c><c>   1</c></rc>
    <rc><c>H </c><c>   1</c></rc>
    <rc><c>H </c><c>   1</c></rc>
    <rc><c>H </c><c>   1</c></rc>
    <rc><c>H </c><c>   1</c></rc>
    <rc><c>H </c><c>   1</c></rc>
    <rc><c>H </c><c>   1</c></rc>
    <rc><c>H </c><c>   1</c></rc>
    <rc><c>H </c><c>   1</c></rc>
    <rc><c>H </c><c>   1</c></rc>
    <rc><c>H </c><c>   1</c></rc>
    <rc><c>H </c><c>   1</c></rc>
    <rc><c>H </c><c>   1</c></rc>
    <rc><c>H </c><c>   1</c></rc>
    <rc><c>H </c><c>   1</c></rc>
    <rc><c>H </c><c>   1</c></rc>
    <rc><c>H </c><c>   1</c></rc>
    <rc><c>H </c><c>   1</c></rc>
    <rc><c>H </c><c>   1</c></rc>
    <rc><c>H </c><c>   1</c></rc>
    <rc><c>H </c><c>   1</c></rc>
    <rc><c>H </c><c>   1</c></rc>
    <rc><c>H </c><c>   1</c></rc>
    <rc><c>H </c><c>   1</c></rc>
    <rc><c>H </c><c>   1</c></rc>
    <rc><c>H </c><c>   1</c></rc>
    <rc><c>H </c><c>   1</c></rc>
    <rc><c>H </c><c>   1</c></rc>
    <rc><c>H </c><c>   1</c></rc>
    <rc><c>H </c><c>   1</c></rc>
    <rc><c>H </c><c>   1</c></rc>
    <rc><c>H </c><c>   1</c></rc>
    <rc><c>H </c><c>   1</c></rc>
    <rc><c>H </c><c>   1</c></rc>
    <rc><c>H </c><c>   1</c></rc>
    <rc><c>H </c><c>   1</c></rc>
    <rc><c>H </c><c>   1</c></rc>
    <rc><c>H </c><c>   1</c></rc>
    <rc><c>H </c><c>   1</c></rc>
    <rc><c>H </c><c>   1</c></rc>
    <rc><c>H </c><c>   1</c></rc>
    <rc><c>H </c><c>   1</c></rc>
    <rc><c>H </c><c>   1</c></rc>
    <rc><c>H </c><c>   1</c></rc>
    <rc><c>H </c><c>   1</c></rc>
    <rc><c>H </c><c>   1</c></rc>
    <rc><c>H </c><c>   1</c></rc>
    <rc><c>H </c><c>   1</c></rc>
    <rc><c>H </c><c>   1</c></rc>
    <rc><c>H </c><c>   1</c></rc>
    <rc><c>H </c><c>   1</c></rc>
    <rc><c>H </c><c>   1</c></rc>
    <rc><c>H </c><c>   1</c></rc>
    <rc><c>H </c><c>   1</c></rc>
    <rc><c>H </c><c>   1</c></rc>
    <rc><c>H </c><c>   1</c></rc>
    <rc><c>H </c><c>   1</c></rc>
    <rc><c>H </c><c>   1</c></rc>
    <rc><c>H </c><c>   1</c></rc>
    <rc><c>H </c><c>   1</c></rc>
    <rc><c>H </c><c>   1</c></rc>
    <rc><c>H </c><c>   1</c></rc>
    <rc><c>H </c><c>   1</c></rc>
    <rc><c>H </c><c>   1</c></rc>
    <rc><c>H </c><c>   1</c></rc>
    <rc><c>H </c><c>   1</c></rc>
    <rc><c>H </c><c>   1</c></rc>
    <rc><c>H </c><c>   1</c></rc>
    <rc><c>H </c><c>   1</c></rc>
    <rc><c>H </c><c>   1</c></rc>
    <rc><c>H </c><c>   1</c></rc>
    <rc><c>H </c><c>   1</c></rc>
    <rc><c>H </c><c>   1</c></rc>
    <rc><c>H </c><c>   1</c></rc>
    <rc><c>H </c><c>   1</c></rc>
    <rc><c>H </c><c>   1</c></rc>
    <rc><c>H </c><c>   1</c></rc>
    <rc><c>H </c><c>   1</c></rc>
    <rc><c>H </c><c>   1</c></rc>
    <rc><c>H </c><c>   1</c></rc>
    <rc><c>H </c><c>   1</c></rc>
    <rc><c>H </c><c>   1</c></rc>
    <rc><c>H </c><c>   1</c></rc>
    <rc><c>H </c><c>   1</c></rc>
    <rc><c>H </c><c>   1</c></rc>
    <rc><c>H </c><c>   1</c></rc>
    <rc><c>H </c><c>   1</c></rc>
    <rc><c>H </c><c>   1</c></rc>
    <rc><c>H </c><c>   1</c></rc>
    <rc><c>H </c><c>   1</c></rc>
    <rc><c>H </c><c>   1</c></rc>
    <rc><c>H </c><c>   1</c></rc>
    <rc><c>H </c><c>   1</c></rc>
    <rc><c>H </c><c>   1</c></rc>
    <rc><c>H </c><c>   1</c></rc>
    <rc><c>H </c><c>   1</c></rc>
    <rc><c>H </c><c>   1</c></rc>
    <rc><c>H </c><c>   1</c></rc>
    <rc><c>H </c><c>   1</c></rc>
    <rc><c>H </c><c>   1</c></rc>
    <rc><c>H </c><c>   1</c></rc>
    <rc><c>H </c><c>   1</c></rc>
    <rc><c>H </c><c>   1</c></rc>
    <rc><c>H </c><c>   1</c></rc>
    <rc><c>H </c><c>   1</c></rc>
    <rc><c>H </c><c>   1</c></rc>
    <rc><c>H </c><c>   1</c></rc>
    <rc><c>H </c><c>   1</c></rc>
    <rc><c>H </c><c>   1</c></rc>
    <rc><c>H </c><c>   1</c></rc>
    <rc><c>H </c><c>   1</c></rc>
    <rc><c>H </c><c>   1</c></rc>
    <rc><c>H </c><c>   1</c></rc>
    <rc><c>H </c><c>   1</c></rc>
    <rc><c>H </c><c>   1</c></rc>
    <rc><c>H </c><c>   1</c></rc>
    <rc><c>H </c><c>   1</c></rc>
    <rc><c>H </c><c>   1</c></rc>
    <rc><c>H </c><c>   1</c></rc>
    <rc><c>H </c><c>   1</c></rc>
    <rc><c>H </c><c>   1</c></rc>
    <rc><c>H </c><c>   1</c></rc>
    <rc><c>H </c><c>   1</c></rc>
    <rc><c>H </c><c>   1</c></rc>
    <rc><c>H </c><c>   1</c></rc>
    <rc><c>H </c><c>   1</c></rc>
    <rc><c>H </c><c>   1</c></rc>
    <rc><c>H </c><c>   1</c></rc>
    <rc><c>H </c><c>   1</c></rc>
    <rc><c>H </c><c>   1</c></rc>
    <rc><c>H </c><c>   1</c></rc>
    <rc><c>H </c><c>   1</c></rc>
    <rc><c>H </c><c>   1</c></rc>
    <rc><c>H </c><c>   1</c></rc>
    <rc><c>H </c><c>   1</c></rc>
    <rc><c>H </c><c>   1</c></rc>
    <rc><c>H </c><c>   1</c></rc>
    <rc><c>H </c><c>   1</c></rc>
    <rc><c>H </c><c>   1</c></rc>
    <rc><c>H </c><c>   1</c></rc>
    <rc><c>H </c><c>   1</c></rc>
    <rc><c>H </c><c>   1</c></rc>
    <rc><c>H </c><c>   1</c></rc>
    <rc><c>C </c><c>   2</c></rc>
    <rc><c>C </c><c>   2</c></rc>
    <rc><c>C </c><c>   2</c></rc>
    <rc><c>C </c><c>   2</c></rc>
    <rc><c>C </c><c>   2</c></rc>
    <rc><c>C </c><c>   2</c></rc>
    <rc><c>C </c><c>   2</c></rc>
    <rc><c>C </c><c>   2</c></rc>
    <rc><c>C </c><c>   2</c></rc>
    <rc><c>C </c><c>   2</c></rc>
    <rc><c>C </c><c>   2</c></rc>
    <rc><c>C </c><c>   2</c></rc>
    <rc><c>C </c><c>   2</c></rc>
    <rc><c>C </c><c>   2</c></rc>
    <rc><c>C </c><c>   2</c></rc>
    <rc><c>C </c><c>   2</c></rc>
    <rc><c>C </c><c>   2</c></rc>
    <rc><c>C </c><c>   2</c></rc>
    <rc><c>C </c><c>   2</c></rc>
    <rc><c>C </c><c>   2</c></rc>
    <rc><c>C </c><c>   2</c></rc>
    <rc><c>C </c><c>   2</c></rc>
    <rc><c>C </c><c>   2</c></rc>
    <rc><c>C </c><c>   2</c></rc>
    <rc><c>C </c><c>   2</c></rc>
    <rc><c>C </c><c>   2</c></rc>
    <rc><c>C </c><c>   2</c></rc>
    <rc><c>C </c><c>   2</c></rc>
    <rc><c>C </c><c>   2</c></rc>
    <rc><c>C </c><c>   2</c></rc>
    <rc><c>C </c><c>   2</c></rc>
    <rc><c>C </c><c>   2</c></rc>
    <rc><c>C </c><c>   2</c></rc>
    <rc><c>C </c><c>   2</c></rc>
    <rc><c>C </c><c>   2</c></rc>
    <rc><c>C </c><c>   2</c></rc>
    <rc><c>C </c><c>   2</c></rc>
    <rc><c>C </c><c>   2</c></rc>
    <rc><c>C </c><c>   2</c></rc>
    <rc><c>N </c><c>   3</c></rc>
    <rc><c>N </c><c>   3</c></rc>
    <rc><c>N </c><c>   3</c></rc>
    <rc><c>N </c><c>   3</c></rc>
    <rc><c>N </c><c>   3</c></rc>
    <rc><c>N </c><c>   3</c></rc>
    <rc><c>N </c><c>   3</c></rc>
    <rc><c>N </c><c>   3</c></rc>
    <rc><c>N </c><c>   3</c></rc>
    <rc><c>N </c><c>   3</c></rc>
    <rc><c>N </c><c>   3</c></rc>
    <rc><c>N </c><c>   3</c></rc>
    <rc><c>N </c><c>   3</c></rc>
    <rc><c>N </c><c>   3</c></rc>
    <rc><c>N </c><c>   3</c></rc>
    <rc><c>N </c><c>   3</c></rc>
    <rc><c>N </c><c>   3</c></rc>
    <rc><c>N </c><c>   3</c></rc>
    <rc><c>N </c><c>   3</c></rc>
    <rc><c>N </c><c>   3</c></rc>
    <rc><c>N </c><c>   3</c></rc>
    <rc><c>N </c><c>   3</c></rc>
    <rc><c>N </c><c>   3</c></rc>
    <rc><c>N </c><c>   3</c></rc>
    <rc><c>N </c><c>   3</c></rc>
    <rc><c>N </c><c>   3</c></rc>
    <rc><c>N </c><c>   3</c></rc>
    <rc><c>N </c><c>   3</c></rc>
    <rc><c>N </c><c>   3</c></rc>
    <rc><c>N </c><c>   3</c></rc>
    <rc><c>N </c><c>   3</c></rc>
    <rc><c>N </c><c>   3</c></rc>
    <rc><c>N </c><c>   3</c></rc>
    <rc><c>N </c><c>   3</c></rc>
    <rc><c>N </c><c>   3</c></rc>
    <rc><c>N </c><c>   3</c></rc>
    <rc><c>N </c><c>   3</c></rc>
    <rc><c>N </c><c>   3</c></rc>
    <rc><c>N </c><c>   3</c></rc>
    <rc><c>N </c><c>   3</c></rc>
    <rc><c>N </c><c>   3</c></rc>
    <rc><c>N </c><c>   3</c></rc>
    <rc><c>N </c><c>   3</c></rc>
    <rc><c>N </c><c>   3</c></rc>
    <rc><c>N </c><c>   3</c></rc>
    <rc><c>N </c><c>   3</c></rc>
    <rc><c>N </c><c>   3</c></rc>
    <rc><c>I </c><c>   4</c></rc>
    <rc><c>I </c><c>   4</c></rc>
    <rc><c>I </c><c>   4</c></rc>
    <rc><c>I </c><c>   4</c></rc>
    <rc><c>I </c><c>   4</c></rc>
    <rc><c>I </c><c>   4</c></rc>
    <rc><c>I </c><c>   4</c></rc>
    <rc><c>I </c><c>   4</c></rc>
    <rc><c>I </c><c>   4</c></rc>
    <rc><c>I </c><c>   4</c></rc>
    <rc><c>I </c><c>   4</c></rc>
    <rc><c>I </c><c>   4</c></rc>
    <rc><c>I </c><c>   4</c></rc>
    <rc><c>I </c><c>   4</c></rc>
    <rc><c>I </c><c>   4</c></rc>
    <rc><c>I </c><c>   4</c></rc>
    <rc><c>I </c><c>   4</c></rc>
    <rc><c>I </c><c>   4</c></rc>
    <rc><c>I </c><c>   4</c></rc>
    <rc><c>I </c><c>   4</c></rc>
    <rc><c>I </c><c>   4</c></rc>
    <rc><c>I </c><c>   4</c></rc>
    <rc><c>I </c><c>   4</c></rc>
    <rc><c>I </c><c>   4</c></rc>
    <rc><c>I </c><c>   4</c></rc>
    <rc><c>I </c><c>   4</c></rc>
    <rc><c>I </c><c>   4</c></rc>
    <rc><c>I </c><c>   4</c></rc>
    <rc><c>I </c><c>   4</c></rc>
    <rc><c>I </c><c>   4</c></rc>
    <rc><c>I </c><c>   4</c></rc>
    <rc><c>I </c><c>   4</c></rc>
    <rc><c>I </c><c>   4</c></rc>
    <rc><c>I </c><c>   4</c></rc>
    <rc><c>I </c><c>   4</c></rc>
    <rc><c>I </c><c>   4</c></rc>
    <rc><c>I </c><c>   4</c></rc>
    <rc><c>I </c><c>   4</c></rc>
    <rc><c>I </c><c>   4</c></rc>
    <rc><c>I </c><c>   4</c></rc>
    <rc><c>I </c><c>   4</c></rc>
    <rc><c>I </c><c>   4</c></rc>
    <rc><c>I </c><c>   4</c></rc>
    <rc><c>I </c><c>   4</c></rc>
    <rc><c>I </c><c>   4</c></rc>
    <rc><c>I </c><c>   4</c></rc>
    <rc><c>I </c><c>   4</c></rc>
    <rc><c>I </c><c>   4</c></rc>
    <rc><c>I </c><c>   4</c></rc>
    <rc><c>I </c><c>   4</c></rc>
    <rc><c>I </c><c>   4</c></rc>
    <rc><c>I </c><c>   4</c></rc>
    <rc><c>I </c><c>   4</c></rc>
    <rc><c>I </c><c>   4</c></rc>
    <rc><c>I </c><c>   4</c></rc>
    <rc><c>I </c><c>   4</c></rc>
    <rc><c>I </c><c>   4</c></rc>
    <rc><c>I </c><c>   4</c></rc>
    <rc><c>I </c><c>   4</c></rc>
    <rc><c>I </c><c>   4</c></rc>
    <rc><c>I </c><c>   4</c></rc>
    <rc><c>I </c><c>   4</c></rc>
    <rc><c>I </c><c>   4</c></rc>
    <rc><c>I </c><c>   4</c></rc>
    <rc><c>I </c><c>   4</c></rc>
    <rc><c>I </c><c>   4</c></rc>
    <rc><c>I </c><c>   4</c></rc>
    <rc><c>I </c><c>   4</c></rc>
    <rc><c>I </c><c>   4</c></rc>
    <rc><c>I </c><c>   4</c></rc>
    <rc><c>I </c><c>   4</c></rc>
    <rc><c>I </c><c>   4</c></rc>
    <rc><c>Pb</c><c>   5</c></rc>
    <rc><c>Pb</c><c>   5</c></rc>
    <rc><c>Pb</c><c>   5</c></rc>
    <rc><c>Pb</c><c>   5</c></rc>
    <rc><c>Pb</c><c>   5</c></rc>
    <rc><c>Pb</c><c>   5</c></rc>
    <rc><c>Pb</c><c>   5</c></rc>
    <rc><c>Pb</c><c>   5</c></rc>
    <rc><c>Pb</c><c>   5</c></rc>
    <rc><c>Pb</c><c>   5</c></rc>
    <rc><c>Pb</c><c>   5</c></rc>
    <rc><c>Pb</c><c>   5</c></rc>
    <rc><c>Pb</c><c>   5</c></rc>
    <rc><c>Pb</c><c>   5</c></rc>
    <rc><c>Pb</c><c>   5</c></rc>
    <rc><c>Pb</c><c>   5</c></rc>
    <rc><c>Pb</c><c>   5</c></rc>
    <rc><c>Pb</c><c>   5</c></rc>
    <rc><c>Pb</c><c>   5</c></rc>
    <rc><c>Pb</c><c>   5</c></rc>
    <rc><c>Pb</c><c>   5</c></rc>
    <rc><c>Pb</c><c>   5</c></rc>
    <rc><c>Pb</c><c>   5</c></rc>
    <rc><c>Pb</c><c>   5</c></rc>
   </set>
  </array>
  <array name="atomtypes" >
   <dimension dim="1">type</dimension>
   <field type="int">atomspertype</field>
   <field type="string">element</field>
   <field>mass</field>
   <field>valence</field>
   <field type="string">pseudopotential</field>
   <set>
    <rc><c> 143</c><c>H </c><c>      1.00000000</c><c>      1.00000000</c><c>  PAW_PBE H 15Jun2001                   </c></rc>
    <rc><c>  39</c><c>C </c><c>     12.01100000</c><c>      4.00000000</c><c>  PAW_PBE C 08Apr2002                   </c></rc>
    <rc><c>  47</c><c>N </c><c>     14.00100000</c><c>      5.00000000</c><c>  PAW_PBE N 08Apr2002                   </c></rc>
    <rc><c>  72</c><c>I </c><c>    126.90400000</c><c>      7.00000000</c><c>  PAW_PBE I 08Apr2002                   </c></rc>
    <rc><c>  24</c><c>Pb</c><c>    207.20000000</c><c>      4.00000000</c><c>  PAW_PBE Pb 08Apr2002                  </c></rc>
   </set>
  </array>
 </atominfo>
 <structure name="initialpos" >
  <crystal>
   <varray name="basis" >
    <v>      18.06080055       0.00000000       0.00000000 </v>
    <v>      -0.00491865      18.06279945       0.00000000 </v>
    <v>       0.00000000       0.00000000      62.48749924 </v>
   </varray>
   <i name="volume">  20385.21054034 </i>
   <varray name="rec_basis" >
    <v>       0.05536853       0.00001508      -0.00000000 </v>
    <v>       0.00000000       0.05536240       0.00000000 </v>
    <v>       0.00000000      -0.00000000       0.01600320 </v>
   </varray>
  </crystal>
  <varray name="positions" >
   <v>       0.44345305       0.30323397       0.57966202 </v>
   <v>       0.44170355       0.81883255       0.58056912 </v>
   <v>       0.97173973       0.30936040       0.57894001 </v>
   <v>       0.97024555       0.80631823       0.58247057 </v>
   <v>       0.31402372       0.02076094       0.58214628 </v>
   <v>       0.30307320       0.55116351       0.58106654 </v>
   <v>       0.77610004       0.06207687       0.58314380 </v>
   <v>       0.06853942       0.13919683       0.56180261 </v>
   <v>       0.06247404       0.65203458       0.55619059 </v>
   <v>       0.59170546       0.19006341       0.55601081 </v>
   <v>       0.56102749       0.66834278       0.56025433 </v>
   <v>       0.33992907       0.06315829       0.55772740 </v>
   <v>       0.30703460       0.59820605       0.55639455 </v>
   <v>       0.83007520       0.08055037       0.56023913 </v>
   <v>       0.03629917       0.18498218       0.58527215 </v>
   <v>       0.04224107       0.68531117       0.58181553 </v>
   <v>       0.56956260       0.24334712       0.57888287 </v>
   <v>       0.51399711       0.69431598       0.58225299 </v>
   <v>       0.22055345       0.43891129       0.58253784 </v>
   <v>       0.19348131       0.95019912       0.58224323 </v>
   <v>       0.68946658       0.95467298       0.58138856 </v>
   <v>       0.38838065       0.28825344       0.55745671 </v>
   <v>       0.45182693       0.86640655       0.55669612 </v>
   <v>       0.96656354       0.33896988       0.55272487 </v>
   <v>       0.94644226       0.84362698       0.55771916 </v>
   <v>       0.17311907       0.41558476       0.55878571 </v>
   <v>       0.14212458       0.95184978       0.55825698 </v>
   <v>       0.68916670       0.90285723       0.55711125 </v>
   <v>       0.47750752       0.21455479       0.53962569 </v>
   <v>       0.52757278       0.77607354       0.54104163 </v>
   <v>       0.02517481       0.23218943       0.53922119 </v>
   <v>       0.00293596       0.74600451       0.53852934 </v>
   <v>       0.22403458       0.51413241       0.54006664 </v>
   <v>       0.23278606       0.02408297       0.54057095 </v>
   <v>       0.77747520       0.97869759       0.54163379 </v>
   <v>       0.45656562       0.30818552       0.67574081 </v>
   <v>       0.43889719       0.80883398       0.67462016 </v>
   <v>       0.95277343       0.29180448       0.67809431 </v>
   <v>       0.94202013       0.80369920       0.67610111 </v>
   <v>       0.29734704       0.04993654       0.67559759 </v>
   <v>       0.29974567       0.55791623       0.67558044 </v>
   <v>       0.80343973       0.04878924       0.67456009 </v>
   <v>       0.80356491       0.57359841       0.67337638 </v>
   <v>       0.08315766       0.17009318       0.64836638 </v>
   <v>       0.08771102       0.68477221       0.65390294 </v>
   <v>       0.57050853       0.16193665       0.65065400 </v>
   <v>       0.57126238       0.67213867       0.65267107 </v>
   <v>       0.18356488       0.41568685       0.64943776 </v>
   <v>       0.17053648       0.91770767       0.64922061 </v>
   <v>       0.68193066       0.41785535       0.65637842 </v>
   <v>       0.66404503       0.92684970       0.64936328 </v>
   <v>       0.05826390       0.19230581       0.67426902 </v>
   <v>       0.04314395       0.70211420       0.67783229 </v>
   <v>       0.56041231       0.20488525       0.67511751 </v>
   <v>       0.54085740       0.70352205       0.67772002 </v>
   <v>       0.20928330       0.44310546       0.67505720 </v>
   <v>       0.19454613       0.94607588       0.67508931 </v>
   <v>       0.70082225       0.46712292       0.67958795 </v>
   <v>       0.69170414       0.95468864       0.67493694 </v>
   <v>       0.41299200       0.31891502       0.65134500 </v>
   <v>       0.41624924       0.83177258       0.64868901 </v>
   <v>       0.92086823       0.32282358       0.65302405 </v>
   <v>       0.93066022       0.84080109       0.65085851 </v>
   <v>       0.32709885       0.07598874       0.65039290 </v>
   <v>       0.32247579       0.58969881       0.64999762 </v>
   <v>       0.83509026       0.06966799       0.64906921 </v>
   <v>       0.83476458       0.58020457       0.64677963 </v>
   <v>       0.99778561       0.25128058       0.63322168 </v>
   <v>       0.02318449       0.77262543       0.63541719 </v>
   <v>       0.47727833       0.22923012       0.63352912 </v>
   <v>       0.49527328       0.75049268       0.63300661 </v>
   <v>       0.25221023       0.99682157       0.63184384 </v>
   <v>       0.25283256       0.50620278       0.63183218 </v>
   <v>       0.75052762       0.99393467       0.63128813 </v>
   <v>       0.76066861       0.48238711       0.63497692 </v>
   <v>       0.44874502       0.30128397       0.76888902 </v>
   <v>       0.44874501       0.80128391       0.76888902 </v>
   <v>       0.94874497       0.30128397       0.76888902 </v>
   <v>       0.94874501       0.80128391       0.76888902 </v>
   <v>       0.30127600       0.05129450       0.76887296 </v>
   <v>       0.30127601       0.55129450       0.76887296 </v>
   <v>       0.80127594       0.05129450       0.76887296 </v>
   <v>       0.80127598       0.55129450       0.76887296 </v>
   <v>       0.07877100       0.17118050       0.74344197 </v>
   <v>       0.07877101       0.67118045       0.74344197 </v>
   <v>       0.57877100       0.17118050       0.74344197 </v>
   <v>       0.57877099       0.67118045       0.74344197 </v>
   <v>       0.17119950       0.42117448       0.74342103 </v>
   <v>       0.17119950       0.92117451       0.74342103 </v>
   <v>       0.67119951       0.42117448       0.74342103 </v>
   <v>       0.67119950       0.92117451       0.74342103 </v>
   <v>       0.05125600       0.19871499       0.76888902 </v>
   <v>       0.05125600       0.69871493       0.76888902 </v>
   <v>       0.55125603       0.19871499       0.76888902 </v>
   <v>       0.55125602       0.69871493       0.76888902 </v>
   <v>       0.19872349       0.44870397       0.76887205 </v>
   <v>       0.19872349       0.94870397       0.76887205 </v>
   <v>       0.69872352       0.44870397       0.76887205 </v>
   <v>       0.69872351       0.94870397       0.76887205 </v>
   <v>       0.42123152       0.32881747       0.74344197 </v>
   <v>       0.42123151       0.82881744       0.74344197 </v>
   <v>       0.92123147       0.32881747       0.74344197 </v>
   <v>       0.92123151       0.82881744       0.74344197 </v>
   <v>       0.32880050       0.07882500       0.74342103 </v>
   <v>       0.32880049       0.57882496       0.74342103 </v>
   <v>       0.82880048       0.07882500       0.74342103 </v>
   <v>       0.82880052       0.57882496       0.74342103 </v>
   <v>       0.00000350       0.25000148       0.72582199 </v>
   <v>       0.00000350       0.75000145       0.72582199 </v>
   <v>       0.50000351       0.25000148       0.72582199 </v>
   <v>       0.50000350       0.75000145       0.72582199 </v>
   <v>       0.25000050       0.00000000       0.72580398 </v>
   <v>       0.25000052       0.50000000       0.72580398 </v>
   <v>       0.75000050       0.00000000       0.72580398 </v>
   <v>       0.75000049       0.50000000       0.72580398 </v>
   <v>       0.78092770       0.56153081       0.52603930 </v>
   <v>       0.72767809       0.47762037       0.52829622 </v>
   <v>       0.86880708       0.50634977       0.54835254 </v>
   <v>       0.84992971       0.48270949       0.57517644 </v>
   <v>       0.73979171       0.64149732       0.56688847 </v>
   <v>       0.79638101       0.59151262       0.58438373 </v>
   <v>       0.65036928       0.53625206       0.57192482 </v>
   <v>       0.67109645       0.44759485       0.56153224 </v>
   <v>       0.61804558       0.54630702       0.53961061 </v>
   <v>       0.66946711       0.62953441       0.54352216 </v>
   <v>       0.61845498       0.65667016       0.51003124 </v>
   <v>       0.69825323       0.60723256       0.50160286 </v>
   <v>       0.82824813       0.39111414       0.53490728 </v>
   <v>       0.75937430       0.38662910       0.55388758 </v>
   <v>       0.84804847       0.36069693       0.56126796 </v>
   <v>       0.85469254       0.69150804       0.55943465 </v>
   <v>       0.84974556       0.62957839       0.53883904 </v>
   <v>       0.90205246       0.60485154       0.56145306 </v>
   <v>       0.76247514       0.50628615       0.59985765 </v>
   <v>       0.74114958       0.41457960       0.59238710 </v>
   <v>       0.67222036       0.47157292       0.60392646 </v>
   <v>       0.54183226       0.53929976       0.50939116 </v>
   <v>       0.57889681       0.56198134       0.48347414 </v>
   <v>       0.72215531       0.49893623       0.47750612 </v>
   <v>       0.55194216       0.41821034       0.52071462 </v>
   <v>       0.78475241       0.37534357       0.47938412 </v>
   <v>       0.61855205       0.29629097       0.52289829 </v>
   <v>       0.73553059       0.27378225       0.50304892 </v>
   <v>       0.01751042       0.23741419       0.55648087 </v>
   <v>       0.00397765       0.74787925       0.55558213 </v>
   <v>       0.48811941       0.23923199       0.55505548 </v>
   <v>       0.50651850       0.76822326       0.55715502 </v>
   <v>       0.24061909       0.50794579       0.55687017 </v>
   <v>       0.24193537       0.00863312       0.55733474 </v>
   <v>       0.75911891       0.99062051       0.55800785 </v>
   <v>       0.00129691       0.24705600       0.65009383 </v>
   <v>       0.00904212       0.76412209       0.65169529 </v>
   <v>       0.49019248       0.24081885       0.65041824 </v>
   <v>       0.49390426       0.75213464       0.64999768 </v>
   <v>       0.25265635       0.50135194       0.64893412 </v>
   <v>       0.24990456       0.99779240       0.64905426 </v>
   <v>       0.75874453       0.49935603       0.65154444 </v>
   <v>       0.75047594       0.99900747       0.64846405 </v>
   <v>       0.49998898       0.24999498       0.74327702 </v>
   <v>       0.49998903       0.74999496       0.74327702 </v>
   <v>       0.99998898       0.24999498       0.74327702 </v>
   <v>       0.99998903       0.74999496       0.74327702 </v>
   <v>       0.25000050       0.00000100       0.74325596 </v>
   <v>       0.25000052       0.50000100       0.74325596 </v>
   <v>       0.75000050       0.00000100       0.74325596 </v>
   <v>       0.75000049       0.50000100       0.74325596 </v>
   <v>       0.63057642       0.46557342       0.49925550 </v>
   <v>       0.69632578       0.45224955       0.48718323 </v>
   <v>       0.60217833       0.40731580       0.51172146 </v>
   <v>       0.73176126       0.38565765       0.48855484 </v>
   <v>       0.63842685       0.34058462       0.51262005 </v>
   <v>       0.70441038       0.32801056       0.50125025 </v>
   <v>       0.73471197       0.53435884       0.53463519 </v>
   <v>       0.82930901       0.47915594       0.55873822 </v>
   <v>       0.78428378       0.60181958       0.56746848 </v>
   <v>       0.69473292       0.49418206       0.57093524 </v>
   <v>       0.66402750       0.57854640       0.53324716 </v>
   <v>       0.64384322       0.59997514       0.51015840 </v>
   <v>       0.81663151       0.40078356       0.55182064 </v>
   <v>       0.85192901       0.63257582       0.55625512 </v>
   <v>       0.71938644       0.47001703       0.59284905 </v>
   <v>       0.59435554       0.54185200       0.49957850 </v>
   <v>       0.04263384       0.18473638       0.56845476 </v>
   <v>       0.03849374       0.69202276       0.56505668 </v>
   <v>       0.55323576       0.22147287       0.56376144 </v>
   <v>       0.52975001       0.70813356       0.56715250 </v>
   <v>       0.43850441       0.27890101       0.56424420 </v>
   <v>       0.46459171       0.81887458       0.56474797 </v>
   <v>       0.98130170       0.29688885       0.56280538 </v>
   <v>       0.97134314       0.80210080       0.56599229 </v>
   <v>       0.21077614       0.44997275       0.56710629 </v>
   <v>       0.19020987       0.96709190       0.56698633 </v>
   <v>       0.70901559       0.94875125       0.56640363 </v>
   <v>       0.30147408       0.03149191       0.56671851 </v>
   <v>       0.28572457       0.55418924       0.56576007 </v>
   <v>       0.79145167       0.04678186       0.56839854 </v>
   <v>       0.05178065       0.19913943       0.65854773 </v>
   <v>       0.05047559       0.71238003       0.66227986 </v>
   <v>       0.54470489       0.19943986       0.65970873 </v>
   <v>       0.53652206       0.70814333       0.66122167 </v>
   <v>       0.21352416       0.45105558       0.65820043 </v>
   <v>       0.20108544       0.95008438       0.65819396 </v>
   <v>       0.71207710       0.46086339       0.66350075 </v>
   <v>       0.69791739       0.95691146       0.65806015 </v>
   <v>       0.45210507       0.29103749       0.65955569 </v>
   <v>       0.44764438       0.79996175       0.65821448 </v>
   <v>       0.95726893       0.28802567       0.66128534 </v>
   <v>       0.95707093       0.80435009       0.66071485 </v>
   <v>       0.29283606       0.04258215       0.65874516 </v>
   <v>       0.29475245       0.55391369       0.65869968 </v>
   <v>       0.79790445       0.04048991       0.65774350 </v>
   <v>       0.79932354       0.55310995       0.65838339 </v>
   <v>       0.04586250       0.20411950       0.75272599 </v>
   <v>       0.04586250       0.70411946       0.75272599 </v>
   <v>       0.54586251       0.20411950       0.75272599 </v>
   <v>       0.54586250       0.70411946       0.75272599 </v>
   <v>       0.20411900       0.45410100       0.75270499 </v>
   <v>       0.20411899       0.95410095       0.75270499 </v>
   <v>       0.70411898       0.45410100       0.75270499 </v>
   <v>       0.70411896       0.95410095       0.75270499 </v>
   <v>       0.45414002       0.29588849       0.75272697 </v>
   <v>       0.45414001       0.79588852       0.75272697 </v>
   <v>       0.95414002       0.29588849       0.75272697 </v>
[...]
   <v>       0.59170546       0.19006341       0.55601081 </v>
   <v>       0.56102749       0.66834278       0.56025433 </v>
   <v>       0.33992907       0.06315829       0.55772740 </v>
   <v>       0.30703460       0.59820605       0.55639455 </v>
   <v>       0.83007520       0.08055037       0.56023913 </v>
   <v>       0.03629917       0.18498218       0.58527215 </v>
   <v>       0.04224107       0.68531117       0.58181553 </v>
   <v>       0.56956260       0.24334712       0.57888287 </v>
   <v>       0.51399711       0.69431598       0.58225299 </v>
   <v>       0.22055345       0.43891129       0.58253784 </v>
   <v>       0.19348131       0.95019912       0.58224323 </v>
   <v>       0.68946658       0.95467298       0.58138856 </v>
   <v>       0.38838065       0.28825344       0.55745671 </v>
   <v>       0.45182693       0.86640655       0.55669612 </v>
   <v>       0.96656354       0.33896988       0.55272487 </v>
   <v>       0.94644226       0.84362698       0.55771916 </v>
   <v>       0.17311907       0.41558476       0.55878571 </v>
   <v>       0.14212458       0.95184978       0.55825698 </v>
   <v>       0.68916670       0.90285723       0.55711125 </v>
   <v>       0.47750752       0.21455479       0.53962569 </v>
   <v>       0.52757278       0.77607354       0.54104163 </v>
   <v>       0.02517481       0.23218943       0.53922119 </v>
   <v>       0.00293596       0.74600451       0.53852934 </v>
   <v>       0.22403458       0.51413241       0.54006664 </v>
   <v>       0.23278606       0.02408297       0.54057095 </v>
   <v>       0.77747520       0.97869759       0.54163379 </v>
   <v>       0.45656562       0.30818552       0.67574081 </v>
   <v>       0.43889719       0.80883398       0.67462016 </v>
   <v>       0.95277343       0.29180448       0.67809431 </v>
   <v>       0.94202013       0.80369920       0.67610111 </v>
   <v>       0.29734704       0.04993654       0.67559759 </v>
   <v>       0.29974567       0.55791623       0.67558044 </v>
   <v>       0.80343973       0.04878924       0.67456009 </v>
   <v>       0.80356491       0.57359841       0.67337638 </v>
   <v>       0.08315766       0.17009318       0.64836638 </v>
   <v>       0.08771102       0.68477221       0.65390294 </v>
   <v>       0.57050853       0.16193665       0.65065400 </v>
   <v>       0.57126238       0.67213867       0.65267107 </v>
   <v>       0.18356488       0.41568685       0.64943776 </v>
   <v>       0.17053648       0.91770767       0.64922061 </v>
   <v>       0.68193066       0.41785535       0.65637842 </v>
   <v>       0.66404503       0.92684970       0.64936328 </v>
   <v>       0.05826390       0.19230581       0.67426902 </v>
   <v>       0.04314395       0.70211420       0.67783229 </v>
   <v>       0.56041231       0.20488525       0.67511751 </v>
   <v>       0.54085740       0.70352205       0.67772002 </v>
   <v>       0.20928330       0.44310546       0.67505720 </v>
   <v>       0.19454613       0.94607588       0.67508931 </v>
   <v>       0.70082225       0.46712292       0.67958795 </v>
   <v>       0.69170414       0.95468864       0.67493694 </v>
   <v>       0.41299200       0.31891502       0.65134500 </v>
   <v>       0.41624924       0.83177258       0.64868901 </v>
   <v>       0.92086823       0.32282358       0.65302405 </v>
   <v>       0.93066022       0.84080109       0.65085851 </v>
   <v>       0.32709885       0.07598874       0.65039290 </v>
   <v>       0.32247579       0.58969881       0.64999762 </v>
   <v>       0.83509026       0.06966799       0.64906921 </v>
   <v>       0.83476458       0.58020457       0.64677963 </v>
   <v>       0.99778561       0.25128058       0.63322168 </v>
   <v>       0.02318449       0.77262543       0.63541719 </v>
   <v>       0.47727833       0.22923012       0.63352912 </v>
   <v>       0.49527328       0.75049268       0.63300661 </v>
   <v>       0.25221023       0.99682157       0.63184384 </v>
   <v>       0.25283256       0.50620278       0.63183218 </v>
   <v>       0.75052762       0.99393467       0.63128813 </v>
   <v>       0.76066861       0.48238711       0.63497692 </v>
   <v>       0.44874502       0.30128397       0.76888902 </v>
   <v>       0.44874501       0.80128391       0.76888902 </v>
   <v>       0.94874497       0.30128397       0.76888902 </v>
   <v>       0.94874501       0.80128391       0.76888902 </v>
   <v>       0.30127600       0.05129450       0.76887296 </v>
   <v>       0.30127601       0.55129450       0.76887296 </v>
   <v>       0.80127594       0.05129450       0.76887296 </v>
   <v>       0.80127598       0.55129450       0.76887296 </v>
   <v>       0.07877100       0.17118050       0.74344197 </v>
   <v>       0.07877101       0.67118045       0.74344197 </v>
   <v>       0.57877100       0.17118050       0.74344197 </v>
   <v>       0.57877099       0.67118045       0.74344197 </v>
   <v>       0.17119950       0.42117448       0.74342103 </v>
   <v>       0.17119950       0.92117451       0.74342103 </v>
   <v>       0.67119951       0.42117448       0.74342103 </v>
   <v>       0.67119950       0.92117451       0.74342103 </v>
   <v>       0.05125600       0.19871499       0.76888902 </v>
   <v>       0.05125600       0.69871493       0.76888902 </v>
   <v>       0.55125603       0.19871499       0.76888902 </v>
   <v>       0.55125602       0.69871493       0.76888902 </v>
   <v>       0.19872349       0.44870397       0.76887205 </v>
   <v>       0.19872349       0.94870397       0.76887205 </v>
   <v>       0.69872352       0.44870397       0.76887205 </v>
   <v>       0.69872351       0.94870397       0.76887205 </v>
   <v>       0.42123152       0.32881747       0.74344197 </v>
   <v>       0.42123151       0.82881744       0.74344197 </v>
   <v>       0.92123147       0.32881747       0.74344197 </v>
   <v>       0.92123151       0.82881744       0.74344197 </v>
   <v>       0.32880050       0.07882500       0.74342103 </v>
   <v>       0.32880049       0.57882496       0.74342103 </v>
   <v>       0.82880048       0.07882500       0.74342103 </v>
   <v>       0.82880052       0.57882496       0.74342103 </v>
   <v>       0.00000350       0.25000148       0.72582199 </v>
   <v>       0.00000350       0.75000145       0.72582199 </v>
   <v>       0.50000351       0.25000148       0.72582199 </v>
   <v>       0.50000350       0.75000145       0.72582199 </v>
   <v>       0.25000050       0.00000000       0.72580398 </v>
   <v>       0.25000052       0.50000000       0.72580398 </v>
   <v>       0.75000050       0.00000000       0.72580398 </v>
   <v>       0.75000049       0.50000000       0.72580398 </v>
   <v>       0.78092770       0.56153081       0.52603930 </v>
   <v>       0.72767809       0.47762037       0.52829622 </v>
   <v>       0.86880708       0.50634977       0.54835254 </v>
   <v>       0.84992971       0.48270949       0.57517644 </v>
   <v>       0.73979171       0.64149732       0.56688847 </v>
   <v>       0.79638101       0.59151262       0.58438373 </v>
   <v>       0.65036928       0.53625206       0.57192482 </v>
   <v>       0.67109645       0.44759485       0.56153224 </v>
   <v>       0.61804558       0.54630702       0.53961061 </v>
   <v>       0.66946711       0.62953441       0.54352216 </v>
   <v>       0.61845498       0.65667016       0.51003124 </v>
   <v>       0.69825323       0.60723256       0.50160286 </v>
   <v>       0.82824813       0.39111414       0.53490728 </v>
   <v>       0.75937430       0.38662910       0.55388758 </v>
   <v>       0.84804847       0.36069693       0.56126796 </v>
   <v>       0.85469254       0.69150804       0.55943465 </v>
   <v>       0.84974556       0.62957839       0.53883904 </v>
   <v>       0.90205246       0.60485154       0.56145306 </v>
   <v>       0.76247514       0.50628615       0.59985765 </v>
   <v>       0.74114958       0.41457960       0.59238710 </v>
   <v>       0.67222036       0.47157292       0.60392646 </v>
   <v>       0.54183226       0.53929976       0.50939116 </v>
   <v>       0.57889681       0.56198134       0.48347414 </v>
   <v>       0.72215531       0.49893623       0.47750612 </v>
   <v>       0.55194216       0.41821034       0.52071462 </v>
   <v>       0.78475241       0.37534357       0.47938412 </v>
   <v>       0.61855205       0.29629097       0.52289829 </v>
   <v>       0.73553059       0.27378225       0.50304892 </v>
   <v>       0.01751042       0.23741419       0.55648087 </v>
   <v>       0.00397765       0.74787925       0.55558213 </v>
   <v>       0.48811941       0.23923199       0.55505548 </v>
   <v>       0.50651850       0.76822326       0.55715502 </v>
   <v>       0.24061909       0.50794579       0.55687017 </v>
   <v>       0.24193537       0.00863312       0.55733474 </v>
   <v>       0.75911891       0.99062051       0.55800785 </v>
   <v>       0.00129691       0.24705600       0.65009383 </v>
   <v>       0.00904212       0.76412209       0.65169529 </v>
   <v>       0.49019248       0.24081885       0.65041824 </v>
   <v>       0.49390426       0.75213464       0.64999768 </v>
   <v>       0.25265635       0.50135194       0.64893412 </v>
   <v>       0.24990456       0.99779240       0.64905426 </v>
   <v>       0.75874453       0.49935603       0.65154444 </v>
   <v>       0.75047594       0.99900747       0.64846405 </v>
   <v>       0.49998898       0.24999498       0.74327702 </v>
   <v>       0.49998903       0.74999496       0.74327702 </v>
   <v>       0.99998898       0.24999498       0.74327702 </v>
   <v>       0.99998903       0.74999496       0.74327702 </v>
   <v>       0.25000050       0.00000100       0.74325596 </v>
   <v>       0.25000052       0.50000100       0.74325596 </v>
   <v>       0.75000050       0.00000100       0.74325596 </v>
   <v>       0.75000049       0.50000100       0.74325596 </v>
   <v>       0.63057642       0.46557342       0.49925550 </v>
   <v>       0.69632578       0.45224955       0.48718323 </v>
   <v>       0.60217833       0.40731580       0.51172146 </v>
   <v>       0.73176126       0.38565765       0.48855484 </v>
   <v>       0.63842685       0.34058462       0.51262005 </v>
   <v>       0.70441038       0.32801056       0.50125025 </v>
   <v>       0.73471197       0.53435884       0.53463519 </v>
   <v>       0.82930901       0.47915594       0.55873822 </v>
   <v>       0.78428378       0.60181958       0.56746848 </v>
   <v>       0.69473292       0.49418206       0.57093524 </v>
   <v>       0.66402750       0.57854640       0.53324716 </v>
   <v>       0.64384322       0.59997514       0.51015840 </v>
   <v>       0.81663151       0.40078356       0.55182064 </v>
   <v>       0.85192901       0.63257582       0.55625512 </v>
   <v>       0.71938644       0.47001703       0.59284905 </v>
   <v>       0.59435554       0.54185200       0.49957850 </v>
   <v>       0.04263384       0.18473638       0.56845476 </v>
   <v>       0.03849374       0.69202276       0.56505668 </v>
   <v>       0.55323576       0.22147287       0.56376144 </v>
   <v>       0.52975001       0.70813356       0.56715250 </v>
   <v>       0.43850441       0.27890101       0.56424420 </v>
   <v>       0.46459171       0.81887458       0.56474797 </v>
   <v>       0.98130170       0.29688885       0.56280538 </v>
   <v>       0.97134314       0.80210080       0.56599229 </v>
   <v>       0.21077614       0.44997275       0.56710629 </v>
   <v>       0.19020987       0.96709190       0.56698633 </v>
   <v>       0.70901559       0.94875125       0.56640363 </v>
   <v>       0.30147408       0.03149191       0.56671851 </v>
   <v>       0.28572457       0.55418924       0.56576007 </v>
   <v>       0.79145167       0.04678186       0.56839854 </v>
   <v>       0.05178065       0.19913943       0.65854773 </v>
   <v>       0.05047559       0.71238003       0.66227986 </v>
   <v>       0.54470489       0.19943986       0.65970873 </v>
   <v>       0.53652206       0.70814333       0.66122167 </v>
   <v>       0.21352416       0.45105558       0.65820043 </v>
   <v>       0.20108544       0.95008438       0.65819396 </v>
   <v>       0.71207710       0.46086339       0.66350075 </v>
   <v>       0.69791739       0.95691146       0.65806015 </v>
   <v>       0.45210507       0.29103749       0.65955569 </v>
   <v>       0.44764438       0.79996175       0.65821448 </v>
   <v>       0.95726893       0.28802567       0.66128534 </v>
   <v>       0.95707093       0.80435009       0.66071485 </v>
   <v>       0.29283606       0.04258215       0.65874516 </v>
   <v>       0.29475245       0.55391369       0.65869968 </v>
   <v>       0.79790445       0.04048991       0.65774350 </v>
   <v>       0.79932354       0.55310995       0.65838339 </v>
   <v>       0.04586250       0.20411950       0.75272599 </v>
   <v>       0.04586250       0.70411946       0.75272599 </v>
   <v>       0.54586251       0.20411950       0.75272599 </v>
   <v>       0.54586250       0.70411946       0.75272599 </v>
   <v>       0.20411900       0.45410100       0.75270499 </v>
   <v>       0.20411899       0.95410095       0.75270499 </v>
   <v>       0.70411898       0.45410100       0.75270499 </v>
   <v>       0.70411896       0.95410095       0.75270499 </v>
   <v>       0.45414002       0.29588849       0.75272697 </v>
   <v>       0.45414001       0.79588852       0.75272697 </v>
   <v>       0.95414002       0.29588849       0.75272697 </v>
   <v>       0.95414006       0.79588852       0.75272697 </v>
   <v>       0.29588249       0.04590050       0.75270499 </v>
   <v>       0.29588248       0.54590053       0.75270499 </v>
   <v>       0.79588244       0.04590050       0.75270499 </v>
   <v>       0.79588248       0.54590053       0.75270499 </v>
   <v>       0.75928346       0.52926376       0.55808977 </v>
   <v>       0.49187139       0.01518728       0.55153494 </v>
   <v>       0.47439357       0.51892111       0.55803422 </v>
   <v>       0.00127703       0.99498956       0.55210896 </v>
   <v>       0.02891618       0.48345288       0.55044725 </v>
   <v>       0.24808881       0.24955959       0.55166692 </v>
   <v>       0.24929890       0.74861102       0.55228710 </v>
   <v>       0.75446500       0.22107492       0.55568964 </v>
   <v>       0.72906070       0.77682569       0.54749635 </v>
   <v>       0.00506338       0.99796518       0.65467287 </v>
   <v>       0.00886991       0.50596519       0.65475681 </v>
   <v>       0.50174711       0.00174043       0.65402650 </v>
   <v>       0.50342482       0.49047862       0.65606921 </v>
   <v>       0.24856075       0.24833217       0.65418388 </v>
   <v>       0.24673259       0.75148306       0.65477788 </v>
   <v>       0.74149298       0.25157073       0.65526393 </v>
   <v>       0.75641209       0.75897416       0.65356016 </v>
   <v>       0.14261862       0.10406983       0.60931413 </v>
   <v>       0.14380566       0.60562444       0.60678299 </v>
   <v>       0.64349332       0.10003360       0.60747807 </v>
   <v>       0.62163215       0.62986028       0.61358030 </v>
   <v>       0.35317794       0.39437189       0.60795918 </v>
   <v>       0.35414775       0.89144877       0.60802194 </v>
   <v>       0.88513396       0.36799046       0.61387370 </v>
   <v>       0.85696007       0.89641334       0.60646743 </v>
   <v>       0.10827190       0.35809757       0.60790369 </v>
   <v>       0.10939064       0.85892755       0.60766005 </v>
   <v>       0.58091389       0.33313497       0.60897141 </v>
   <v>       0.60906389       0.86129167       0.60910755 </v>
   <v>       0.38692749       0.13690541       0.60763173 </v>
   <v>       0.38425086       0.63540546       0.61045108 </v>
   <v>       0.89414087       0.13861509       0.61022972 </v>
   <v>       0.91457938       0.65919252       0.61422210 </v>
   <v>       0.00000000       0.00000000       0.75492797 </v>
   <v>       0.00000000       0.50000000       0.75492797 </v>
   <v>       0.50000000       0.00000000       0.75492797 </v>
   <v>       0.49999999       0.50000000       0.75492797 </v>
   <v>       0.25000050       0.25000000       0.75493902 </v>
   <v>       0.25000051       0.74999997       0.75493902 </v>
   <v>       0.75000047       0.25000000       0.75493902 </v>
   <v>       0.75000046       0.74999997       0.75493902 </v>
   <v>       0.13579050       0.11421000       0.70478299 </v>
   <v>       0.13579050       0.61420998       0.70478299 </v>
   <v>       0.63579045       0.11421000       0.70478299 </v>
   <v>       0.63579049       0.61420998       0.70478299 </v>
   <v>       0.36420952       0.38578999       0.70478299 </v>
   <v>       0.36420950       0.88578996       0.70478299 </v>
   <v>       0.86420954       0.38578999       0.70478299 </v>
   <v>       0.86420953       0.88578996       0.70478299 </v>
   <v>       0.11421799       0.36421899       0.70478098 </v>
   <v>       0.11421799       0.86421899       0.70478098 </v>
   <v>       0.61421800       0.36421899       0.70478098 </v>
   <v>       0.61421799       0.86421899       0.70478098 </v>
   <v>       0.38578201       0.13578149       0.70478202 </v>
   <v>       0.38578200       0.63578149       0.70478202 </v>
   <v>       0.88578199       0.13578149       0.70478202 </v>
   <v>       0.88578203       0.63578149       0.70478202 </v>
   <v>       0.13466700       0.11533200       0.80125603 </v>
   <v>       0.13466699       0.61533199       0.80125603 </v>
   <v>       0.63466699       0.11533200       0.80125603 </v>
   <v>       0.63466698       0.61533199       0.80125603 </v>
   <v>       0.36533300       0.38466799       0.80125603 </v>
   <v>       0.36533299       0.88466796       0.80125603 </v>
   <v>       0.86533295       0.38466799       0.80125603 </v>
   <v>       0.86533294       0.88466796       0.80125603 </v>
   <v>       0.11532850       0.36533700       0.80126500 </v>
   <v>       0.11532850       0.86533698       0.80126500 </v>
   <v>       0.61532850       0.36533700       0.80126500 </v>
   <v>       0.61532849       0.86533698       0.80126500 </v>
   <v>       0.38467151       0.13466300       0.80126500 </v>
   <v>       0.38467150       0.63466297       0.80126500 </v>
   <v>       0.88467149       0.13466300       0.80126500 </v>
   <v>       0.88467153       0.63466297       0.80126500 </v>
   <v>       0.00094960       0.00271350       0.60382133 </v>
   <v>       0.00559083       0.50228609       0.60375455 </v>
   <v>       0.50159602       0.00576116       0.60219796 </v>
   <v>       0.49440930       0.49532181       0.60687987 </v>
   <v>       0.24923852       0.24622803       0.60207056 </v>
   <v>       0.24971164       0.75006581       0.60180543 </v>
   <v>       0.74561187       0.24538068       0.60540966 </v>
   <v>       0.74818773       0.75841160       0.60421063 </v>
   <v>       0.00000050       0.00000050       0.70482896 </v>
   <v>       0.00000050       0.50000048       0.70482896 </v>
   <v>       0.50000048       0.00000050       0.70482896 </v>
   <v>       0.50000046       0.50000048       0.70482896 </v>
   <v>       0.24999999       0.24999947       0.70482499 </v>
   <v>       0.25000001       0.74999950       0.70482499 </v>
   <v>       0.74999999       0.24999947       0.70482499 </v>
   <v>       0.74999998       0.74999950       0.70482499 </v>
   <v>       0.00000000       0.00000000       0.80731797 </v>
   <v>       0.00000000       0.50000000       0.80731797 </v>
   <v>       0.50000000       0.00000000       0.80731797 </v>
   <v>       0.49999999       0.50000000       0.80731797 </v>
   <v>       0.24999999       0.25000000       0.80731797 </v>
   <v>       0.25000001       0.74999997       0.80731797 </v>
   <v>       0.74999999       0.25000000       0.80731797 </v>
   <v>       0.74999998       0.74999997       0.80731797 </v>
  </varray>
 </structure>
</modeling>
