<?xml version="1.0" encoding="ISO-8859-1"?>
<modeling>
 <generator>
  <i name="program" type="string">vasp </i>
  <i name="version" type="string">6.2.1  </i>
  <i name="subversion" type="string">16May21 (build Nov 15 2021 14:57:28) complex                          parallel </i>
  <i name="platform" type="string">LinuxPGI </i>
  <i name="date" type="string">2023 07 25 </i>
  <i name="time" type="string">02:12:35 </i>
 </generator>
 <incar>
  <i type="string" name="SYSTEM">PSC</i>
  <i type="int" name="ISTART">     1</i>
  <i type="string" name="PREC">Normal</i>
  <i name="BMIX">      0.01000000</i>
  <i name="AMIN">      0.01000000</i>
  <i type="int" name="ICHARG">     1</i>
  <i type="int" name="NELM">   600</i>
  <i type="int" name="ISYM">     0</i>
  <i name="ENCUT">    500.00000000</i>
  <i type="string" name="LREAL">Auto</i>
  <i type="int" name="ISMEAR">     0</i>
  <i name="SIGMA">      0.05000000</i>
  <i type="logical" name="LWAVE"> F  </i>
  <i type="logical" name="LVTOT"> T  </i>
  <i type="logical" name="GGA_COMPAT"> F  </i>
  <i type="logical" name="LDIPOL"> T  </i>
  <i type="int" name="IDIPOL">     3</i>
  <i type="int" name="IVDW">    12</i>
 </incar>
 <primitive_cell>
  <structure name="primitive_cell" >
   <crystal>
    <varray name="basis" >
     <v>      18.06080055       0.00000000       0.00000000 </v>
     <v>      -0.00491865      18.06279945       0.00000000 </v>
     <v>       0.00000000       0.00000000      62.48749924 </v>
    </varray>
    <i name="volume">  20385.21054034 </i>
    <varray name="rec_basis" >
     <v>       0.05536853       0.00001508      -0.00000000 </v>
     <v>       0.00000000       0.05536240       0.00000000 </v>
     <v>       0.00000000      -0.00000000       0.01600320 </v>
    </varray>
   </crystal>
   <varray name="positions" >
    <v>       0.45212574       0.33494409       0.56464132 </v>
    <v>       0.43017682       0.83024192       0.56927738 </v>
    <v>       0.96083598       0.32864624       0.57624099 </v>
    <v>       0.94533570       0.81525492       0.57325064 </v>
    <v>       0.33115234       0.95490240       0.57267832 </v>
    <v>       0.35267107       0.54845969       0.55869085 </v>
    <v>       0.80613027       0.08790858       0.56564915 </v>
    <v>       0.01041139       0.14311578       0.55985746 </v>
    <v>       0.07118363       0.66042820       0.56954476 </v>
    <v>       0.55310064       0.16140258       0.55732955 </v>
    <v>       0.49630929       0.64465715       0.55968097 </v>
    <v>       0.36322664       0.02741862       0.55682603 </v>
    <v>       0.29746317       0.62796732       0.55355261 </v>
    <v>       0.87794899       0.02543241       0.55824740 </v>
    <v>       0.95481062       0.19235016       0.57794476 </v>
    <v>       0.99202127       0.68981740       0.58298837 </v>
    <v>       0.56597333       0.25165537       0.56710708 </v>
    <v>       0.43335232       0.69432068       0.57502566 </v>
    <v>       0.28027688       0.43756416       0.57216431 </v>
    <v>       0.19833913       0.92765692       0.57214068 </v>
    <v>       0.68049091       0.03255635       0.56974201 </v>
    <v>       0.37226449       0.29128720       0.55451893 </v>
    <v>       0.49787447       0.86948360       0.55279086 </v>
    <v>       0.01838745       0.36872567       0.55706802 </v>
    <v>       0.99446309       0.86539162       0.55429306 </v>
    <v>       0.18456358       0.44258239       0.56837931 </v>
    <v>       0.13944056       0.99036530       0.55920743 </v>
    <v>       0.67264807       0.93817939       0.56273523 </v>
    <v>       0.43208950       0.18082976       0.54779267 </v>
    <v>       0.54738446       0.75221478       0.54402263 </v>
    <v>       0.06203673       0.25189391       0.54538991 </v>
    <v>       0.08362362       0.77018036       0.55015881 </v>
    <v>       0.18665455       0.56209485       0.55637794 </v>
    <v>       0.24082985       0.06379355       0.54746533 </v>
    <v>       0.79575680       0.92602147       0.55505389 </v>
    <v>       0.48582827       0.33951072       0.66177799 </v>
    <v>       0.44977945       0.81143385       0.67347473 </v>
    <v>       0.96536175       0.28350893       0.67653900 </v>
    <v>       0.92966880       0.72475153       0.67298873 </v>
    <v>       0.30909050       0.05623511       0.66985383 </v>
    <v>       0.29788531       0.54827669       0.67516593 </v>
    <v>       0.80078094       0.05606713       0.67446876 </v>
    <v>       0.75979724       0.59772881       0.65726849 </v>
    <v>       0.08583804       0.16268712       0.64476147 </v>
    <v>       0.11563700       0.71953855       0.65067781 </v>
    <v>       0.57159112       0.16040683       0.65170426 </v>
    <v>       0.56382379       0.66285583       0.65062360 </v>
    <v>       0.17755947       0.41378180       0.64789283 </v>
    <v>       0.17360945       0.92011015       0.65040200 </v>
    <v>       0.69957361       0.40568651       0.66055772 </v>
    <v>       0.67404522       0.92102962       0.65028680 </v>
    <v>       0.06289857       0.18111117       0.67147042 </v>
    <v>       0.05899599       0.67543024       0.66920264 </v>
    <v>       0.59451919       0.24992400       0.65936040 </v>
    <v>       0.53240669       0.69447854       0.67557030 </v>
    <v>       0.19905107       0.44338365       0.67379010 </v>
    <v>       0.20764901       0.95512761       0.67441309 </v>
    <v>       0.66549278       0.49566684       0.66305663 </v>
    <v>       0.69767791       0.95782062       0.67525896 </v>
    <v>       0.39848784       0.30020798       0.65715390 </v>
    <v>       0.43615472       0.84464709       0.64772129 </v>
    <v>       0.93680316       0.32564464       0.65280482 </v>
    <v>       0.90453353       0.79522363       0.65562833 </v>
    <v>       0.33080437       0.07620613       0.64326294 </v>
    <v>       0.32948641       0.57697435       0.65018595 </v>
    <v>       0.83446158       0.07622489       0.64889059 </v>
    <v>       0.84783285       0.56868036       0.65070339 </v>
    <v>       0.00942406       0.25290158       0.63116512 </v>
    <v>       0.02227159       0.80044316       0.63959222 </v>
    <v>       0.44597008       0.18374773       0.64940052 </v>
    <v>       0.50648958       0.75412817       0.63149783 </v>
    <v>       0.24755953       0.99275636       0.62932607 </v>
    <v>       0.25817753       0.49404247       0.63144319 </v>
    <v>       0.75847725       0.99161029       0.63189586 </v>
    <v>       0.81856644       0.44343154       0.65179364 </v>
    <v>       0.44874502       0.30128397       0.76888902 </v>
    <v>       0.44874501       0.80128391       0.76888902 </v>
    <v>       0.94874497       0.30128397       0.76888902 </v>
    <v>       0.94874501       0.80128391       0.76888902 </v>
    <v>       0.30127600       0.05129450       0.76887296 </v>
    <v>       0.30127601       0.55129450       0.76887296 </v>
    <v>       0.80127594       0.05129450       0.76887296 </v>
    <v>       0.80127598       0.55129450       0.76887296 </v>
    <v>       0.07877100       0.17118050       0.74344197 </v>
    <v>       0.07877101       0.67118045       0.74344197 </v>
    <v>       0.57877100       0.17118050       0.74344197 </v>
    <v>       0.57877099       0.67118045       0.74344197 </v>
    <v>       0.17119950       0.42117448       0.74342103 </v>
    <v>       0.17119950       0.92117451       0.74342103 </v>
    <v>       0.67119951       0.42117448       0.74342103 </v>
    <v>       0.67119950       0.92117451       0.74342103 </v>
    <v>       0.05125600       0.19871499       0.76888902 </v>
    <v>       0.05125600       0.69871493       0.76888902 </v>
    <v>       0.55125603       0.19871499       0.76888902 </v>
    <v>       0.55125602       0.69871493       0.76888902 </v>
    <v>       0.19872349       0.44870397       0.76887205 </v>
    <v>       0.19872349       0.94870397       0.76887205 </v>
    <v>       0.69872352       0.44870397       0.76887205 </v>
    <v>       0.69872351       0.94870397       0.76887205 </v>
    <v>       0.42123152       0.32881747       0.74344197 </v>
    <v>       0.42123151       0.82881744       0.74344197 </v>
    <v>       0.92123147       0.32881747       0.74344197 </v>
    <v>       0.92123151       0.82881744       0.74344197 </v>
    <v>       0.32880050       0.07882500       0.74342103 </v>
    <v>       0.32880049       0.57882496       0.74342103 </v>
    <v>       0.82880048       0.07882500       0.74342103 </v>
    <v>       0.82880052       0.57882496       0.74342103 </v>
    <v>       0.00000350       0.25000148       0.72582199 </v>
    <v>       0.00000350       0.75000145       0.72582199 </v>
    <v>       0.50000351       0.25000148       0.72582199 </v>
    <v>       0.50000350       0.75000145       0.72582199 </v>
    <v>       0.25000050       0.00000000       0.72580398 </v>
    <v>       0.25000052       0.50000000       0.72580398 </v>
    <v>       0.75000050       0.00000000       0.72580398 </v>
    <v>       0.75000049       0.50000000       0.72580398 </v>
    <v>       0.77619745       0.55704111       0.51964758 </v>
    <v>       0.71956858       0.47864243       0.52480675 </v>
    <v>       0.86844351       0.50105210       0.53877408 </v>
    <v>       0.85880896       0.48139625       0.56630412 </v>
    <v>       0.74476938       0.64164098       0.56015409 </v>
    <v>       0.81186529       0.59636869       0.57607433 </v>
    <v>       0.66643858       0.54758324       0.56907818 </v>
    <v>       0.68020948       0.45409604       0.56041659 </v>
    <v>       0.61734312       0.55807378       0.53709742 </v>
    <v>       0.67337807       0.63848822       0.53505923 </v>
    <v>       0.60652315       0.64571791       0.50372789 </v>
    <v>       0.68689766       0.60255838       0.49431246 </v>
    <v>       0.78590598       0.38976647       0.53013417 </v>
    <v>       0.77889909       0.37189284       0.55776549 </v>
    <v>       0.86558407       0.36757077       0.54496050 </v>
    <v>       0.86326252       0.69604949       0.55328486 </v>
    <v>       0.84140053       0.64699097       0.52971697 </v>
    <v>       0.90707842       0.60954605       0.54826567 </v>
    <v>       0.76955752       0.52839466       0.59704215 </v>
    <v>       0.77298908       0.43362722       0.58911099 </v>
    <v>       0.69109733       0.47085546       0.60007858 </v>
    <v>       0.53673244       0.52899819       0.50439050 </v>
    <v>       0.57488783       0.54653832       0.47869938 </v>
    <v>       0.70069541       0.48011586       0.46967704 </v>
    <v>       0.55707223       0.41487946       0.52107969 </v>
    <v>       0.76447196       0.35873109       0.47157201 </v>
    <v>       0.62094496       0.29324335       0.52338093 </v>
    <v>       0.72622301       0.26522512       0.49891977 </v>
    <v>       0.01861356       0.25514152       0.55754139 </v>
    <v>       0.03614680       0.76247343       0.56086609 </v>
    <v>       0.46359295       0.22702215       0.55459884 </v>
    <v>       0.49979166       0.75645814       0.55478681 </v>
    <v>       0.23938992       0.53473798       0.55977053 </v>
    <v>       0.25033637       0.01369388       0.55693708 </v>
    <v>       0.77577158       0.98038125       0.56007693 </v>
    <v>       0.01110148       0.24424608       0.64851484 </v>
    <v>       0.01048044       0.76003011       0.65226376 </v>
    <v>       0.48352080       0.22877854       0.65393194 </v>
    <v>       0.50018526       0.75372638       0.64885170 </v>
    <v>       0.25396324       0.49524889       0.64888717 </v>
    <v>       0.25209375       0.99799654       0.64670619 </v>
    <v>       0.77555017       0.48485656       0.65526277 </v>
    <v>       0.75460736       0.99793293       0.64927250 </v>
    <v>       0.49998898       0.24999498       0.74327702 </v>
    <v>       0.49998903       0.74999496       0.74327702 </v>
    <v>       0.99998898       0.24999498       0.74327702 </v>
    <v>       0.99998903       0.74999496       0.74327702 </v>
    <v>       0.25000050       0.00000100       0.74325596 </v>
    <v>       0.25000052       0.50000100       0.74325596 </v>
    <v>       0.75000050       0.00000100       0.74325596 </v>
    <v>       0.75000049       0.50000100       0.74325596 </v>
    <v>       0.62489753       0.45634169       0.49543830 </v>
    <v>       0.68354564       0.43911279       0.48159874 </v>
    <v>       0.60285335       0.40219310       0.51026518 </v>
    <v>       0.71921368       0.37078818       0.48258841 </v>
    <v>       0.63887835       0.33369220       0.51149027 </v>
    <v>       0.69752996       0.31808921       0.49768084 </v>
    <v>       0.73170501       0.53546670       0.52975501 </v>
    <v>       0.83096312       0.47752513       0.55075335 </v>
    <v>       0.79304379       0.60514177       0.55960772 </v>
    <v>       0.70690842       0.50255256       0.56773044 </v>
    <v>       0.66297912       0.58330881       0.52799928 </v>
    <v>       0.63827831       0.59416053       0.50458872 </v>
    <v>       0.81312368       0.39793122       0.54558709 </v>
    <v>       0.85489938       0.64016850       0.54676512 </v>
    <v>       0.73799779       0.48320495       0.58948442 </v>
    <v>       0.58932874       0.53174404       0.49533204 </v>
    <v>       0.99382924       0.19338881       0.56577637 </v>
    <v>       0.03289569       0.70084352       0.57186981 </v>
    <v>       0.53373735       0.21446030       0.55891361 </v>
    <v>       0.47324500       0.69500773       0.56322209 </v>
    <v>       0.42838993       0.29000815       0.55741123 </v>
    <v>       0.47209019       0.82278425       0.55842914 </v>
    <v>       0.99527240       0.32110346       0.56312917 </v>
    <v>       0.98558861       0.81500139       0.56162039 </v>
    <v>       0.23578267       0.46485093       0.56568803 </v>
    <v>       0.19284752       0.97402850       0.56281319 </v>
    <v>       0.70443048       0.98572920       0.56372304 </v>
    <v>       0.31865855       0.99689677       0.56215449 </v>
    <v>       0.30100754       0.57228275       0.55730550 </v>
    <v>       0.82344747       0.03463831       0.56238336 </v>
    <v>       0.05553139       0.19241650       0.65554872 </v>
    <v>       0.06380167       0.71356481       0.65723821 </v>
    <v>       0.55453613       0.21246746       0.65529269 </v>
    <v>       0.53356451       0.70028735       0.65928812 </v>
    <v>       0.20721451       0.44855656       0.65775131 </v>
    <v>       0.20871899       0.95587486       0.65821124 </v>
    <v>       0.70844693       0.46134284       0.65928732 </v>
    <v>       0.70628614       0.95657944       0.65923122 </v>
    <v>       0.45489871       0.29436039       0.65777518 </v>
    <v>       0.46028845       0.80653206       0.65749680 </v>
    <v>       0.96860922       0.28661436       0.66022983 </v>
    <v>       0.94476261       0.76083380       0.66111972 </v>
    <v>       0.30063641       0.04605670       0.65405300 </v>
    <v>       0.29614589       0.54231567       0.65904765 </v>
    <v>       0.79905644       0.04660846       0.65838107 </v>
    <v>       0.79571916       0.55500354       0.65505491 </v>
    <v>       0.04586250       0.20411950       0.75272599 </v>
    <v>       0.04586250       0.70411946       0.75272599 </v>
    <v>       0.54586251       0.20411950       0.75272599 </v>
    <v>       0.54586250       0.70411946       0.75272599 </v>
    <v>       0.20411900       0.45410100       0.75270499 </v>
    <v>       0.20411899       0.95410095       0.75270499 </v>
    <v>       0.70411898       0.45410100       0.75270499 </v>
    <v>       0.70411896       0.95410095       0.75270499 </v>
    <v>       0.45414002       0.29588849       0.75272697 </v>
    <v>       0.45414001       0.79588852       0.75272697 </v>
    <v>       0.95414002       0.29588849       0.75272697 </v>
    <v>       0.95414006       0.79588852       0.75272697 </v>
    <v>       0.29588249       0.04590050       0.75270499 </v>
    <v>       0.29588248       0.54590053       0.75270499 </v>
    <v>       0.79588244       0.04590050       0.75270499 </v>
    <v>       0.79588248       0.54590053       0.75270499 </v>
    <v>       0.76534136       0.53031496       0.55192075 </v>
    <v>       0.51269436       0.01790725       0.55171930 </v>
    <v>       0.48035414       0.49584086       0.55487948 </v>
    <v>       0.00895284       0.00530016       0.54843837 </v>
    <v>       0.03842496       0.50602654       0.55328510 </v>
    <v>       0.23647508       0.24207147       0.55215243 </v>
    <v>       0.25653668       0.76583580       0.55356537 </v>
    <v>       0.73737065       0.20287835       0.55473345 </v>
    <v>       0.70167467       0.79211966       0.55422194 </v>
    <v>       0.00092415       0.98299498       0.65359539 </v>
    <v>       0.99614446       0.50550163       0.65487708 </v>
    <v>       0.49903232       0.01180979       0.65410330 </v>
    <v>       0.51034193       0.49048775       0.65516009 </v>
    <v>       0.26057345       0.24629571       0.65422381 </v>
    <v>       0.26004207       0.75382247       0.65462739 </v>
    <v>       0.74869273       0.26412845       0.65452557 </v>
    <v>       0.74500575       0.75108824       0.65461628 </v>
    <v>       0.13579724       0.11225768       0.60715080 </v>
    <v>       0.15167481       0.60389564       0.60824244 </v>
    <v>       0.64817842       0.10468298       0.60979927 </v>
    <v>       0.61615735       0.62859123       0.60955362 </v>
    <v>       0.35995032       0.38661284       0.60485926 </v>
    <v>       0.37443335       0.88006020       0.60644594 </v>
    <v>       0.89052313       0.36483688       0.60964940 </v>
    <v>       0.87057364       0.87651816       0.60475224 </v>
    <v>       0.12371588       0.36826482       0.60955191 </v>
    <v>       0.12329055       0.86502927       0.60727747 </v>
    <v>       0.59232031       0.33761238       0.60133127 </v>
    <v>       0.61725942       0.87155475       0.61255263 </v>
    <v>       0.38590613       0.13415243       0.60409299 </v>
    <v>       0.38565383       0.62864667       0.61104568 </v>
    <v>       0.88693273       0.13304163       0.61056444 </v>
    <v>       0.89656475       0.64422284       0.61069972 </v>
    <v>       0.00000000       0.00000000       0.75492797 </v>
    <v>       0.00000000       0.50000000       0.75492797 </v>
    <v>       0.50000000       0.00000000       0.75492797 </v>
    <v>       0.49999999       0.50000000       0.75492797 </v>
    <v>       0.25000050       0.25000000       0.75493902 </v>
    <v>       0.25000051       0.74999997       0.75493902 </v>
    <v>       0.75000047       0.25000000       0.75493902 </v>
    <v>       0.75000046       0.74999997       0.75493902 </v>
    <v>       0.13579050       0.11421000       0.70478299 </v>
    <v>       0.13579050       0.61420998       0.70478299 </v>
    <v>       0.63579045       0.11421000       0.70478299 </v>
    <v>       0.63579049       0.61420998       0.70478299 </v>
    <v>       0.36420952       0.38578999       0.70478299 </v>
    <v>       0.36420950       0.88578996       0.70478299 </v>
    <v>       0.86420954       0.38578999       0.70478299 </v>
    <v>       0.86420953       0.88578996       0.70478299 </v>
    <v>       0.11421799       0.36421899       0.70478098 </v>
    <v>       0.11421799       0.86421899       0.70478098 </v>
    <v>       0.61421800       0.36421899       0.70478098 </v>
    <v>       0.61421799       0.86421899       0.70478098 </v>
    <v>       0.38578201       0.13578149       0.70478202 </v>
    <v>       0.38578200       0.63578149       0.70478202 </v>
    <v>       0.88578199       0.13578149       0.70478202 </v>
    <v>       0.88578203       0.63578149       0.70478202 </v>
    <v>       0.13466700       0.11533200       0.80125603 </v>
    <v>       0.13466699       0.61533199       0.80125603 </v>
    <v>       0.63466699       0.11533200       0.80125603 </v>
    <v>       0.63466698       0.61533199       0.80125603 </v>
    <v>       0.36533300       0.38466799       0.80125603 </v>
    <v>       0.36533299       0.88466796       0.80125603 </v>
    <v>       0.86533295       0.38466799       0.80125603 </v>
    <v>       0.86533294       0.88466796       0.80125603 </v>
    <v>       0.11532850       0.36533700       0.80126500 </v>
    <v>       0.11532850       0.86533698       0.80126500 </v>
    <v>       0.61532850       0.36533700       0.80126500 </v>
    <v>       0.61532849       0.86533698       0.80126500 </v>
    <v>       0.38467151       0.13466300       0.80126500 </v>
    <v>       0.38467150       0.63466297       0.80126500 </v>
    <v>       0.88467149       0.13466300       0.80126500 </v>
    <v>       0.88467153       0.63466297       0.80126500 </v>
    <v>       0.00023786       0.99795426       0.60476867 </v>
    <v>       0.00691785       0.50341701       0.60496640 </v>
    <v>       0.50416465       0.00690205       0.60345017 </v>
    <v>       0.49815568       0.49231176       0.60479278 </v>
    <v>       0.24785531       0.24656113       0.60233977 </v>
    <v>       0.25254892       0.74477712       0.60384972 </v>
    <v>       0.74321145       0.24666303       0.60282492 </v>
    <v>       0.73830839       0.75486401       0.60326617 </v>
    <v>       0.00000050       0.00000050       0.70482896 </v>
    <v>       0.00000050       0.50000048       0.70482896 </v>
    <v>       0.50000048       0.00000050       0.70482896 </v>
    <v>       0.50000046       0.50000048       0.70482896 </v>
    <v>       0.24999999       0.24999947       0.70482499 </v>
    <v>       0.25000001       0.74999950       0.70482499 </v>
    <v>       0.74999999       0.24999947       0.70482499 </v>
    <v>       0.74999998       0.74999950       0.70482499 </v>
    <v>       0.00000000       0.00000000       0.80731797 </v>
    <v>       0.00000000       0.50000000       0.80731797 </v>
    <v>       0.50000000       0.00000000       0.80731797 </v>
    <v>       0.49999999       0.50000000       0.80731797 </v>
    <v>       0.24999999       0.25000000       0.80731797 </v>
    <v>       0.25000001       0.74999997       0.80731797 </v>
    <v>       0.74999999       0.25000000       0.80731797 </v>
    <v>       0.74999998       0.74999997       0.80731797 </v>
   </varray>
  </structure>
  <varray name="primitive_index" >
   <v type="int" >        1 </v>
   <v type="int" >        2 </v>
   <v type="int" >        3 </v>
   <v type="int" >        4 </v>
   <v type="int" >        5 </v>
   <v type="int" >        6 </v>
   <v type="int" >        7 </v>
   <v type="int" >        8 </v>
   <v type="int" >        9 </v>
   <v type="int" >       10 </v>
   <v type="int" >       11 </v>
   <v type="int" >       12 </v>
   <v type="int" >       13 </v>
   <v type="int" >       14 </v>
   <v type="int" >       15 </v>
   <v type="int" >       16 </v>
   <v type="int" >       17 </v>
   <v type="int" >       18 </v>
   <v type="int" >       19 </v>
   <v type="int" >       20 </v>
   <v type="int" >       21 </v>
   <v type="int" >       22 </v>
   <v type="int" >       23 </v>
   <v type="int" >       24 </v>
   <v type="int" >       25 </v>
   <v type="int" >       26 </v>
   <v type="int" >       27 </v>
   <v type="int" >       28 </v>
   <v type="int" >       29 </v>
   <v type="int" >       30 </v>
   <v type="int" >       31 </v>
   <v type="int" >       32 </v>
   <v type="int" >       33 </v>
   <v type="int" >       34 </v>
   <v type="int" >       35 </v>
   <v type="int" >       36 </v>
   <v type="int" >       37 </v>
   <v type="int" >       38 </v>
   <v type="int" >       39 </v>
   <v type="int" >       40 </v>
   <v type="int" >       41 </v>
   <v type="int" >       42 </v>
   <v type="int" >       43 </v>
   <v type="int" >       44 </v>
   <v type="int" >       45 </v>
   <v type="int" >       46 </v>
   <v type="int" >       47 </v>
   <v type="int" >       48 </v>
   <v type="int" >       49 </v>
   <v type="int" >       50 </v>
   <v type="int" >       51 </v>
   <v type="int" >       52 </v>
   <v type="int" >       53 </v>
   <v type="int" >       54 </v>
   <v type="int" >       55 </v>
   <v type="int" >       56 </v>
   <v type="int" >       57 </v>
   <v type="int" >       58 </v>
   <v type="int" >       59 </v>
   <v type="int" >       60 </v>
   <v type="int" >       61 </v>
   <v type="int" >       62 </v>
   <v type="int" >       63 </v>
   <v type="int" >       64 </v>
   <v type="int" >       65 </v>
   <v type="int" >       66 </v>
   <v type="int" >       67 </v>
   <v type="int" >       68 </v>
   <v type="int" >       69 </v>
   <v type="int" >       70 </v>
   <v type="int" >       71 </v>
   <v type="int" >       72 </v>
   <v type="int" >       73 </v>
   <v type="int" >       74 </v>
   <v type="int" >       75 </v>
   <v type="int" >       76 </v>
   <v type="int" >       77 </v>
   <v type="int" >       78 </v>
   <v type="int" >       79 </v>
   <v type="int" >       80 </v>
   <v type="int" >       81 </v>
   <v type="int" >       82 </v>
   <v type="int" >       83 </v>
   <v type="int" >       84 </v>
   <v type="int" >       85 </v>
   <v type="int" >       86 </v>
   <v type="int" >       87 </v>
   <v type="int" >       88 </v>
   <v type="int" >       89 </v>
   <v type="int" >       90 </v>
   <v type="int" >       91 </v>
   <v type="int" >       92 </v>
   <v type="int" >       93 </v>
   <v type="int" >       94 </v>
   <v type="int" >       95 </v>
   <v type="int" >       96 </v>
   <v type="int" >       97 </v>
   <v type="int" >       98 </v>
   <v type="int" >       99 </v>
   <v type="int" >      100 </v>
   <v type="int" >      101 </v>
   <v type="int" >      102 </v>
   <v type="int" >      103 </v>
   <v type="int" >      104 </v>
   <v type="int" >      105 </v>
   <v type="int" >      106 </v>
   <v type="int" >      107 </v>
   <v type="int" >      108 </v>
   <v type="int" >      109 </v>
   <v type="int" >      110 </v>
   <v type="int" >      111 </v>
   <v type="int" >      112 </v>
   <v type="int" >      113 </v>
   <v type="int" >      114 </v>
   <v type="int" >      115 </v>
   <v type="int" >      116 </v>
   <v type="int" >      117 </v>
   <v type="int" >      118 </v>
   <v type="int" >      119 </v>
   <v type="int" >      120 </v>
   <v type="int" >      121 </v>
   <v type="int" >      122 </v>
   <v type="int" >      123 </v>
   <v type="int" >      124 </v>
   <v type="int" >      125 </v>
   <v type="int" >      126 </v>
   <v type="int" >      127 </v>
   <v type="int" >      128 </v>
   <v type="int" >      129 </v>
   <v type="int" >      130 </v>
   <v type="int" >      131 </v>
   <v type="int" >      132 </v>
   <v type="int" >      133 </v>
   <v type="int" >      134 </v>
   <v type="int" >      135 </v>
   <v type="int" >      136 </v>
   <v type="int" >      137 </v>
   <v type="int" >      138 </v>
   <v type="int" >      139 </v>
   <v type="int" >      140 </v>
   <v type="int" >      141 </v>
   <v type="int" >      142 </v>
   <v type="int" >      143 </v>
   <v type="int" >      144 </v>
   <v type="int" >      145 </v>
   <v type="int" >      146 </v>
   <v type="int" >      147 </v>
   <v type="int" >      148 </v>
   <v type="int" >      149 </v>
   <v type="int" >      150 </v>
   <v type="int" >      151 </v>
   <v type="int" >      152 </v>
   <v type="int" >      153 </v>
   <v type="int" >      154 </v>
   <v type="int" >      155 </v>
   <v type="int" >      156 </v>
   <v type="int" >      157 </v>
   <v type="int" >      158 </v>
   <v type="int" >      159 </v>
   <v type="int" >      160 </v>
   <v type="int" >      161 </v>
   <v type="int" >      162 </v>
   <v type="int" >      163 </v>
   <v type="int" >      164 </v>
   <v type="int" >      165 </v>
   <v type="int" >      166 </v>
   <v type="int" >      167 </v>
   <v type="int" >      168 </v>
   <v type="int" >      169 </v>
   <v type="int" >      170 </v>
   <v type="int" >      171 </v>
   <v type="int" >      172 </v>
   <v type="int" >      173 </v>
   <v type="int" >      174 </v>
   <v type="int" >      175 </v>
   <v type="int" >      176 </v>
   <v type="int" >      177 </v>
   <v type="int" >      178 </v>
   <v type="int" >      179 </v>
   <v type="int" >      180 </v>
   <v type="int" >      181 </v>
   <v type="int" >      182 </v>
   <v type="int" >      183 </v>
   <v type="int" >      184 </v>
   <v type="int" >      185 </v>
   <v type="int" >      186 </v>
   <v type="int" >      187 </v>
   <v type="int" >      188 </v>
   <v type="int" >      189 </v>
   <v type="int" >      190 </v>
   <v type="int" >      191 </v>
   <v type="int" >      192 </v>
   <v type="int" >      193 </v>
   <v type="int" >      194 </v>
   <v type="int" >      195 </v>
   <v type="int" >      196 </v>
   <v type="int" >      197 </v>
   <v type="int" >      198 </v>
   <v type="int" >      199 </v>
   <v type="int" >      200 </v>
   <v type="int" >      201 </v>
   <v type="int" >      202 </v>
   <v type="int" >      203 </v>
   <v type="int" >      204 </v>
   <v type="int" >      205 </v>
   <v type="int" >      206 </v>
   <v type="int" >      207 </v>
   <v type="int" >      208 </v>
   <v type="int" >      209 </v>
   <v type="int" >      210 </v>
   <v type="int" >      211 </v>
   <v type="int" >      212 </v>
   <v type="int" >      213 </v>
   <v type="int" >      214 </v>
   <v type="int" >      215 </v>
   <v type="int" >      216 </v>
   <v type="int" >      217 </v>
   <v type="int" >      218 </v>
   <v type="int" >      219 </v>
   <v type="int" >      220 </v>
   <v type="int" >      221 </v>
   <v type="int" >      222 </v>
   <v type="int" >      223 </v>
   <v type="int" >      224 </v>
   <v type="int" >      225 </v>
   <v type="int" >      226 </v>
   <v type="int" >      227 </v>
   <v type="int" >      228 </v>
   <v type="int" >      229 </v>
   <v type="int" >      230 </v>
   <v type="int" >      231 </v>
   <v type="int" >      232 </v>
   <v type="int" >      233 </v>
   <v type="int" >      234 </v>
   <v type="int" >      235 </v>
   <v type="int" >      236 </v>
   <v type="int" >      237 </v>
   <v type="int" >      238 </v>
   <v type="int" >      239 </v>
   <v type="int" >      240 </v>
   <v type="int" >      241 </v>
   <v type="int" >      242 </v>
   <v type="int" >      243 </v>
   <v type="int" >      244 </v>
   <v type="int" >      245 </v>
   <v type="int" >      246 </v>
   <v type="int" >      247 </v>
   <v type="int" >      248 </v>
   <v type="int" >      249 </v>
   <v type="int" >      250 </v>
   <v type="int" >      251 </v>
   <v type="int" >      252 </v>
   <v type="int" >      253 </v>
   <v type="int" >      254 </v>
   <v type="int" >      255 </v>
   <v type="int" >      256 </v>
   <v type="int" >      257 </v>
   <v type="int" >      258 </v>
   <v type="int" >      259 </v>
   <v type="int" >      260 </v>
   <v type="int" >      261 </v>
   <v type="int" >      262 </v>
   <v type="int" >      263 </v>
   <v type="int" >      264 </v>
   <v type="int" >      265 </v>
   <v type="int" >      266 </v>
   <v type="int" >      267 </v>
   <v type="int" >      268 </v>
   <v type="int" >      269 </v>
   <v type="int" >      270 </v>
   <v type="int" >      271 </v>
   <v type="int" >      272 </v>
   <v type="int" >      273 </v>
   <v type="int" >      274 </v>
   <v type="int" >      275 </v>
   <v type="int" >      276 </v>
   <v type="int" >      277 </v>
   <v type="int" >      278 </v>
   <v type="int" >      279 </v>
   <v type="int" >      280 </v>
   <v type="int" >      281 </v>
   <v type="int" >      282 </v>
   <v type="int" >      283 </v>
   <v type="int" >      284 </v>
   <v type="int" >      285 </v>
   <v type="int" >      286 </v>
   <v type="int" >      287 </v>
   <v type="int" >      288 </v>
   <v type="int" >      289 </v>
   <v type="int" >      290 </v>
   <v type="int" >      291 </v>
   <v type="int" >      292 </v>
   <v type="int" >      293 </v>
   <v type="int" >      294 </v>
   <v type="int" >      295 </v>
   <v type="int" >      296 </v>
   <v type="int" >      297 </v>
   <v type="int" >      298 </v>
   <v type="int" >      299 </v>
   <v type="int" >      300 </v>
   <v type="int" >      301 </v>
   <v type="int" >      302 </v>
   <v type="int" >      303 </v>
   <v type="int" >      304 </v>
   <v type="int" >      305 </v>
   <v type="int" >      306 </v>
   <v type="int" >      307 </v>
   <v type="int" >      308 </v>
   <v type="int" >      309 </v>
   <v type="int" >      310 </v>
   <v type="int" >      311 </v>
   <v type="int" >      312 </v>
   <v type="int" >      313 </v>
   <v type="int" >      314 </v>
   <v type="int" >      315 </v>
   <v type="int" >      316 </v>
   <v type="int" >      317 </v>
   <v type="int" >      318 </v>
   <v type="int" >      319 </v>
   <v type="int" >      320 </v>
   <v type="int" >      321 </v>
   <v type="int" >      322 </v>
   <v type="int" >      323 </v>
   <v type="int" >      324 </v>
   <v type="int" >      325 </v>
  </varray>
 </primitive_cell>
 <kpoints>
  <generation param="Gamma">
   <v type="int" name="divisions">       3        3        1 </v>
   <v name="usershift">      0.00000000       0.00000000       0.00000000 </v>
   <v name="genvec1">      0.33333333       0.00000000       0.00000000 </v>
   <v name="genvec2">      0.00000000       0.33333333       0.00000000 </v>
   <v name="genvec3">      0.00000000       0.00000000       1.00000000 </v>
   <v name="shift">      0.00000000       0.00000000       0.00000000 </v>
  </generation>
  <varray name="kpointlist" >
   <v>       0.00000000       0.00000000       0.00000000 </v>
   <v>       0.33333333       0.00000000       0.00000000 </v>
   <v>       0.00000000       0.33333333       0.00000000 </v>
   <v>       0.33333333       0.33333333       0.00000000 </v>
   <v>      -0.33333333       0.33333333       0.00000000 </v>
  </varray>
  <varray name="weights" >
   <v>       0.11111111 </v>
   <v>       0.22222222 </v>
   <v>       0.22222222 </v>
   <v>       0.22222222 </v>
   <v>       0.22222222 </v>
  </varray>
 </kpoints>
 <parameters>
  <separator name="general" >
   <i type="string" name="SYSTEM">PSC</i>
   <i type="logical" name="LCOMPAT"> F  </i>
  </separator>
  <separator name="electronic" >
   <i type="string" name="PREC">normal</i>
   <i name="ENMAX">    500.00000000</i>
   <i name="ENAUG">    644.87300000</i>
   <i name="EDIFF">      0.00010000</i>
   <i type="int" name="IALGO">    38</i>
   <i type="int" name="IWAVPR">    10</i>
   <i type="int" name="NBANDS">   732</i>
   <i type="int" name="NBANDSLOW">    -1</i>
   <i type="int" name="NBANDSHIGH">    -1</i>
   <i name="NELECT">   1134.00000000</i>
   <i type="int" name="TURBO">     0</i>
   <i type="int" name="IRESTART">     0</i>
   <i type="int" name="NREBOOT">     0</i>
   <i type="int" name="NMIN">     0</i>
   <i name="EREF">      0.00000000</i>
   <separator name="electronic smearing" >
    <i type="int" name="ISMEAR">     0</i>
    <i name="SIGMA">      0.05000000</i>
    <i name="KSPACING">      0.50000000</i>
    <i type="logical" name="KGAMMA"> T  </i>
    <i type="logical" name="KBLOWUP"> T  </i>
   </separator>
   <separator name="electronic projectors" >
    <i type="logical" name="LREAL"> T  </i>
    <v name="ROPT">     -0.00050000     -0.00050000     -0.00050000     -0.00050000     -0.00050000</v>
    <i type="int" name="LMAXPAW">  -100</i>
    <i type="int" name="LMAXMIX">     2</i>
    <i type="logical" name="NLSPLINE"> F  </i>
   </separator>
   <separator name="electronic startup" >
    <i type="int" name="ISTART">     0</i>
    <i type="int" name="ICHARG">     1</i>
    <i type="int" name="INIWAV">     1</i>
   </separator>
   <separator name="electronic spin" >
    <i type="int" name="ISPIN">     1</i>
    <i type="logical" name="LNONCOLLINEAR"> F  </i>
    <v name="MAGMOM">      1.00000000      1.00000000      1.00000000      1.00000000      1.00000000      1.00000000      1.00000000      1.00000000      1.00000000      1.00000000      1.00000000      1.00000000      1.00000000      1.00000000      1.00000000      1.00000000      1.00000000      1.00000000      1.00000000      1.00000000
      1.00000000      1.00000000      1.00000000      1.00000000      1.00000000      1.00000000      1.00000000      1.00000000      1.00000000      1.00000000      1.00000000      1.00000000      1.00000000      1.00000000      1.00000000      1.00000000      1.00000000      1.00000000      1.00000000      1.00000000
      1.00000000      1.00000000      1.00000000      1.00000000      1.00000000      1.00000000      1.00000000      1.00000000      1.00000000      1.00000000      1.00000000      1.00000000      1.00000000      1.00000000      1.00000000      1.00000000      1.00000000      1.00000000      1.00000000      1.00000000
      1.00000000      1.00000000      1.00000000      1.00000000      1.00000000      1.00000000      1.00000000      1.00000000      1.00000000      1.00000000      1.00000000      1.00000000      1.00000000      1.00000000      1.00000000      1.00000000      1.00000000      1.00000000      1.00000000      1.00000000
      1.00000000      1.00000000      1.00000000      1.00000000      1.00000000      1.00000000      1.00000000      1.00000000      1.00000000      1.00000000      1.00000000      1.00000000      1.00000000      1.00000000      1.00000000      1.00000000      1.00000000      1.00000000      1.00000000      1.00000000
      1.00000000      1.00000000      1.00000000      1.00000000      1.00000000      1.00000000      1.00000000      1.00000000      1.00000000      1.00000000      1.00000000      1.00000000      1.00000000      1.00000000      1.00000000      1.00000000      1.00000000      1.00000000      1.00000000      1.00000000
      1.00000000      1.00000000      1.00000000      1.00000000      1.00000000      1.00000000      1.00000000      1.00000000      1.00000000      1.00000000      1.00000000      1.00000000      1.00000000      1.00000000      1.00000000      1.00000000      1.00000000      1.00000000      1.00000000      1.00000000
      1.00000000      1.00000000      1.00000000      1.00000000      1.00000000      1.00000000      1.00000000      1.00000000      1.00000000      1.00000000      1.00000000      1.00000000      1.00000000      1.00000000      1.00000000      1.00000000      1.00000000      1.00000000      1.00000000      1.00000000
      1.00000000      1.00000000      1.00000000      1.00000000      1.00000000      1.00000000      1.00000000      1.00000000      1.00000000      1.00000000      1.00000000      1.00000000      1.00000000      1.00000000      1.00000000      1.00000000      1.00000000      1.00000000      1.00000000      1.00000000
      1.00000000      1.00000000      1.00000000      1.00000000      1.00000000      1.00000000      1.00000000      1.00000000      1.00000000      1.00000000      1.00000000      1.00000000      1.00000000      1.00000000      1.00000000      1.00000000      1.00000000      1.00000000      1.00000000      1.00000000
      1.00000000      1.00000000      1.00000000      1.00000000      1.00000000      1.00000000      1.00000000      1.00000000      1.00000000      1.00000000      1.00000000      1.00000000      1.00000000      1.00000000      1.00000000      1.00000000      1.00000000      1.00000000      1.00000000      1.00000000
      1.00000000      1.00000000      1.00000000      1.00000000      1.00000000      1.00000000      1.00000000      1.00000000      1.00000000      1.00000000      1.00000000      1.00000000      1.00000000      1.00000000      1.00000000      1.00000000      1.00000000      1.00000000      1.00000000      1.00000000
      1.00000000      1.00000000      1.00000000      1.00000000      1.00000000      1.00000000      1.00000000      1.00000000      1.00000000      1.00000000      1.00000000      1.00000000      1.00000000      1.00000000      1.00000000      1.00000000      1.00000000      1.00000000      1.00000000      1.00000000
      1.00000000      1.00000000      1.00000000      1.00000000      1.00000000      1.00000000      1.00000000      1.00000000      1.00000000      1.00000000      1.00000000      1.00000000      1.00000000      1.00000000      1.00000000      1.00000000      1.00000000      1.00000000      1.00000000      1.00000000
      1.00000000      1.00000000      1.00000000      1.00000000      1.00000000      1.00000000      1.00000000      1.00000000      1.00000000      1.00000000      1.00000000      1.00000000      1.00000000      1.00000000      1.00000000      1.00000000      1.00000000      1.00000000      1.00000000      1.00000000
      1.00000000      1.00000000      1.00000000      1.00000000      1.00000000      1.00000000      1.00000000      1.00000000      1.00000000      1.00000000      1.00000000      1.00000000      1.00000000      1.00000000      1.00000000      1.00000000      1.00000000      1.00000000      1.00000000      1.00000000
      1.00000000      1.00000000      1.00000000      1.00000000      1.00000000</v>
    <i name="NUPDOWN">     -1.00000000</i>
    <i type="logical" name="LSORBIT"> F  </i>
    <v name="SAXIS">      0.00000000      0.00000000      1.00000000</v>
    <i type="logical" name="LSPIRAL"> F  </i>
    <v name="QSPIRAL">      0.00000000      0.00000000      0.00000000</v>
    <i type="logical" name="LZEROZ"> F  </i>
   </separator>
   <separator name="electronic exchange-correlation" >
    <i type="logical" name="LASPH"> F  </i>
    <i type="logical" name="LMETAGGA"> F  </i>
   </separator>
   <separator name="electronic convergence" >
    <i type="int" name="NELM">   600</i>
    <i type="int" name="NELMDL">     0</i>
    <i type="int" name="NELMIN">     2</i>
    <i name="ENINI">    500.00000000</i>
    <separator name="electronic convergence detail" >
     <i type="logical" name="LDIAG"> T  </i>
     <i type="logical" name="LSUBROT"> F  </i>
     <i name="WEIMIN">      0.00000000</i>
     <i name="EBREAK">      0.00000003</i>
     <i name="DEPER">      0.30000000</i>
     <i type="int" name="NRMM">     4</i>
     <i name="TIME">      0.40000000</i>
    </separator>
   </separator>
   <separator name="electronic mixer" >
    <i name="AMIX">      0.40000000</i>
    <i name="BMIX">      0.01000000</i>
    <i name="AMIN">      0.01000000</i>
    <i name="AMIX_MAG">      1.60000000</i>
    <i name="BMIX_MAG">      0.01000000</i>
    <separator name="electronic mixer details" >
     <i type="int" name="IMIX">     4</i>
     <i type="logical" name="MIXFIRST"> F  </i>
     <i type="int" name="MAXMIX">   -45</i>
     <i name="WC">    100.00000000</i>
     <i type="int" name="INIMIX">     1</i>
     <i type="int" name="MIXPRE">     1</i>
     <i type="int" name="MREMOVE">     5</i>
    </separator>
   </separator>
   <separator name="electronic dipolcorrection" >
    <i type="logical" name="LDIPOL"> T  </i>
    <i type="logical" name="LMONO"> F  </i>
    <i type="int" name="IDIPOL">     3</i>
    <i name="EPSILON">      1.00000000</i>
    <v name="DIPOL">   -100.00000000   -100.00000000   -100.00000000</v>
    <i name="EFIELD">      0.00000000</i>
   </separator>
  </separator>
  <separator name="grids" >
   <i type="int" name="NGX">   100</i>
   <i type="int" name="NGY">   100</i>
   <i type="int" name="NGZ">   350</i>
   <i type="int" name="NGXF">   200</i>
   <i type="int" name="NGYF">   200</i>
   <i type="int" name="NGZF">   700</i>
   <i type="logical" name="ADDGRID"> F  </i>
  </separator>
  <separator name="ionic" >
   <i type="int" name="NSW">     0</i>
   <i type="int" name="IBRION">    -1</i>
   <i type="int" name="MDALGO">     0</i>
   <i type="int" name="ISIF">     2</i>
   <i name="PSTRESS">      0.00000000</i>
   <i name="EDIFFG">      0.00100000</i>
   <i type="int" name="NFREE">     0</i>
   <i name="POTIM">      0.50000000</i>
   <i name="SMASS">     -3.00000000</i>
   <i name="SCALEE">      1.00000000</i>
  </separator>
  <separator name="ionic md" >
   <i name="TEBEG">      0.00010000</i>
   <i name="TEEND">      0.00010000</i>
   <i type="int" name="NBLOCK">     1</i>
   <i type="int" name="KBLOCK">     1</i>
   <i type="int" name="NPACO">   256</i>
   <i name="APACO">     16.00000000</i>
  </separator>
  <separator name="symmetry" >
   <i type="int" name="ISYM">     0</i>
   <i name="SYMPREC">      0.00001000</i>
  </separator>
  <separator name="dos" >
   <i type="int" name="LORBIT">     0</i>
   <v name="RWIGS">     -1.00000000     -1.00000000     -1.00000000     -1.00000000     -1.00000000</v>
   <i type="int" name="NEDOS">   301</i>
   <i name="EMIN">     10.00000000</i>
   <i name="EMAX">    -10.00000000</i>
   <i name="EFERMI">      0.00000000</i>
  </separator>
  <separator name="writing" >
   <i type="int" name="NWRITE">     2</i>
   <i type="logical" name="LWAVE"> F  </i>
   <i type="logical" name="LDOWNSAMPLE"> F  </i>
   <i type="logical" name="LCHARG"> T  </i>
   <i type="logical" name="LPARD"> F  </i>
   <i type="logical" name="LVTOT"> T  </i>
   <i type="logical" name="LVHAR"> F  </i>
   <i type="logical" name="LELF"> F  </i>
   <i type="logical" name="LOPTICS"> F  </i>
   <v name="STM">      0.00000000      0.00000000      0.00000000      0.00000000      0.00000000      0.00000000      0.00000000</v>
  </separator>
  <separator name="performance" >
   <i type="int" name="NPAR">     4</i>
   <i type="int" name="NSIM">     4</i>
   <i type="int" name="NBLK">    -1</i>
   <i type="logical" name="LPLANE"> T  </i>
   <i type="logical" name="LSCALAPACK"> T  </i>
   <i type="logical" name="LSCAAWARE"> F  </i>
   <i type="logical" name="LSCALU"> F  </i>
   <i type="logical" name="LASYNC"> F  </i>
   <i type="logical" name="LORBITALREAL"> F  </i>
  </separator>
  <separator name="miscellaneous" >
   <i type="int" name="IDIOT">     3</i>
   <i type="int" name="PHON_NSTRUCT">    -1</i>
   <i type="logical" name="LMUSIC"> F  </i>
   <v name="POMASS">      1.00000000     12.01100000     14.00100000    126.90400000    207.20000000</v>
   <v name="DARWINR">      0.00000000      0.00000000      0.00000000      0.00000000      0.00000000</v>
   <v name="DARWINV">      1.00000000      1.00000000      1.00000000      1.00000000      1.00000000</v>
   <i type="logical" name="LCORR"> T  </i>
  </separator>
  <i type="logical" name="GGA_COMPAT"> F  </i>
  <i type="logical" name="LBERRY"> F  </i>
  <i type="int" name="ICORELEVEL">     0</i>
  <i type="logical" name="LDAU"> F  </i>
  <i type="int" name="I_CONSTRAINED_M">     0</i>
  <separator name="electronic exchange-correlation" >
   <i type="string" name="GGA">--</i>
   <i type="int" name="VOSKOWN">     0</i>
   <i type="logical" name="LHFCALC"> F  </i>
   <i type="string" name="PRECFOCK"></i>
   <i type="logical" name="LSYMGRAD"> F  </i>
   <i type="logical" name="LHFONE"> F  </i>
   <i type="logical" name="LRHFCALC"> F  </i>
   <i type="logical" name="LTHOMAS"> F  </i>
   <i type="logical" name="LMODELHF"> F  </i>
   <i type="logical" name="LFOCKACE"> F  </i>
   <i name="ENCUT4O">     -1.00000000</i>
   <i type="int" name="EXXOEP">     0</i>
   <i type="int" name="FOURORBIT">     0</i>
   <i name="AEXX">      0.00000000</i>
   <i name="HFALPHA">      0.00000000</i>
   <i name="MCALPHA">      0.00000000</i>
   <i name="ALDAX">      1.00000000</i>
   <i name="AGGAX">      1.00000000</i>
   <i name="ALDAC">      1.00000000</i>
   <i name="AGGAC">      1.00000000</i>
   <i type="int" name="NKREDX">     1</i>
   <i type="int" name="NKREDY">     1</i>
   <i type="int" name="NKREDZ">     1</i>
   <i type="logical" name="SHIFTRED"> F  </i>
   <i type="logical" name="ODDONLY"> F  </i>
   <i type="logical" name="EVENONLY"> F  </i>
   <i type="int" name="LMAXFOCK">     0</i>
   <i type="int" name="NMAXFOCKAE">     0</i>
   <i type="logical" name="LFOCKAEDFT"> F  </i>
   <i name="HFSCREEN">      0.00000000</i>
   <i name="HFSCREENC">      0.00000000</i>
   <i type="int" name="NBANDSGWLOW">     0</i>
  </separator>
  <separator name="vdW DFT" >
   <i type="logical" name="LUSE_VDW"> F  </i>
   <i name="Zab_VDW">     -0.84910000</i>
   <i name="PARAM1">      0.12340000</i>
   <i name="PARAM2">      1.00000000</i>
   <i name="PARAM3">      0.00000000</i>
  </separator>
  <separator name="model GW" >
   <i type="int" name="MODEL_GW">     0</i>
   <i name="MODEL_EPS0">     37.63423484</i>
   <i name="MODEL_ALPHA">      1.00000000</i>
  </separator>
  <separator name="linear response parameters" >
   <i type="logical" name="LEPSILON"> F  </i>
   <i type="logical" name="LRPA"> F  </i>
   <i type="logical" name="LNABLA"> F  </i>
   <i type="logical" name="LVEL"> F  </i>
   <i type="int" name="KINTER">     0</i>
   <i name="CSHIFT">      0.10000000</i>
   <i name="OMEGAMAX">     -1.00000000</i>
   <i name="DEG_THRESHOLD">      0.00200000</i>
   <i name="RTIME">     -0.10000000</i>
   <i name="WPLASMAI">      0.00000000</i>
   <v name="DFIELD">      0.00000000      0.00000000      0.00000000</v>
   <v name="WPLASMA">      0.00000000      0.00000000      0.00000000      0.00000000      0.00000000      0.00000000      0.00000000      0.00000000      0.00000000</v>
  </separator>
  <separator name="orbital magnetization" >
   <i type="logical" name="NUCIND"> F  </i>
   <v name="MAGPOS">      0.00000000      0.00000000      0.00000000</v>
   <i type="logical" name="LNICSALL"> T  </i>
   <i type="logical" name="ORBITALMAG"> F  </i>
   <i type="logical" name="LMAGBLOCH"> F  </i>
   <i type="logical" name="LCHIMAG"> F  </i>
   <i type="logical" name="LGAUGE"> T  </i>
   <i type="int" name="MAGATOM">     0</i>
   <v name="MAGDIPOL">      0.00000000      0.00000000      0.00000000</v>
   <v name="AVECCONST">      0.00000000      0.00000000      0.00000000</v>
  </separator>
  <separator name="response functions" >
   <i type="logical" name="LFINITE_TEMPERATURE"> F  </i>
   <i type="logical" name="LADDER"> F  </i>
   <i type="logical" name="LRPAFORCE"> F  </i>
   <i type="logical" name="LFXC"> F  </i>
   <i type="logical" name="LHARTREE"> T  </i>
   <i type="int" name="IBSE">     0</i>
   <v type="int" name="KPOINT">    -1     0     0     0</v>
   <i type="logical" name="LTCTC"> F  </i>
   <i type="logical" name="LTCTE"> F  </i>
   <i type="logical" name="LTETE"> F  </i>
   <i type="logical" name="LTRIPLET"> F  </i>
   <i type="logical" name="LFXCEPS"> F  </i>
   <i type="logical" name="LFXHEG"> F  </i>
   <i type="int" name="NATURALO">     2</i>
   <i type="logical" name="LHOLEGF"> F  </i>
   <i type="logical" name="L2ORDER"> F  </i>
   <i type="logical" name="LDMP1"> F  </i>
   <i type="logical" name="LMP2LT"> F  </i>
   <i type="logical" name="LSMP2LT"> F  </i>
   <i type="logical" name="LGWLF"> F  </i>
   <i name="ENCUTGW">     -2.00000000</i>
   <i name="ENCUTGWSOFT">     -2.00000000</i>
   <i name="ENCUTLF">     -1.00000000</i>
   <i type="logical" name="LESF_SPLINES"> F  </i>
   <i type="int" name="LMAXMP2">    -1</i>
   <i name="SCISSOR">      0.00000000</i>
   <i type="int" name="NOMEGA">     0</i>
   <i type="int" name="NOMEGAR">     0</i>
   <i type="int" name="NBANDSGW">    -1</i>
   <i type="int" name="NBANDSO">    -1</i>
   <i type="int" name="NBANDSV">    -1</i>
   <i type="int" name="NELM">   600</i>
   <i type="int" name="NELMHF">     1</i>
   <i type="int" name="DIM">     3</i>
   <i type="int" name="IESPILON">     4</i>
   <i type="int" name="ANTIRES">     0</i>
   <i name="OMEGAMAX">    -30.00000000</i>
   <i name="OMEGAMIN">    -30.00000000</i>
   <i name="OMEGATL">   -200.00000000</i>
   <i type="int" name="OMEGAGRID">     0</i>
   <i name="CSHIFT">     -0.10000000</i>
   <i type="logical" name="LSELFENERGY"> F  </i>
   <i type="logical" name="LSPECTRAL"> F  </i>
   <i type="logical" name="LSPECTRALGW"> F  </i>
   <i type="logical" name="LSINGLES"> F  </i>
   <i type="logical" name="LFERMIGW"> F  </i>
   <i type="logical" name="ODDONLYGW"> F  </i>
   <i type="logical" name="EVENONLYGW"> F  </i>
   <i type="int" name="NKREDLFX">     1</i>
   <i type="int" name="NKREDLFY">     1</i>
   <i type="int" name="NKREDLFZ">     1</i>
   <i type="int" name="MAXMEM">  2800</i>
   <i type="int" name="TELESCOPE">     0</i>
   <i type="int" name="NTAUPAR">    -1</i>
   <i type="int" name="NOMEGAPAR">    -1</i>
   <i name="DAMP_NEWTON">      0.80000001</i>
   <i name="LAMBDA">      1.00000000</i>
  </separator>
  <separator name="External order field" >
   <i name="OFIELD_KAPPA">      0.00000000</i>
   <v name="OFIELD_K">      0.00000000      0.00000000      0.00000000</v>
   <i name="OFIELD_Q6_NEAR">      0.00000000</i>
   <i name="OFIELD_Q6_FAR">      0.00000000</i>
   <i name="OFIELD_A">      0.00000000</i>
  </separator>
 </parameters>
 <atominfo>
  <atoms>     325 </atoms>
  <types>       5 </types>
  <array name="atoms" >
   <dimension dim="1">ion</dimension>
   <field type="string">element</field>
   <field type="int">atomtype</field>
   <set>
    <rc><c>H </c><c>   1</c></rc>
    <rc><c>H </c><c>   1</c></rc>
    <rc><c>H </c><c>   1</c></rc>
    <rc><c>H </c><c>   1</c></rc>
    <rc><c>H </c><c>   1</c></rc>
    <rc><c>H </c><c>   1</c></rc>
    <rc><c>H </c><c>   1</c></rc>
    <rc><c>H </c><c>   1</c></rc>
    <rc><c>H </c><c>   1</c></rc>
    <rc><c>H </c><c>   1</c></rc>
    <rc><c>H </c><c>   1</c></rc>
    <rc><c>H </c><c>   1</c></rc>
    <rc><c>H </c><c>   1</c></rc>
    <rc><c>H </c><c>   1</c></rc>
    <rc><c>H </c><c>   1</c></rc>
    <rc><c>H </c><c>   1</c></rc>
    <rc><c>H </c><c>   1</c></rc>
    <rc><c>H </c><c>   1</c></rc>
    <rc><c>H </c><c>   1</c></rc>
    <rc><c>H </c><c>   1</c></rc>
    <rc><c>H </c><c>   1</c></rc>
    <rc><c>H </c><c>   1</c></rc>
    <rc><c>H </c><c>   1</c></rc>
    <rc><c>H </c><c>   1</c></rc>
    <rc><c>H </c><c>   1</c></rc>
    <rc><c>H </c><c>   1</c></rc>
    <rc><c>H </c><c>   1</c></rc>
    <rc><c>H </c><c>   1</c></rc>
    <rc><c>H </c><c>   1</c></rc>
    <rc><c>H </c><c>   1</c></rc>
    <rc><c>H </c><c>   1</c></rc>
    <rc><c>H </c><c>   1</c></rc>
    <rc><c>H </c><c>   1</c></rc>
    <rc><c>H </c><c>   1</c></rc>
    <rc><c>H </c><c>   1</c></rc>
    <rc><c>H </c><c>   1</c></rc>
    <rc><c>H </c><c>   1</c></rc>
    <rc><c>H </c><c>   1</c></rc>
    <rc><c>H </c><c>   1</c></rc>
    <rc><c>H </c><c>   1</c></rc>
    <rc><c>H </c><c>   1</c></rc>
    <rc><c>H </c><c>   1</c></rc>
    <rc><c>H </c><c>   1</c></rc>
    <rc><c>H </c><c>   1</c></rc>
    <rc><c>H </c><c>   1</c></rc>
    <rc><c>H </c><c>   1</c></rc>
    <rc><c>H </c><c>   1</c></rc>
    <rc><c>H </c><c>   1</c></rc>
    <rc><c>H </c><c>   1</c></rc>
    <rc><c>H </c><c>   1</c></rc>
    <rc><c>H </c><c>   1</c></rc>
    <rc><c>H </c><c>   1</c></rc>
    <rc><c>H </c><c>   1</c></rc>
    <rc><c>H </c><c>   1</c></rc>
    <rc><c>H </c><c>   1</c></rc>
    <rc><c>H </c><c>   1</c></rc>
    <rc><c>H </c><c>   1</c></rc>
    <rc><c>H </c><c>   1</c></rc>
    <rc><c>H </c><c>   1</c></rc>
    <rc><c>H </c><c>   1</c></rc>
    <rc><c>H </c><c>   1</c></rc>
    <rc><c>H </c><c>   1</c></rc>
    <rc><c>H </c><c>   1</c></rc>
    <rc><c>H </c><c>   1</c></rc>
    <rc><c>H </c><c>   1</c></rc>
    <rc><c>H </c><c>   1</c></rc>
    <rc><c>H </c><c>   1</c></rc>
    <rc><c>H </c><c>   1</c></rc>
    <rc><c>H </c><c>   1</c></rc>
    <rc><c>H </c><c>   1</c></rc>
    <rc><c>H </c><c>   1</c></rc>
    <rc><c>H </c><c>   1</c></rc>
    <rc><c>H </c><c>   1</c></rc>
    <rc><c>H </c><c>   1</c></rc>
    <rc><c>H </c><c>   1</c></rc>
    <rc><c>H </c><c>   1</c></rc>
    <rc><c>H </c><c>   1</c></rc>
    <rc><c>H </c><c>   1</c></rc>
    <rc><c>H </c><c>   1</c></rc>
    <rc><c>H </c><c>   1</c></rc>
    <rc><c>H </c><c>   1</c></rc>
    <rc><c>H </c><c>   1</c></rc>
    <rc><c>H </c><c>   1</c></rc>
    <rc><c>H </c><c>   1</c></rc>
    <rc><c>H </c><c>   1</c></rc>
    <rc><c>H </c><c>   1</c></rc>
    <rc><c>H </c><c>   1</c></rc>
    <rc><c>H </c><c>   1</c></rc>
    <rc><c>H </c><c>   1</c></rc>
    <rc><c>H </c><c>   1</c></rc>
    <rc><c>H </c><c>   1</c></rc>
    <rc><c>H </c><c>   1</c></rc>
    <rc><c>H </c><c>   1</c></rc>
    <rc><c>H </c><c>   1</c></rc>
    <rc><c>H </c><c>   1</c></rc>
    <rc><c>H </c><c>   1</c></rc>
    <rc><c>H </c><c>   1</c></rc>
    <rc><c>H </c><c>   1</c></rc>
    <rc><c>H </c><c>   1</c></rc>
    <rc><c>H </c><c>   1</c></rc>
    <rc><c>H </c><c>   1</c></rc>
    <rc><c>H </c><c>   1</c></rc>
    <rc><c>H </c><c>   1</c></rc>
    <rc><c>H </c><c>   1</c></rc>
    <rc><c>H </c><c>   1</c></rc>
    <rc><c>H </c><c>   1</c></rc>
    <rc><c>H </c><c>   1</c></rc>
    <rc><c>H </c><c>   1</c></rc>
    <rc><c>H </c><c>   1</c></rc>
    <rc><c>H </c><c>   1</c></rc>
    <rc><c>H </c><c>   1</c></rc>
    <rc><c>H </c><c>   1</c></rc>
    <rc><c>H </c><c>   1</c></rc>
    <rc><c>H </c><c>   1</c></rc>
    <rc><c>H </c><c>   1</c></rc>
    <rc><c>H </c><c>   1</c></rc>
    <rc><c>H </c><c>   1</c></rc>
    <rc><c>H </c><c>   1</c></rc>
    <rc><c>H </c><c>   1</c></rc>
    <rc><c>H </c><c>   1</c></rc>
    <rc><c>H </c><c>   1</c></rc>
    <rc><c>H </c><c>   1</c></rc>
    <rc><c>H </c><c>   1</c></rc>
    <rc><c>H </c><c>   1</c></rc>
    <rc><c>H </c><c>   1</c></rc>
    <rc><c>H </c><c>   1</c></rc>
    <rc><c>H </c><c>   1</c></rc>
    <rc><c>H </c><c>   1</c></rc>
    <rc><c>H </c><c>   1</c></rc>
    <rc><c>H </c><c>   1</c></rc>
    <rc><c>H </c><c>   1</c></rc>
    <rc><c>H </c><c>   1</c></rc>
    <rc><c>H </c><c>   1</c></rc>
    <rc><c>H </c><c>   1</c></rc>
    <rc><c>H </c><c>   1</c></rc>
    <rc><c>H </c><c>   1</c></rc>
    <rc><c>H </c><c>   1</c></rc>
    <rc><c>H </c><c>   1</c></rc>
    <rc><c>H </c><c>   1</c></rc>
    <rc><c>H </c><c>   1</c></rc>
    <rc><c>H </c><c>   1</c></rc>
    <rc><c>H </c><c>   1</c></rc>
    <rc><c>H </c><c>   1</c></rc>
    <rc><c>C </c><c>   2</c></rc>
    <rc><c>C </c><c>   2</c></rc>
    <rc><c>C </c><c>   2</c></rc>
    <rc><c>C </c><c>   2</c></rc>
    <rc><c>C </c><c>   2</c></rc>
    <rc><c>C </c><c>   2</c></rc>
    <rc><c>C </c><c>   2</c></rc>
    <rc><c>C </c><c>   2</c></rc>
    <rc><c>C </c><c>   2</c></rc>
    <rc><c>C </c><c>   2</c></rc>
    <rc><c>C </c><c>   2</c></rc>
    <rc><c>C </c><c>   2</c></rc>
    <rc><c>C </c><c>   2</c></rc>
    <rc><c>C </c><c>   2</c></rc>
    <rc><c>C </c><c>   2</c></rc>
    <rc><c>C </c><c>   2</c></rc>
    <rc><c>C </c><c>   2</c></rc>
    <rc><c>C </c><c>   2</c></rc>
    <rc><c>C </c><c>   2</c></rc>
    <rc><c>C </c><c>   2</c></rc>
    <rc><c>C </c><c>   2</c></rc>
    <rc><c>C </c><c>   2</c></rc>
    <rc><c>C </c><c>   2</c></rc>
    <rc><c>C </c><c>   2</c></rc>
    <rc><c>C </c><c>   2</c></rc>
    <rc><c>C </c><c>   2</c></rc>
    <rc><c>C </c><c>   2</c></rc>
    <rc><c>C </c><c>   2</c></rc>
    <rc><c>C </c><c>   2</c></rc>
    <rc><c>C </c><c>   2</c></rc>
    <rc><c>C </c><c>   2</c></rc>
    <rc><c>C </c><c>   2</c></rc>
    <rc><c>C </c><c>   2</c></rc>
    <rc><c>C </c><c>   2</c></rc>
    <rc><c>C </c><c>   2</c></rc>
    <rc><c>C </c><c>   2</c></rc>
    <rc><c>C </c><c>   2</c></rc>
    <rc><c>C </c><c>   2</c></rc>
    <rc><c>C </c><c>   2</c></rc>
    <rc><c>N </c><c>   3</c></rc>
    <rc><c>N </c><c>   3</c></rc>
    <rc><c>N </c><c>   3</c></rc>
    <rc><c>N </c><c>   3</c></rc>
    <rc><c>N </c><c>   3</c></rc>
    <rc><c>N </c><c>   3</c></rc>
    <rc><c>N </c><c>   3</c></rc>
    <rc><c>N </c><c>   3</c></rc>
    <rc><c>N </c><c>   3</c></rc>
    <rc><c>N </c><c>   3</c></rc>
    <rc><c>N </c><c>   3</c></rc>
    <rc><c>N </c><c>   3</c></rc>
    <rc><c>N </c><c>   3</c></rc>
    <rc><c>N </c><c>   3</c></rc>
    <rc><c>N </c><c>   3</c></rc>
    <rc><c>N </c><c>   3</c></rc>
    <rc><c>N </c><c>   3</c></rc>
    <rc><c>N </c><c>   3</c></rc>
    <rc><c>N </c><c>   3</c></rc>
    <rc><c>N </c><c>   3</c></rc>
    <rc><c>N </c><c>   3</c></rc>
    <rc><c>N </c><c>   3</c></rc>
    <rc><c>N </c><c>   3</c></rc>
    <rc><c>N </c><c>   3</c></rc>
    <rc><c>N </c><c>   3</c></rc>
    <rc><c>N </c><c>   3</c></rc>
    <rc><c>N </c><c>   3</c></rc>
    <rc><c>N </c><c>   3</c></rc>
    <rc><c>N </c><c>   3</c></rc>
    <rc><c>N </c><c>   3</c></rc>
    <rc><c>N </c><c>   3</c></rc>
    <rc><c>N </c><c>   3</c></rc>
    <rc><c>N </c><c>   3</c></rc>
    <rc><c>N </c><c>   3</c></rc>
    <rc><c>N </c><c>   3</c></rc>
    <rc><c>N </c><c>   3</c></rc>
    <rc><c>N </c><c>   3</c></rc>
    <rc><c>N </c><c>   3</c></rc>
    <rc><c>N </c><c>   3</c></rc>
    <rc><c>N </c><c>   3</c></rc>
    <rc><c>N </c><c>   3</c></rc>
    <rc><c>N </c><c>   3</c></rc>
    <rc><c>N </c><c>   3</c></rc>
    <rc><c>N </c><c>   3</c></rc>
    <rc><c>N </c><c>   3</c></rc>
    <rc><c>N </c><c>   3</c></rc>
    <rc><c>N </c><c>   3</c></rc>
    <rc><c>I </c><c>   4</c></rc>
    <rc><c>I </c><c>   4</c></rc>
    <rc><c>I </c><c>   4</c></rc>
    <rc><c>I </c><c>   4</c></rc>
    <rc><c>I </c><c>   4</c></rc>
    <rc><c>I </c><c>   4</c></rc>
    <rc><c>I </c><c>   4</c></rc>
    <rc><c>I </c><c>   4</c></rc>
    <rc><c>I </c><c>   4</c></rc>
    <rc><c>I </c><c>   4</c></rc>
    <rc><c>I </c><c>   4</c></rc>
    <rc><c>I </c><c>   4</c></rc>
    <rc><c>I </c><c>   4</c></rc>
    <rc><c>I </c><c>   4</c></rc>
    <rc><c>I </c><c>   4</c></rc>
    <rc><c>I </c><c>   4</c></rc>
    <rc><c>I </c><c>   4</c></rc>
    <rc><c>I </c><c>   4</c></rc>
    <rc><c>I </c><c>   4</c></rc>
    <rc><c>I </c><c>   4</c></rc>
    <rc><c>I </c><c>   4</c></rc>
    <rc><c>I </c><c>   4</c></rc>
    <rc><c>I </c><c>   4</c></rc>
    <rc><c>I </c><c>   4</c></rc>
    <rc><c>I </c><c>   4</c></rc>
    <rc><c>I </c><c>   4</c></rc>
    <rc><c>I </c><c>   4</c></rc>
    <rc><c>I </c><c>   4</c></rc>
    <rc><c>I </c><c>   4</c></rc>
    <rc><c>I </c><c>   4</c></rc>
    <rc><c>I </c><c>   4</c></rc>
    <rc><c>I </c><c>   4</c></rc>
    <rc><c>I </c><c>   4</c></rc>
    <rc><c>I </c><c>   4</c></rc>
    <rc><c>I </c><c>   4</c></rc>
    <rc><c>I </c><c>   4</c></rc>
    <rc><c>I </c><c>   4</c></rc>
    <rc><c>I </c><c>   4</c></rc>
    <rc><c>I </c><c>   4</c></rc>
    <rc><c>I </c><c>   4</c></rc>
    <rc><c>I </c><c>   4</c></rc>
    <rc><c>I </c><c>   4</c></rc>
    <rc><c>I </c><c>   4</c></rc>
    <rc><c>I </c><c>   4</c></rc>
    <rc><c>I </c><c>   4</c></rc>
    <rc><c>I </c><c>   4</c></rc>
    <rc><c>I </c><c>   4</c></rc>
    <rc><c>I </c><c>   4</c></rc>
    <rc><c>I </c><c>   4</c></rc>
    <rc><c>I </c><c>   4</c></rc>
    <rc><c>I </c><c>   4</c></rc>
    <rc><c>I </c><c>   4</c></rc>
    <rc><c>I </c><c>   4</c></rc>
    <rc><c>I </c><c>   4</c></rc>
    <rc><c>I </c><c>   4</c></rc>
    <rc><c>I </c><c>   4</c></rc>
    <rc><c>I </c><c>   4</c></rc>
    <rc><c>I </c><c>   4</c></rc>
    <rc><c>I </c><c>   4</c></rc>
    <rc><c>I </c><c>   4</c></rc>
    <rc><c>I </c><c>   4</c></rc>
    <rc><c>I </c><c>   4</c></rc>
    <rc><c>I </c><c>   4</c></rc>
    <rc><c>I </c><c>   4</c></rc>
    <rc><c>I </c><c>   4</c></rc>
    <rc><c>I </c><c>   4</c></rc>
    <rc><c>I </c><c>   4</c></rc>
    <rc><c>I </c><c>   4</c></rc>
    <rc><c>I </c><c>   4</c></rc>
    <rc><c>I </c><c>   4</c></rc>
    <rc><c>I </c><c>   4</c></rc>
    <rc><c>I </c><c>   4</c></rc>
    <rc><c>Pb</c><c>   5</c></rc>
    <rc><c>Pb</c><c>   5</c></rc>
    <rc><c>Pb</c><c>   5</c></rc>
    <rc><c>Pb</c><c>   5</c></rc>
    <rc><c>Pb</c><c>   5</c></rc>
    <rc><c>Pb</c><c>   5</c></rc>
    <rc><c>Pb</c><c>   5</c></rc>
    <rc><c>Pb</c><c>   5</c></rc>
    <rc><c>Pb</c><c>   5</c></rc>
    <rc><c>Pb</c><c>   5</c></rc>
    <rc><c>Pb</c><c>   5</c></rc>
    <rc><c>Pb</c><c>   5</c></rc>
    <rc><c>Pb</c><c>   5</c></rc>
    <rc><c>Pb</c><c>   5</c></rc>
    <rc><c>Pb</c><c>   5</c></rc>
    <rc><c>Pb</c><c>   5</c></rc>
    <rc><c>Pb</c><c>   5</c></rc>
    <rc><c>Pb</c><c>   5</c></rc>
    <rc><c>Pb</c><c>   5</c></rc>
    <rc><c>Pb</c><c>   5</c></rc>
    <rc><c>Pb</c><c>   5</c></rc>
    <rc><c>Pb</c><c>   5</c></rc>
    <rc><c>Pb</c><c>   5</c></rc>
    <rc><c>Pb</c><c>   5</c></rc>
   </set>
  </array>
  <array name="atomtypes" >
   <dimension dim="1">type</dimension>
   <field type="int">atomspertype</field>
   <field type="string">element</field>
   <field>mass</field>
   <field>valence</field>
   <field type="string">pseudopotential</field>
   <set>
    <rc><c> 143</c><c>H </c><c>      1.00000000</c><c>      1.00000000</c><c>  PAW_PBE H 15Jun2001                   </c></rc>
    <rc><c>  39</c><c>C </c><c>     12.01100000</c><c>      4.00000000</c><c>  PAW_PBE C 08Apr2002                   </c></rc>
    <rc><c>  47</c><c>N </c><c>     14.00100000</c><c>      5.00000000</c><c>  PAW_PBE N 08Apr2002                   </c></rc>
    <rc><c>  72</c><c>I </c><c>    126.90400000</c><c>      7.00000000</c><c>  PAW_PBE I 08Apr2002                   </c></rc>
    <rc><c>  24</c><c>Pb</c><c>    207.20000000</c><c>      4.00000000</c><c>  PAW_PBE Pb 08Apr2002                  </c></rc>
   </set>
  </array>
 </atominfo>
 <structure name="initialpos" >
  <crystal>
   <varray name="basis" >
    <v>      18.06080055       0.00000000       0.00000000 </v>
    <v>      -0.00491865      18.06279945       0.00000000 </v>
    <v>       0.00000000       0.00000000      62.48749924 </v>
   </varray>
   <i name="volume">  20385.21054034 </i>
   <varray name="rec_basis" >
    <v>       0.05536853       0.00001508      -0.00000000 </v>
    <v>       0.00000000       0.05536240       0.00000000 </v>
    <v>       0.00000000      -0.00000000       0.01600320 </v>
   </varray>
  </crystal>
  <varray name="positions" >
   <v>       0.45212574       0.33494409       0.56464132 </v>
   <v>       0.43017682       0.83024192       0.56927738 </v>
   <v>       0.96083598       0.32864624       0.57624099 </v>
   <v>       0.94533570       0.81525492       0.57325064 </v>
   <v>       0.33115234       0.95490240       0.57267832 </v>
   <v>       0.35267107       0.54845969       0.55869085 </v>
   <v>       0.80613027       0.08790858       0.56564915 </v>
   <v>       0.01041139       0.14311578       0.55985746 </v>
   <v>       0.07118363       0.66042820       0.56954476 </v>
   <v>       0.55310064       0.16140258       0.55732955 </v>
   <v>       0.49630929       0.64465715       0.55968097 </v>
   <v>       0.36322664       0.02741862       0.55682603 </v>
   <v>       0.29746317       0.62796732       0.55355261 </v>
   <v>       0.87794899       0.02543241       0.55824740 </v>
   <v>       0.95481062       0.19235016       0.57794476 </v>
   <v>       0.99202127       0.68981740       0.58298837 </v>
   <v>       0.56597333       0.25165537       0.56710708 </v>
   <v>       0.43335232       0.69432068       0.57502566 </v>
   <v>       0.28027688       0.43756416       0.57216431 </v>
   <v>       0.19833913       0.92765692       0.57214068 </v>
   <v>       0.68049091       0.03255635       0.56974201 </v>
   <v>       0.37226449       0.29128720       0.55451893 </v>
   <v>       0.49787447       0.86948360       0.55279086 </v>
   <v>       0.01838745       0.36872567       0.55706802 </v>
   <v>       0.99446309       0.86539162       0.55429306 </v>
   <v>       0.18456358       0.44258239       0.56837931 </v>
   <v>       0.13944056       0.99036530       0.55920743 </v>
   <v>       0.67264807       0.93817939       0.56273523 </v>
   <v>       0.43208950       0.18082976       0.54779267 </v>
   <v>       0.54738446       0.75221478       0.54402263 </v>
   <v>       0.06203673       0.25189391       0.54538991 </v>
   <v>       0.08362362       0.77018036       0.55015881 </v>
   <v>       0.18665455       0.56209485       0.55637794 </v>
   <v>       0.24082985       0.06379355       0.54746533 </v>
   <v>       0.79575680       0.92602147       0.55505389 </v>
   <v>       0.48582827       0.33951072       0.66177799 </v>
   <v>       0.44977945       0.81143385       0.67347473 </v>
   <v>       0.96536175       0.28350893       0.67653900 </v>
   <v>       0.92966880       0.72475153       0.67298873 </v>
   <v>       0.30909050       0.05623511       0.66985383 </v>
   <v>       0.29788531       0.54827669       0.67516593 </v>
   <v>       0.80078094       0.05606713       0.67446876 </v>
   <v>       0.75979724       0.59772881       0.65726849 </v>
   <v>       0.08583804       0.16268712       0.64476147 </v>
   <v>       0.11563700       0.71953855       0.65067781 </v>
   <v>       0.57159112       0.16040683       0.65170426 </v>
   <v>       0.56382379       0.66285583       0.65062360 </v>
   <v>       0.17755947       0.41378180       0.64789283 </v>
   <v>       0.17360945       0.92011015       0.65040200 </v>
   <v>       0.69957361       0.40568651       0.66055772 </v>
   <v>       0.67404522       0.92102962       0.65028680 </v>
   <v>       0.06289857       0.18111117       0.67147042 </v>
   <v>       0.05899599       0.67543024       0.66920264 </v>
   <v>       0.59451919       0.24992400       0.65936040 </v>
   <v>       0.53240669       0.69447854       0.67557030 </v>
   <v>       0.19905107       0.44338365       0.67379010 </v>
   <v>       0.20764901       0.95512761       0.67441309 </v>
   <v>       0.66549278       0.49566684       0.66305663 </v>
   <v>       0.69767791       0.95782062       0.67525896 </v>
   <v>       0.39848784       0.30020798       0.65715390 </v>
   <v>       0.43615472       0.84464709       0.64772129 </v>
   <v>       0.93680316       0.32564464       0.65280482 </v>
   <v>       0.90453353       0.79522363       0.65562833 </v>
   <v>       0.33080437       0.07620613       0.64326294 </v>
   <v>       0.32948641       0.57697435       0.65018595 </v>
   <v>       0.83446158       0.07622489       0.64889059 </v>
   <v>       0.84783285       0.56868036       0.65070339 </v>
   <v>       0.00942406       0.25290158       0.63116512 </v>
   <v>       0.02227159       0.80044316       0.63959222 </v>
   <v>       0.44597008       0.18374773       0.64940052 </v>
   <v>       0.50648958       0.75412817       0.63149783 </v>
   <v>       0.24755953       0.99275636       0.62932607 </v>
   <v>       0.25817753       0.49404247       0.63144319 </v>
   <v>       0.75847725       0.99161029       0.63189586 </v>
   <v>       0.81856644       0.44343154       0.65179364 </v>
   <v>       0.44874502       0.30128397       0.76888902 </v>
   <v>       0.44874501       0.80128391       0.76888902 </v>
   <v>       0.94874497       0.30128397       0.76888902 </v>
   <v>       0.94874501       0.80128391       0.76888902 </v>
   <v>       0.30127600       0.05129450       0.76887296 </v>
   <v>       0.30127601       0.55129450       0.76887296 </v>
   <v>       0.80127594       0.05129450       0.76887296 </v>
   <v>       0.80127598       0.55129450       0.76887296 </v>
   <v>       0.07877100       0.17118050       0.74344197 </v>
   <v>       0.07877101       0.67118045       0.74344197 </v>
   <v>       0.57877100       0.17118050       0.74344197 </v>
   <v>       0.57877099       0.67118045       0.74344197 </v>
   <v>       0.17119950       0.42117448       0.74342103 </v>
   <v>       0.17119950       0.92117451       0.74342103 </v>
   <v>       0.67119951       0.42117448       0.74342103 </v>
   <v>       0.67119950       0.92117451       0.74342103 </v>
   <v>       0.05125600       0.19871499       0.76888902 </v>
   <v>       0.05125600       0.69871493       0.76888902 </v>
   <v>       0.55125603       0.19871499       0.76888902 </v>
   <v>       0.55125602       0.69871493       0.76888902 </v>
   <v>       0.19872349       0.44870397       0.76887205 </v>
   <v>       0.19872349       0.94870397       0.76887205 </v>
   <v>       0.69872352       0.44870397       0.76887205 </v>
   <v>       0.69872351       0.94870397       0.76887205 </v>
   <v>       0.42123152       0.32881747       0.74344197 </v>
   <v>       0.42123151       0.82881744       0.74344197 </v>
   <v>       0.92123147       0.32881747       0.74344197 </v>
   <v>       0.92123151       0.82881744       0.74344197 </v>
   <v>       0.32880050       0.07882500       0.74342103 </v>
   <v>       0.32880049       0.57882496       0.74342103 </v>
   <v>       0.82880048       0.07882500       0.74342103 </v>
   <v>       0.82880052       0.57882496       0.74342103 </v>
   <v>       0.00000350       0.25000148       0.72582199 </v>
   <v>       0.00000350       0.75000145       0.72582199 </v>
   <v>       0.50000351       0.25000148       0.72582199 </v>
   <v>       0.50000350       0.75000145       0.72582199 </v>
   <v>       0.25000050       0.00000000       0.72580398 </v>
   <v>       0.25000052       0.50000000       0.72580398 </v>
   <v>       0.75000050       0.00000000       0.72580398 </v>
   <v>       0.75000049       0.50000000       0.72580398 </v>
   <v>       0.77619745       0.55704111       0.51964758 </v>
   <v>       0.71956858       0.47864243       0.52480675 </v>
   <v>       0.86844351       0.50105210       0.53877408 </v>
   <v>       0.85880896       0.48139625       0.56630412 </v>
   <v>       0.74476938       0.64164098       0.56015409 </v>
   <v>       0.81186529       0.59636869       0.57607433 </v>
   <v>       0.66643858       0.54758324       0.56907818 </v>
   <v>       0.68020948       0.45409604       0.56041659 </v>
   <v>       0.61734312       0.55807378       0.53709742 </v>
   <v>       0.67337807       0.63848822       0.53505923 </v>
   <v>       0.60652315       0.64571791       0.50372789 </v>
   <v>       0.68689766       0.60255838       0.49431246 </v>
   <v>       0.78590598       0.38976647       0.53013417 </v>
   <v>       0.77889909       0.37189284       0.55776549 </v>
   <v>       0.86558407       0.36757077       0.54496050 </v>
   <v>       0.86326252       0.69604949       0.55328486 </v>
   <v>       0.84140053       0.64699097       0.52971697 </v>
   <v>       0.90707842       0.60954605       0.54826567 </v>
   <v>       0.76955752       0.52839466       0.59704215 </v>
   <v>       0.77298908       0.43362722       0.58911099 </v>
   <v>       0.69109733       0.47085546       0.60007858 </v>
   <v>       0.53673244       0.52899819       0.50439050 </v>
   <v>       0.57488783       0.54653832       0.47869938 </v>
   <v>       0.70069541       0.48011586       0.46967704 </v>
   <v>       0.55707223       0.41487946       0.52107969 </v>
   <v>       0.76447196       0.35873109       0.47157201 </v>
   <v>       0.62094496       0.29324335       0.52338093 </v>
   <v>       0.72622301       0.26522512       0.49891977 </v>
   <v>       0.01861356       0.25514152       0.55754139 </v>
   <v>       0.03614680       0.76247343       0.56086609 </v>
   <v>       0.46359295       0.22702215       0.55459884 </v>
   <v>       0.49979166       0.75645814       0.55478681 </v>
   <v>       0.23938992       0.53473798       0.55977053 </v>
   <v>       0.25033637       0.01369388       0.55693708 </v>
   <v>       0.77577158       0.98038125       0.56007693 </v>
   <v>       0.01110148       0.24424608       0.64851484 </v>
   <v>       0.01048044       0.76003011       0.65226376 </v>
   <v>       0.48352080       0.22877854       0.65393194 </v>
   <v>       0.50018526       0.75372638       0.64885170 </v>
   <v>       0.25396324       0.49524889       0.64888717 </v>
   <v>       0.25209375       0.99799654       0.64670619 </v>
   <v>       0.77555017       0.48485656       0.65526277 </v>
   <v>       0.75460736       0.99793293       0.64927250 </v>
   <v>       0.49998898       0.24999498       0.74327702 </v>
   <v>       0.49998903       0.74999496       0.74327702 </v>
   <v>       0.99998898       0.24999498       0.74327702 </v>
   <v>       0.99998903       0.74999496       0.74327702 </v>
   <v>       0.25000050       0.00000100       0.74325596 </v>
   <v>       0.25000052       0.50000100       0.74325596 </v>
   <v>       0.75000050       0.00000100       0.74325596 </v>
   <v>       0.75000049       0.50000100       0.74325596 </v>
   <v>       0.62489753       0.45634169       0.49543830 </v>
   <v>       0.68354564       0.43911279       0.48159874 </v>
   <v>       0.60285335       0.40219310       0.51026518 </v>
   <v>       0.71921368       0.37078818       0.48258841 </v>
   <v>       0.63887835       0.33369220       0.51149027 </v>
   <v>       0.69752996       0.31808921       0.49768084 </v>
   <v>       0.73170501       0.53546670       0.52975501 </v>
   <v>       0.83096312       0.47752513       0.55075335 </v>
   <v>       0.79304379       0.60514177       0.55960772 </v>
   <v>       0.70690842       0.50255256       0.56773044 </v>
   <v>       0.66297912       0.58330881       0.52799928 </v>
   <v>       0.63827831       0.59416053       0.50458872 </v>
   <v>       0.81312368       0.39793122       0.54558709 </v>
   <v>       0.85489938       0.64016850       0.54676512 </v>
   <v>       0.73799779       0.48320495       0.58948442 </v>
   <v>       0.58932874       0.53174404       0.49533204 </v>
   <v>       0.99382924       0.19338881       0.56577637 </v>
   <v>       0.03289569       0.70084352       0.57186981 </v>
   <v>       0.53373735       0.21446030       0.55891361 </v>
   <v>       0.47324500       0.69500773       0.56322209 </v>
   <v>       0.42838993       0.29000815       0.55741123 </v>
   <v>       0.47209019       0.82278425       0.55842914 </v>
   <v>       0.99527240       0.32110346       0.56312917 </v>
   <v>       0.98558861       0.81500139       0.56162039 </v>
   <v>       0.23578267       0.46485093       0.56568803 </v>
   <v>       0.19284752       0.97402850       0.56281319 </v>
   <v>       0.70443048       0.98572920       0.56372304 </v>
   <v>       0.31865855       0.99689677       0.56215449 </v>
   <v>       0.30100754       0.57228275       0.55730550 </v>
   <v>       0.82344747       0.03463831       0.56238336 </v>
   <v>       0.05553139       0.19241650       0.65554872 </v>
   <v>       0.06380167       0.71356481       0.65723821 </v>
   <v>       0.55453613       0.21246746       0.65529269 </v>
   <v>       0.53356451       0.70028735       0.65928812 </v>
   <v>       0.20721451       0.44855656       0.65775131 </v>
   <v>       0.20871899       0.95587486       0.65821124 </v>
   <v>       0.70844693       0.46134284       0.65928732 </v>
   <v>       0.70628614       0.95657944       0.65923122 </v>
   <v>       0.45489871       0.29436039       0.65777518 </v>
   <v>       0.46028845       0.80653206       0.65749680 </v>
   <v>       0.96860922       0.28661436       0.66022983 </v>
   <v>       0.94476261       0.76083380       0.66111972 </v>
   <v>       0.30063641       0.04605670       0.65405300 </v>
   <v>       0.29614589       0.54231567       0.65904765 </v>
   <v>       0.79905644       0.04660846       0.65838107 </v>
   <v>       0.79571916       0.55500354       0.65505491 </v>
   <v>       0.04586250       0.20411950       0.75272599 </v>
   <v>       0.04586250       0.70411946       0.75272599 </v>
   <v>       0.54586251       0.20411950       0.75272599 </v>
   <v>       0.54586250       0.70411946       0.75272599 </v>
   <v>       0.20411900       0.45410100       0.75270499 </v>
   <v>       0.20411899       0.95410095       0.75270499 </v>
   <v>       0.70411898       0.45410100       0.75270499 </v>
   <v>       0.70411896       0.95410095       0.75270499 </v>
   <v>       0.45414002       0.29588849       0.75272697 </v>
   <v>       0.45414001       0.79588852       0.75272697 </v>
   <v>       0.95414002       0.29588849       0.75272697 </v>
[...]
   <v>       0.55310064       0.16140258       0.55732955 </v>
   <v>       0.49630929       0.64465715       0.55968097 </v>
   <v>       0.36322664       0.02741862       0.55682603 </v>
   <v>       0.29746317       0.62796732       0.55355261 </v>
   <v>       0.87794899       0.02543241       0.55824740 </v>
   <v>       0.95481062       0.19235016       0.57794476 </v>
   <v>       0.99202127       0.68981740       0.58298837 </v>
   <v>       0.56597333       0.25165537       0.56710708 </v>
   <v>       0.43335232       0.69432068       0.57502566 </v>
   <v>       0.28027688       0.43756416       0.57216431 </v>
   <v>       0.19833913       0.92765692       0.57214068 </v>
   <v>       0.68049091       0.03255635       0.56974201 </v>
   <v>       0.37226449       0.29128720       0.55451893 </v>
   <v>       0.49787447       0.86948360       0.55279086 </v>
   <v>       0.01838745       0.36872567       0.55706802 </v>
   <v>       0.99446309       0.86539162       0.55429306 </v>
   <v>       0.18456358       0.44258239       0.56837931 </v>
   <v>       0.13944056       0.99036530       0.55920743 </v>
   <v>       0.67264807       0.93817939       0.56273523 </v>
   <v>       0.43208950       0.18082976       0.54779267 </v>
   <v>       0.54738446       0.75221478       0.54402263 </v>
   <v>       0.06203673       0.25189391       0.54538991 </v>
   <v>       0.08362362       0.77018036       0.55015881 </v>
   <v>       0.18665455       0.56209485       0.55637794 </v>
   <v>       0.24082985       0.06379355       0.54746533 </v>
   <v>       0.79575680       0.92602147       0.55505389 </v>
   <v>       0.48582827       0.33951072       0.66177799 </v>
   <v>       0.44977945       0.81143385       0.67347473 </v>
   <v>       0.96536175       0.28350893       0.67653900 </v>
   <v>       0.92966880       0.72475153       0.67298873 </v>
   <v>       0.30909050       0.05623511       0.66985383 </v>
   <v>       0.29788531       0.54827669       0.67516593 </v>
   <v>       0.80078094       0.05606713       0.67446876 </v>
   <v>       0.75979724       0.59772881       0.65726849 </v>
   <v>       0.08583804       0.16268712       0.64476147 </v>
   <v>       0.11563700       0.71953855       0.65067781 </v>
   <v>       0.57159112       0.16040683       0.65170426 </v>
   <v>       0.56382379       0.66285583       0.65062360 </v>
   <v>       0.17755947       0.41378180       0.64789283 </v>
   <v>       0.17360945       0.92011015       0.65040200 </v>
   <v>       0.69957361       0.40568651       0.66055772 </v>
   <v>       0.67404522       0.92102962       0.65028680 </v>
   <v>       0.06289857       0.18111117       0.67147042 </v>
   <v>       0.05899599       0.67543024       0.66920264 </v>
   <v>       0.59451919       0.24992400       0.65936040 </v>
   <v>       0.53240669       0.69447854       0.67557030 </v>
   <v>       0.19905107       0.44338365       0.67379010 </v>
   <v>       0.20764901       0.95512761       0.67441309 </v>
   <v>       0.66549278       0.49566684       0.66305663 </v>
   <v>       0.69767791       0.95782062       0.67525896 </v>
   <v>       0.39848784       0.30020798       0.65715390 </v>
   <v>       0.43615472       0.84464709       0.64772129 </v>
   <v>       0.93680316       0.32564464       0.65280482 </v>
   <v>       0.90453353       0.79522363       0.65562833 </v>
   <v>       0.33080437       0.07620613       0.64326294 </v>
   <v>       0.32948641       0.57697435       0.65018595 </v>
   <v>       0.83446158       0.07622489       0.64889059 </v>
   <v>       0.84783285       0.56868036       0.65070339 </v>
   <v>       0.00942406       0.25290158       0.63116512 </v>
   <v>       0.02227159       0.80044316       0.63959222 </v>
   <v>       0.44597008       0.18374773       0.64940052 </v>
   <v>       0.50648958       0.75412817       0.63149783 </v>
   <v>       0.24755953       0.99275636       0.62932607 </v>
   <v>       0.25817753       0.49404247       0.63144319 </v>
   <v>       0.75847725       0.99161029       0.63189586 </v>
   <v>       0.81856644       0.44343154       0.65179364 </v>
   <v>       0.44874502       0.30128397       0.76888902 </v>
   <v>       0.44874501       0.80128391       0.76888902 </v>
   <v>       0.94874497       0.30128397       0.76888902 </v>
   <v>       0.94874501       0.80128391       0.76888902 </v>
   <v>       0.30127600       0.05129450       0.76887296 </v>
   <v>       0.30127601       0.55129450       0.76887296 </v>
   <v>       0.80127594       0.05129450       0.76887296 </v>
   <v>       0.80127598       0.55129450       0.76887296 </v>
   <v>       0.07877100       0.17118050       0.74344197 </v>
   <v>       0.07877101       0.67118045       0.74344197 </v>
   <v>       0.57877100       0.17118050       0.74344197 </v>
   <v>       0.57877099       0.67118045       0.74344197 </v>
   <v>       0.17119950       0.42117448       0.74342103 </v>
   <v>       0.17119950       0.92117451       0.74342103 </v>
   <v>       0.67119951       0.42117448       0.74342103 </v>
   <v>       0.67119950       0.92117451       0.74342103 </v>
   <v>       0.05125600       0.19871499       0.76888902 </v>
   <v>       0.05125600       0.69871493       0.76888902 </v>
   <v>       0.55125603       0.19871499       0.76888902 </v>
   <v>       0.55125602       0.69871493       0.76888902 </v>
   <v>       0.19872349       0.44870397       0.76887205 </v>
   <v>       0.19872349       0.94870397       0.76887205 </v>
   <v>       0.69872352       0.44870397       0.76887205 </v>
   <v>       0.69872351       0.94870397       0.76887205 </v>
   <v>       0.42123152       0.32881747       0.74344197 </v>
   <v>       0.42123151       0.82881744       0.74344197 </v>
   <v>       0.92123147       0.32881747       0.74344197 </v>
   <v>       0.92123151       0.82881744       0.74344197 </v>
   <v>       0.32880050       0.07882500       0.74342103 </v>
   <v>       0.32880049       0.57882496       0.74342103 </v>
   <v>       0.82880048       0.07882500       0.74342103 </v>
   <v>       0.82880052       0.57882496       0.74342103 </v>
   <v>       0.00000350       0.25000148       0.72582199 </v>
   <v>       0.00000350       0.75000145       0.72582199 </v>
   <v>       0.50000351       0.25000148       0.72582199 </v>
   <v>       0.50000350       0.75000145       0.72582199 </v>
   <v>       0.25000050       0.00000000       0.72580398 </v>
   <v>       0.25000052       0.50000000       0.72580398 </v>
   <v>       0.75000050       0.00000000       0.72580398 </v>
   <v>       0.75000049       0.50000000       0.72580398 </v>
   <v>       0.77619745       0.55704111       0.51964758 </v>
   <v>       0.71956858       0.47864243       0.52480675 </v>
   <v>       0.86844351       0.50105210       0.53877408 </v>
   <v>       0.85880896       0.48139625       0.56630412 </v>
   <v>       0.74476938       0.64164098       0.56015409 </v>
   <v>       0.81186529       0.59636869       0.57607433 </v>
   <v>       0.66643858       0.54758324       0.56907818 </v>
   <v>       0.68020948       0.45409604       0.56041659 </v>
   <v>       0.61734312       0.55807378       0.53709742 </v>
   <v>       0.67337807       0.63848822       0.53505923 </v>
   <v>       0.60652315       0.64571791       0.50372789 </v>
   <v>       0.68689766       0.60255838       0.49431246 </v>
   <v>       0.78590598       0.38976647       0.53013417 </v>
   <v>       0.77889909       0.37189284       0.55776549 </v>
   <v>       0.86558407       0.36757077       0.54496050 </v>
   <v>       0.86326252       0.69604949       0.55328486 </v>
   <v>       0.84140053       0.64699097       0.52971697 </v>
   <v>       0.90707842       0.60954605       0.54826567 </v>
   <v>       0.76955752       0.52839466       0.59704215 </v>
   <v>       0.77298908       0.43362722       0.58911099 </v>
   <v>       0.69109733       0.47085546       0.60007858 </v>
   <v>       0.53673244       0.52899819       0.50439050 </v>
   <v>       0.57488783       0.54653832       0.47869938 </v>
   <v>       0.70069541       0.48011586       0.46967704 </v>
   <v>       0.55707223       0.41487946       0.52107969 </v>
   <v>       0.76447196       0.35873109       0.47157201 </v>
   <v>       0.62094496       0.29324335       0.52338093 </v>
   <v>       0.72622301       0.26522512       0.49891977 </v>
   <v>       0.01861356       0.25514152       0.55754139 </v>
   <v>       0.03614680       0.76247343       0.56086609 </v>
   <v>       0.46359295       0.22702215       0.55459884 </v>
   <v>       0.49979166       0.75645814       0.55478681 </v>
   <v>       0.23938992       0.53473798       0.55977053 </v>
   <v>       0.25033637       0.01369388       0.55693708 </v>
   <v>       0.77577158       0.98038125       0.56007693 </v>
   <v>       0.01110148       0.24424608       0.64851484 </v>
   <v>       0.01048044       0.76003011       0.65226376 </v>
   <v>       0.48352080       0.22877854       0.65393194 </v>
   <v>       0.50018526       0.75372638       0.64885170 </v>
   <v>       0.25396324       0.49524889       0.64888717 </v>
   <v>       0.25209375       0.99799654       0.64670619 </v>
   <v>       0.77555017       0.48485656       0.65526277 </v>
   <v>       0.75460736       0.99793293       0.64927250 </v>
   <v>       0.49998898       0.24999498       0.74327702 </v>
   <v>       0.49998903       0.74999496       0.74327702 </v>
   <v>       0.99998898       0.24999498       0.74327702 </v>
   <v>       0.99998903       0.74999496       0.74327702 </v>
   <v>       0.25000050       0.00000100       0.74325596 </v>
   <v>       0.25000052       0.50000100       0.74325596 </v>
   <v>       0.75000050       0.00000100       0.74325596 </v>
   <v>       0.75000049       0.50000100       0.74325596 </v>
   <v>       0.62489753       0.45634169       0.49543830 </v>
   <v>       0.68354564       0.43911279       0.48159874 </v>
   <v>       0.60285335       0.40219310       0.51026518 </v>
   <v>       0.71921368       0.37078818       0.48258841 </v>
   <v>       0.63887835       0.33369220       0.51149027 </v>
   <v>       0.69752996       0.31808921       0.49768084 </v>
   <v>       0.73170501       0.53546670       0.52975501 </v>
   <v>       0.83096312       0.47752513       0.55075335 </v>
   <v>       0.79304379       0.60514177       0.55960772 </v>
   <v>       0.70690842       0.50255256       0.56773044 </v>
   <v>       0.66297912       0.58330881       0.52799928 </v>
   <v>       0.63827831       0.59416053       0.50458872 </v>
   <v>       0.81312368       0.39793122       0.54558709 </v>
   <v>       0.85489938       0.64016850       0.54676512 </v>
   <v>       0.73799779       0.48320495       0.58948442 </v>
   <v>       0.58932874       0.53174404       0.49533204 </v>
   <v>       0.99382924       0.19338881       0.56577637 </v>
   <v>       0.03289569       0.70084352       0.57186981 </v>
   <v>       0.53373735       0.21446030       0.55891361 </v>
   <v>       0.47324500       0.69500773       0.56322209 </v>
   <v>       0.42838993       0.29000815       0.55741123 </v>
   <v>       0.47209019       0.82278425       0.55842914 </v>
   <v>       0.99527240       0.32110346       0.56312917 </v>
   <v>       0.98558861       0.81500139       0.56162039 </v>
   <v>       0.23578267       0.46485093       0.56568803 </v>
   <v>       0.19284752       0.97402850       0.56281319 </v>
   <v>       0.70443048       0.98572920       0.56372304 </v>
   <v>       0.31865855       0.99689677       0.56215449 </v>
   <v>       0.30100754       0.57228275       0.55730550 </v>
   <v>       0.82344747       0.03463831       0.56238336 </v>
   <v>       0.05553139       0.19241650       0.65554872 </v>
   <v>       0.06380167       0.71356481       0.65723821 </v>
   <v>       0.55453613       0.21246746       0.65529269 </v>
   <v>       0.53356451       0.70028735       0.65928812 </v>
   <v>       0.20721451       0.44855656       0.65775131 </v>
   <v>       0.20871899       0.95587486       0.65821124 </v>
   <v>       0.70844693       0.46134284       0.65928732 </v>
   <v>       0.70628614       0.95657944       0.65923122 </v>
   <v>       0.45489871       0.29436039       0.65777518 </v>
   <v>       0.46028845       0.80653206       0.65749680 </v>
   <v>       0.96860922       0.28661436       0.66022983 </v>
   <v>       0.94476261       0.76083380       0.66111972 </v>
   <v>       0.30063641       0.04605670       0.65405300 </v>
   <v>       0.29614589       0.54231567       0.65904765 </v>
   <v>       0.79905644       0.04660846       0.65838107 </v>
   <v>       0.79571916       0.55500354       0.65505491 </v>
   <v>       0.04586250       0.20411950       0.75272599 </v>
   <v>       0.04586250       0.70411946       0.75272599 </v>
   <v>       0.54586251       0.20411950       0.75272599 </v>
   <v>       0.54586250       0.70411946       0.75272599 </v>
   <v>       0.20411900       0.45410100       0.75270499 </v>
   <v>       0.20411899       0.95410095       0.75270499 </v>
   <v>       0.70411898       0.45410100       0.75270499 </v>
   <v>       0.70411896       0.95410095       0.75270499 </v>
   <v>       0.45414002       0.29588849       0.75272697 </v>
   <v>       0.45414001       0.79588852       0.75272697 </v>
   <v>       0.95414002       0.29588849       0.75272697 </v>
   <v>       0.95414006       0.79588852       0.75272697 </v>
   <v>       0.29588249       0.04590050       0.75270499 </v>
   <v>       0.29588248       0.54590053       0.75270499 </v>
   <v>       0.79588244       0.04590050       0.75270499 </v>
   <v>       0.79588248       0.54590053       0.75270499 </v>
   <v>       0.76534136       0.53031496       0.55192075 </v>
   <v>       0.51269436       0.01790725       0.55171930 </v>
   <v>       0.48035414       0.49584086       0.55487948 </v>
   <v>       0.00895284       0.00530016       0.54843837 </v>
   <v>       0.03842496       0.50602654       0.55328510 </v>
   <v>       0.23647508       0.24207147       0.55215243 </v>
   <v>       0.25653668       0.76583580       0.55356537 </v>
   <v>       0.73737065       0.20287835       0.55473345 </v>
   <v>       0.70167467       0.79211966       0.55422194 </v>
   <v>       0.00092415       0.98299498       0.65359539 </v>
   <v>       0.99614446       0.50550163       0.65487708 </v>
   <v>       0.49903232       0.01180979       0.65410330 </v>
   <v>       0.51034193       0.49048775       0.65516009 </v>
   <v>       0.26057345       0.24629571       0.65422381 </v>
   <v>       0.26004207       0.75382247       0.65462739 </v>
   <v>       0.74869273       0.26412845       0.65452557 </v>
   <v>       0.74500575       0.75108824       0.65461628 </v>
   <v>       0.13579724       0.11225768       0.60715080 </v>
   <v>       0.15167481       0.60389564       0.60824244 </v>
   <v>       0.64817842       0.10468298       0.60979927 </v>
   <v>       0.61615735       0.62859123       0.60955362 </v>
   <v>       0.35995032       0.38661284       0.60485926 </v>
   <v>       0.37443335       0.88006020       0.60644594 </v>
   <v>       0.89052313       0.36483688       0.60964940 </v>
   <v>       0.87057364       0.87651816       0.60475224 </v>
   <v>       0.12371588       0.36826482       0.60955191 </v>
   <v>       0.12329055       0.86502927       0.60727747 </v>
   <v>       0.59232031       0.33761238       0.60133127 </v>
   <v>       0.61725942       0.87155475       0.61255263 </v>
   <v>       0.38590613       0.13415243       0.60409299 </v>
   <v>       0.38565383       0.62864667       0.61104568 </v>
   <v>       0.88693273       0.13304163       0.61056444 </v>
   <v>       0.89656475       0.64422284       0.61069972 </v>
   <v>       0.00000000       0.00000000       0.75492797 </v>
   <v>       0.00000000       0.50000000       0.75492797 </v>
   <v>       0.50000000       0.00000000       0.75492797 </v>
   <v>       0.49999999       0.50000000       0.75492797 </v>
   <v>       0.25000050       0.25000000       0.75493902 </v>
   <v>       0.25000051       0.74999997       0.75493902 </v>
   <v>       0.75000047       0.25000000       0.75493902 </v>
   <v>       0.75000046       0.74999997       0.75493902 </v>
   <v>       0.13579050       0.11421000       0.70478299 </v>
   <v>       0.13579050       0.61420998       0.70478299 </v>
   <v>       0.63579045       0.11421000       0.70478299 </v>
   <v>       0.63579049       0.61420998       0.70478299 </v>
   <v>       0.36420952       0.38578999       0.70478299 </v>
   <v>       0.36420950       0.88578996       0.70478299 </v>
   <v>       0.86420954       0.38578999       0.70478299 </v>
   <v>       0.86420953       0.88578996       0.70478299 </v>
   <v>       0.11421799       0.36421899       0.70478098 </v>
   <v>       0.11421799       0.86421899       0.70478098 </v>
   <v>       0.61421800       0.36421899       0.70478098 </v>
   <v>       0.61421799       0.86421899       0.70478098 </v>
   <v>       0.38578201       0.13578149       0.70478202 </v>
   <v>       0.38578200       0.63578149       0.70478202 </v>
   <v>       0.88578199       0.13578149       0.70478202 </v>
   <v>       0.88578203       0.63578149       0.70478202 </v>
   <v>       0.13466700       0.11533200       0.80125603 </v>
   <v>       0.13466699       0.61533199       0.80125603 </v>
   <v>       0.63466699       0.11533200       0.80125603 </v>
   <v>       0.63466698       0.61533199       0.80125603 </v>
   <v>       0.36533300       0.38466799       0.80125603 </v>
   <v>       0.36533299       0.88466796       0.80125603 </v>
   <v>       0.86533295       0.38466799       0.80125603 </v>
   <v>       0.86533294       0.88466796       0.80125603 </v>
   <v>       0.11532850       0.36533700       0.80126500 </v>
   <v>       0.11532850       0.86533698       0.80126500 </v>
   <v>       0.61532850       0.36533700       0.80126500 </v>
   <v>       0.61532849       0.86533698       0.80126500 </v>
   <v>       0.38467151       0.13466300       0.80126500 </v>
   <v>       0.38467150       0.63466297       0.80126500 </v>
   <v>       0.88467149       0.13466300       0.80126500 </v>
   <v>       0.88467153       0.63466297       0.80126500 </v>
   <v>       0.00023786       0.99795426       0.60476867 </v>
   <v>       0.00691785       0.50341701       0.60496640 </v>
   <v>       0.50416465       0.00690205       0.60345017 </v>
   <v>       0.49815568       0.49231176       0.60479278 </v>
   <v>       0.24785531       0.24656113       0.60233977 </v>
   <v>       0.25254892       0.74477712       0.60384972 </v>
   <v>       0.74321145       0.24666303       0.60282492 </v>
   <v>       0.73830839       0.75486401       0.60326617 </v>
   <v>       0.00000050       0.00000050       0.70482896 </v>
   <v>       0.00000050       0.50000048       0.70482896 </v>
   <v>       0.50000048       0.00000050       0.70482896 </v>
   <v>       0.50000046       0.50000048       0.70482896 </v>
   <v>       0.24999999       0.24999947       0.70482499 </v>
   <v>       0.25000001       0.74999950       0.70482499 </v>
   <v>       0.74999999       0.24999947       0.70482499 </v>
   <v>       0.74999998       0.74999950       0.70482499 </v>
   <v>       0.00000000       0.00000000       0.80731797 </v>
   <v>       0.00000000       0.50000000       0.80731797 </v>
   <v>       0.50000000       0.00000000       0.80731797 </v>
   <v>       0.49999999       0.50000000       0.80731797 </v>
   <v>       0.24999999       0.25000000       0.80731797 </v>
   <v>       0.25000001       0.74999997       0.80731797 </v>
   <v>       0.74999999       0.25000000       0.80731797 </v>
   <v>       0.74999998       0.74999997       0.80731797 </v>
  </varray>
 </structure>
</modeling>
