 vasp.6.2.1 16May21 (build Nov 15 2021 14:57:28) complex                         
 executed on             LinuxPGI date 2023.07.30  09:28:20
 running on    4 total cores
 distrk:  each k-point on    4 cores,    1 groups
 distr:  one band on NCORE=   1 cores,    4 groups


--------------------------------------------------------------------------------------------------------


 INCAR:
   SYSTEM = PSC
   ISTART = 1
   ICHARG = 1
   PREC = Normal
   ENCUT = 500
   GGA_COMPAT = F
   NELM = 600
   ISYM = 0
   LREAL = Auto
   ISMEAR = 0
   SIGMA = 0.05
   AMIN = 0.01
   BMIX = 0.01
   LVTOT = T
   LWAVE = F
   LDIPOL = T
   IDIPOL = 3
   LVDW = T
   IVDW = 12

 POTCAR:    PAW_PBE H 15Jun2001                   
 POTCAR:    PAW_PBE C 08Apr2002                   
 POTCAR:    PAW_PBE N 08Apr2002                   
 POTCAR:    PAW_PBE I 08Apr2002                   
 POTCAR:    PAW_PBE Pb 08Apr2002                  
 WARNING: For LVTOT=.TRUE., VASP.5.x writes the TOTAL local potential to the
     file LOCPOT. If you want only the Hartree contributions, use LVHAR=.TRUE.
     instead. 

 POTCAR:    PAW_PBE H 15Jun2001                   
   SHA256 =  030f79b5d3ab3cf0e668861823c8fb652ff669f3e15e46930bd03bfd63a607b6 H/POTCAR              
   COPYR  = (c) Copyright 15Jun2001 Georg Kresse                                                    
   COPYR  = This file is part of the software VASP. Any use, copying, and all other rights are regul
   COPYR  = If you do not have a valid VASP license, you may not use, copy or distribute this file. 
   VRHFIN =H: ultrasoft test                                                                        
   LEXCH  = PE                                                                                      
   EATOM  =    12.4884 eV,    0.9179 Ry                                                             
                                                                                                    
   TITEL  = PAW_PBE H 15Jun2001                                                                     
   LULTRA =        F    use ultrasoft PP ?                                                          
   IUNSCR =        0    unscreen: 0-lin 1-nonlin 2-no                                               
   RPACOR =    0.000    partial core radius                                                         
   POMASS =    1.000; ZVAL   =    1.000    mass and valenz                                          
   RCORE  =    1.100    outmost cutoff radius                                                       
   RWIGS  =    0.700; RWIGS  =    0.370    wigner-seitz radius (au A)                               
   ENMAX  =  250.000; ENMIN  =  200.000 eV                                                          
   RCLOC  =    0.701    cutoff for local pot                                                        
   LCOR   =        T    correct aug charges                                                         
   LPAW   =        T    paw PP                                                                      
   EAUG   =  400.000                                                                                
   RMAX   =    1.123    core radius for proj-oper                                                   
   RAUG   =    1.200    factor for augmentation sphere                                              
   RDEP   =    1.112    radius for radial grids                                                     
   RDEPT  =    0.926    core radius for aug-charge                                                  
                                                                                                    
   Atomic configuration                                                                             
    2 entries                                                                                       
     n  l   j            E        occ.                                                              
     1  0  0.50        -6.4927   1.0000                                                             
     2  1  0.50        -3.4015   0.0000                                                             
   Description                                                                                      
     l       E           TYP  RCUT    TYP  RCUT                                                     
     0     -6.4927494     23  1.100                                                                 
     0      6.8029130     23  1.100                                                                 
     1     -4.0817478     23  1.100                                                                 
  local pseudopotential read in
  atomic valenz-charges read in
  non local Contribution for L=            0  read in
    real space projection operators read in
  non local Contribution for L=            0  read in
    real space projection operators read in
  non local Contribution for L=            1  read in
    real space projection operators read in
    PAW grid and wavefunctions read in
 
   number of l-projection  operators is LMAX  =            3
   number of lm-projection operators is LMMAX =            5
 
 POTCAR:    PAW_PBE C 08Apr2002                   
   SHA256 =  253f7b50bb8d59471dbedb8285d89021f4a42ed1a2c5d38a03a736e69125dd95 C/POTCAR              
   COPYR  = (c) Copyright 08Apr2002 Georg Kresse                                                    
   COPYR  = This file is part of the software VASP. Any use, copying, and all other rights are regul
   COPYR  = If you do not have a valid VASP license, you may not use, copy or distribute this file. 
   VRHFIN =C: s2p2                                                                                  
   LEXCH  = PE                                                                                      
   EATOM  =   147.1560 eV,   10.8157 Ry                                                             
                                                                                                    
   TITEL  = PAW_PBE C 08Apr2002                                                                     
   LULTRA =        F    use ultrasoft PP ?                                                          
   IUNSCR =        1    unscreen: 0-lin 1-nonlin 2-no                                               
   RPACOR =    1.200    partial core radius                                                         
   POMASS =   12.011; ZVAL   =    4.000    mass and valenz                                          
   RCORE  =    1.500    outmost cutoff radius                                                       
   RWIGS  =    1.630; RWIGS  =    0.863    wigner-seitz radius (au A)                               
   ENMAX  =  400.000; ENMIN  =  300.000 eV                                                          
   ICORE  =        2    local potential                                                             
   LCOR   =        T    correct aug charges                                                         
   LPAW   =        T    paw PP                                                                      
   EAUG   =  644.873                                                                                
   DEXC   =    0.000                                                                                
   RMAX   =    1.529    core radius for proj-oper                                                   
   RAUG   =    1.300    factor for augmentation sphere                                              
   RDEP   =    1.501    radius for radial grids                                                     
   RDEPT  =    1.300    core radius for aug-charge                                                  
                                                                                                    
   Atomic configuration                                                                             
    4 entries                                                                                       
     n  l   j            E        occ.                                                              
     1  0  0.50      -273.3789   2.0000                                                             
     2  0  0.50       -13.7508   2.0000                                                             
     2  1  0.50        -5.2854   2.0000                                                             
     3  2  1.50        -5.4423   0.0000                                                             
   Description                                                                                      
     l       E           TYP  RCUT    TYP  RCUT                                                     
     0    -13.7508458     23  1.200                                                                 
     0     -8.2022199     23  1.200                                                                 
     1     -5.2854383     23  1.500                                                                 
     1     34.0145650     23  1.500                                                                 
     2     -5.4423304      7  1.500                                                                 
  local pseudopotential read in
  partial core-charges read in
  partial kinetic energy density read in
  atomic valenz-charges read in
  non local Contribution for L=            0  read in
    real space projection operators read in
  non local Contribution for L=            0  read in
    real space projection operators read in
  non local Contribution for L=            1  read in
    real space projection operators read in
  non local Contribution for L=            1  read in
    real space projection operators read in
    PAW grid and wavefunctions read in
 
   number of l-projection  operators is LMAX  =            4
   number of lm-projection operators is LMMAX =            8
 
 POTCAR:    PAW_PBE N 08Apr2002                   
   SHA256 =  e053789ff3a61a86a1b75d8a110fcc91f86041011e7b0817c7c99e4e8a6349d7 N/POTCAR              
   COPYR  = (c) Copyright 08Apr2002 Georg Kresse                                                    
   COPYR  = This file is part of the software VASP. Any use, copying, and all other rights are regul
   COPYR  = If you do not have a valid VASP license, you may not use, copy or distribute this file. 
   VRHFIN =N: s2p3                                                                                  
   LEXCH  = PE                                                                                      
   EATOM  =   264.5486 eV,   19.4438 Ry                                                             
                                                                                                    
   TITEL  = PAW_PBE N 08Apr2002                                                                     
   LULTRA =        F    use ultrasoft PP ?                                                          
   IUNSCR =        1    unscreen: 0-lin 1-nonlin 2-no                                               
   RPACOR =    1.200    partial core radius                                                         
   POMASS =   14.001; ZVAL   =    5.000    mass and valenz                                          
   RCORE  =    1.500    outmost cutoff radius                                                       
   RWIGS  =    1.400; RWIGS  =    0.741    wigner-seitz radius (au A)                               
   ENMAX  =  400.000; ENMIN  =  300.000 eV                                                          
   ICORE  =        2    local potential                                                             
   LCOR   =        T    correct aug charges                                                         
   LPAW   =        T    paw PP                                                                      
   EAUG   =  627.112                                                                                
   DEXC   =    0.000                                                                                
   RMAX   =    1.529    core radius for proj-oper                                                   
   RAUG   =    1.300    factor for augmentation sphere                                              
   RDEP   =    1.514    radius for radial grids                                                     
   RDEPT  =    1.338    core radius for aug-charge                                                  
                                                                                                    
   Atomic configuration                                                                             
    4 entries                                                                                       
     n  l   j            E        occ.                                                              
     1  0  0.50      -384.7179   2.0000                                                             
     2  0  0.50       -18.5828   2.0000                                                             
     2  1  0.50        -7.0898   3.0000                                                             
     3  2  1.50        -6.8029   0.0000                                                             
   Description                                                                                      
     l       E           TYP  RCUT    TYP  RCUT                                                     
     0    -18.5828119     23  1.200                                                                 
     0    -13.5018863     23  1.200                                                                 
     1     -7.0897853     23  1.500                                                                 
     1      9.5240782     23  1.500                                                                 
     2     -6.8029130      7  1.500                                                                 
  local pseudopotential read in
  partial core-charges read in
  partial kinetic energy density read in
  atomic valenz-charges read in
  non local Contribution for L=            0  read in
    real space projection operators read in
  non local Contribution for L=            0  read in
    real space projection operators read in
  non local Contribution for L=            1  read in
    real space projection operators read in
  non local Contribution for L=            1  read in
    real space projection operators read in
    PAW grid and wavefunctions read in
 
   number of l-projection  operators is LMAX  =            4
   number of lm-projection operators is LMMAX =            8
 
 POTCAR:    PAW_PBE I 08Apr2002                   
   SHA256 =  e40f3f59b681c1fc3e3091736183c4589116986673d2b852a5012aec72758799 I/POTCAR              
   COPYR  = (c) Copyright 08Apr2002 Georg Kresse                                                    
   COPYR  = This file is part of the software VASP. Any use, copying, and all other rights are regul
   COPYR  = If you do not have a valid VASP license, you may not use, copy or distribute this file. 
   VRHFIN =I : s2p5                                                                                 
   LEXCH  = PE                                                                                      
   EATOM  =   315.8678 eV,   23.2156 Ry                                                             
                                                                                                    
   TITEL  = PAW_PBE I 08Apr2002                                                                     
   LULTRA =        F    use ultrasoft PP ?                                                          
   IUNSCR =        1    unscreen: 0-lin 1-nonlin 2-no                                               
   RPACOR =    2.200    partial core radius                                                         
   POMASS =  126.904; ZVAL   =    7.000    mass and valenz                                          
   RCORE  =    2.300    outmost cutoff radius                                                       
   RWIGS  =    2.810; RWIGS  =    1.487    wigner-seitz radius (au A)                               
   ENMAX  =  175.647; ENMIN  =  131.735 eV                                                          
   ICORE  =        3    local potential                                                             
   LCOR   =        T    correct aug charges                                                         
   LPAW   =        T    paw PP                                                                      
   EAUG   =  370.139                                                                                
   DEXC   =    0.000                                                                                
   RMAX   =    2.359    core radius for proj-oper                                                   
   RAUG   =    1.300    factor for augmentation sphere                                              
   RDEP   =    2.392    radius for radial grids                                                     
   RDEPT  =    2.170    core radius for aug-charge                                                  
                                                                                                    
   Atomic configuration                                                                             
   13 entries                                                                                       
     n  l   j            E        occ.                                                              
     1  0  0.50    -32976.3739   2.0000                                                             
     2  0  0.50     -5094.5933   2.0000                                                             
     2  1  1.50     -4572.0131   6.0000                                                             
     3  0  0.50     -1028.2813   2.0000                                                             
     3  1  1.50      -859.0250   6.0000                                                             
     3  2  2.50      -605.7620  10.0000                                                             
     4  0  0.50      -180.5540   2.0000                                                             
     4  1  1.50      -127.5306   6.0000                                                             
     4  2  2.50       -50.2720  10.0000                                                             
     5  0  0.50       -17.4058   2.0000                                                             
     5  1  0.50        -7.0851   5.0000                                                             
     5  2  1.50        -7.0750   0.0000                                                             
     4  3  2.50        -7.0750   0.0000                                                             
   Description                                                                                      
     l       E           TYP  RCUT    TYP  RCUT                                                     
     0    -17.4058016     23  2.300                                                                 
     0    -18.7663842     23  2.300                                                                 
     1     -7.0850686     23  2.300                                                                 
     1     -4.2150896     23  2.300                                                                 
     2     -7.0750295     23  2.300                                                                 
     3     -1.3605826     23  2.300                                                                 
  local pseudopotential read in
  partial core-charges read in
  partial kinetic energy density read in
  atomic valenz-charges read in
  non local Contribution for L=            0  read in
    real space projection operators read in
  non local Contribution for L=            0  read in
    real space projection operators read in
  non local Contribution for L=            1  read in
    real space projection operators read in
  non local Contribution for L=            1  read in
    real space projection operators read in
  non local Contribution for L=            2  read in
    real space projection operators read in
    PAW grid and wavefunctions read in
 
   number of l-projection  operators is LMAX  =            5
   number of lm-projection operators is LMMAX =           13
 
 POTCAR:    PAW_PBE Pb 08Apr2002                  
   SHA256 =  797118a27cf1bcd06b9881c67a26cdde129e3cd1a551dd4a281f9681ce847303 Pb/POTCAR             
   COPYR  = (c) Copyright 08Apr2002 Georg Kresse                                                    
   COPYR  = This file is part of the software VASP. Any use, copying, and all other rights are regul
   COPYR  = If you do not have a valid VASP license, you may not use, copy or distribute this file. 
   VRHFIN =Pb:                                                                                      
   LEXCH  = PE                                                                                      
   EATOM  =    96.9868 eV,    7.1283 Ry                                                             
                                                                                                    
   TITEL  = PAW_PBE Pb 08Apr2002                                                                    
   LULTRA =        F    use ultrasoft PP ?                                                          
   IUNSCR =        1    unscreen: 0-lin 1-nonlin 2-no                                               
   RPACOR =    2.200    partial core radius                                                         
   POMASS =  207.200; ZVAL   =    4.000    mass and valenz                                          
   RCORE  =    3.100    outmost cutoff radius                                                       
   RWIGS  =    3.260; RWIGS  =    1.725    wigner-seitz radius (au A)                               
   ENMAX  =   97.973; ENMIN  =   73.480 eV                                                          
   ICORE  =        3    local potential                                                             
   LCOR   =        T    correct aug charges                                                         
   LPAW   =        T    paw PP                                                                      
   EAUG   =  234.873                                                                                
   DEXC   =    0.000                                                                                
   RMAX   =    3.158    core radius for proj-oper                                                   
   RAUG   =    1.300    factor for augmentation sphere                                              
   RDEP   =    3.202    radius for radial grids                                                     
   RDEPT  =    2.659    core radius for aug-charge                                                  
                                                                                                    
   Atomic configuration                                                                             
   17 entries                                                                                       
     n  l   j            E        occ.                                                              
     1  0  0.50    -88091.8466   2.0000                                                             
     2  0  0.50    -15753.4197   2.0000                                                             
     2  1  1.50    -13508.1797   6.0000                                                             
     3  0  0.50     -3781.7194   2.0000                                                             
     3  1  1.50     -3138.2529   6.0000                                                             
     3  2  2.50     -2483.2977  10.0000                                                             
     4  0  0.50      -856.2895   2.0000                                                             
     4  1  1.50      -645.4943   6.0000                                                             
     4  2  2.50      -401.8768  10.0000                                                             
     4  3  3.50      -132.9059  14.0000                                                             
     5  0  0.50      -144.0950   2.0000                                                             
     5  1  1.50       -85.7879   6.0000                                                             
     5  2  2.50       -21.1769  10.0000                                                             
     6  0  0.50       -12.0372   2.0000                                                             
     6  1  1.50        -3.4971   2.0000                                                             
     6  2  2.50        -1.3606   0.0000                                                             
     5  3  2.50        -2.7212   0.0000                                                             
   Description                                                                                      
     l       E           TYP  RCUT    TYP  RCUT                                                     
     0    -12.0371566     23  3.100                                                                 
     0    -13.3977392     23  3.100                                                                 
     1     -3.4971341     23  3.100                                                                 
     1     -5.4423304     23  3.100                                                                 
     2     -1.3605826     23  3.100                                                                 
     3     -1.3605826     23  3.100                                                                 
  local pseudopotential read in
  partial core-charges read in
  partial kinetic energy density read in
  atomic valenz-charges read in
  non local Contribution for L=            0  read in
    real space projection operators read in
  non local Contribution for L=            0  read in
    real space projection operators read in
  non local Contribution for L=            1  read in
    real space projection operators read in
  non local Contribution for L=            1  read in
    real space projection operators read in
  non local Contribution for L=            2  read in
    real space projection operators read in
    PAW grid and wavefunctions read in
 
   number of l-projection  operators is LMAX  =            5
   number of lm-projection operators is LMMAX =           13
 
 Optimization of the real space projectors (new method)

 maximal supplied QI-value         = 34.20
 optimisation between [QCUT,QGAM] = [ 11.29, 22.57] = [ 35.68,142.71] Ry 
 Optimized for a Real-space Cutoff    1.16 Angstroem

   l    n(q)    QCUT    max X(q) W(low)/X(q) W(high)/X(q)  e(spline) 
   0      8    11.287    19.460    0.40E-03    0.73E-03    0.16E-06
   0      8    11.287    12.209    0.38E-03    0.70E-03    0.15E-06
   1      7    11.287     4.655    0.22E-03    0.25E-04    0.22E-06
 Optimization of the real space projectors (new method)

 maximal supplied QI-value         = 25.13
 optimisation between [QCUT,QGAM] = [ 11.31, 22.87] = [ 35.82,146.48] Ry 
 Optimized for a Real-space Cutoff    1.00 Angstroem

   l    n(q)    QCUT    max X(q) W(low)/X(q) W(high)/X(q)  e(spline) 
   0      7    11.310   115.676    0.43E-03    0.13E-02    0.19E-06
   0      7    11.310    87.132    0.43E-03    0.13E-02    0.18E-06
   1      6    11.310     4.429    0.42E-03    0.74E-03    0.11E-06
   1      6    11.310     2.733    0.34E-03    0.55E-03    0.92E-07
 Optimization of the real space projectors (new method)

 maximal supplied QI-value         = 25.13
 optimisation between [QCUT,QGAM] = [ 11.31, 22.87] = [ 35.82,146.48] Ry 
 Optimized for a Real-space Cutoff    1.27 Angstroem

   l    n(q)    QCUT    max X(q) W(low)/X(q) W(high)/X(q)  e(spline) 
   0      9    11.310    79.467    0.75E-04    0.16E-03    0.36E-06
   0      9    11.310    66.151    0.74E-04    0.16E-03    0.36E-06
   1      8    11.310    17.416    0.35E-03    0.12E-03    0.95E-06
   1      8    11.310    12.382    0.37E-03    0.13E-03    0.98E-06
 Optimization of the real space projectors (new method)

 maximal supplied QI-value         = 16.25
 optimisation between [QCUT,QGAM] = [ 11.38, 22.75] = [ 36.24,144.96] Ry 
 Optimized for a Real-space Cutoff    1.31 Angstroem

   l    n(q)    QCUT    max X(q) W(low)/X(q) W(high)/X(q)  e(spline) 
   0      9    11.376   194.483    0.24E-03    0.23E-03    0.67E-07
   0      9    11.376   190.334    0.23E-03    0.22E-03    0.65E-07
   1      8    11.376   116.687    0.25E-03    0.63E-04    0.16E-06
   1      8    11.376    88.696    0.25E-03    0.61E-04    0.16E-06
   2      8    11.376     4.877    0.17E-03    0.14E-03    0.29E-07
 Optimization of the real space projectors (new method)

 maximal supplied QI-value         = 12.09
 optimisation between [QCUT,QGAM] = [ 11.37, 22.86] = [ 36.19,146.31] Ry 
 Optimized for a Real-space Cutoff    1.66 Angstroem

   l    n(q)    QCUT    max X(q) W(low)/X(q) W(high)/X(q)  e(spline) 
   0     11    11.369   135.111    0.12E-03    0.69E-04    0.19E-05
   0     11    11.369   146.850    0.11E-03    0.65E-04    0.18E-05
   1     11    11.369   148.016    0.17E-03    0.32E-03    0.89E-06
   1     11    11.369   122.989    0.17E-03    0.32E-03    0.91E-06
   2     10    11.369     8.916    0.12E-03    0.45E-04    0.33E-06
  PAW_PBE H 15Jun2001                   :
 energy of atom  1       EATOM=  -12.4884
 kinetic energy error for atom=    0.0020 (will be added to EATOM!!)
  PAW_PBE C 08Apr2002                   :
 energy of atom  2       EATOM= -147.1560
 kinetic energy error for atom=    0.0076 (will be added to EATOM!!)
  PAW_PBE N 08Apr2002                   :
 energy of atom  3       EATOM= -264.5486
 kinetic energy error for atom=    0.0138 (will be added to EATOM!!)
  PAW_PBE I 08Apr2002                   :
 energy of atom  4       EATOM= -315.8678
 kinetic energy error for atom=    0.0009 (will be added to EATOM!!)
  PAW_PBE Pb 08Apr2002                  :
 energy of atom  5       EATOM=  -96.9868
 kinetic energy error for atom=    0.0000 (will be added to EATOM!!)
 
 
 POSCAR:  H  C  N  I Pb
  positions in cartesian coordinates
  No initial velocities read in
 exchange correlation table for  LEXCH =        8
   RHO(1)=    0.500       N(1)  =     2000
   RHO(2)=  100.500       N(2)  =     4000
 


--------------------------------------------------------------------------------------------------------


 ion  position               nearest neighbor table
   1  0.437  0.285  0.584- 187 1.08
   2  0.432  0.782  0.581- 188 1.03
   3  0.943  0.295  0.584- 189 1.03
   4  0.952  0.805  0.581- 190 1.04
   5  0.304  0.050  0.582- 194 1.02
   6  0.306  0.567  0.579- 195 1.03
   7  0.781  0.066  0.582- 196 1.02
   8  0.087  0.173  0.559- 183 1.06
   9  0.088  0.680  0.558- 184 1.01
  10  0.596  0.186  0.558- 185 1.02
  11  0.602  0.705  0.558- 186 1.02
  12  0.352  0.054  0.558- 194 1.05
  13  0.313  0.594  0.552- 195 1.05
  14  0.826  0.083  0.557- 196 1.05
  15  0.062  0.214  0.584- 183 1.02
  16  0.042  0.696  0.581- 184 1.04
  17  0.549  0.195  0.583- 185 1.04
  18  0.550  0.707  0.582- 186 1.04
  19  0.229  0.447  0.585- 191 1.02
  20  0.184  0.972  0.581- 192 1.02
  21  0.693  0.952  0.582- 193 1.02
  22  0.414  0.321  0.558- 187 1.02
  23  0.412  0.826  0.557- 188 1.01
  24  0.902  0.300  0.558- 189 1.02
  25  0.942  0.851  0.557- 190 1.01
  26  0.192  0.406  0.562- 191 1.04
  27  0.162  0.931  0.557- 192 1.05
  28  0.689  0.903  0.557- 193 1.06
  29  0.512  0.259  0.540- 146 1.09
  30  0.520  0.778  0.540- 147 1.10
  31  0.983  0.220  0.542- 144 1.11
  32  0.033  0.780  0.540- 145 1.11
  33  0.243  0.495  0.539- 148 1.11
  34  0.267  0.979  0.539- 149 1.11
  35  0.772  0.983  0.540- 150 1.10
  36  0.439  0.298  0.673- 205 1.04
  37  0.442  0.804  0.674- 206 1.03
  38  0.945  0.302  0.674- 207 1.01
  39  0.943  0.798  0.676- 208 1.04
  40  0.300  0.057  0.674- 209 1.03
  41  0.303  0.554  0.674- 210 1.03
  42  0.812  0.050  0.674- 211 1.04
  43  0.802  0.554  0.674- 212 1.03
  44  0.080  0.169  0.649- 197 1.02
  45  0.088  0.684  0.651- 198 1.03
  46  0.580  0.173  0.649- 199 1.02
  47  0.576  0.667  0.653- 200 1.05
  48  0.168  0.421  0.650- 201 1.06
  49  0.175  0.914  0.650- 202 1.06
  50  0.667  0.412  0.657- 203 1.02
  51  0.663  0.932  0.651- 204 1.06
  52  0.049  0.197  0.675- 197 1.04
  53  0.051  0.703  0.676- 198 1.03
  54  0.540  0.193  0.674- 199 1.04
  55  0.543  0.701  0.677- 200 0.99
  56  0.198  0.452  0.676- 201 1.03
  57  0.200  0.950  0.675- 202 1.03
  58  0.703  0.448  0.681- 203 1.03
  59  0.699  0.958  0.676- 204 1.02
  60  0.423  0.334  0.647- 205 1.02
  61  0.422  0.830  0.648- 206 1.02
  62  0.921  0.327  0.648- 207 1.05
  63  0.919  0.832  0.651- 208 1.02
  64  0.329  0.079  0.647- 209 1.06
  65  0.329  0.579  0.648- 210 1.02
  66  0.837  0.075  0.647- 211 1.04
  67  0.813  0.578  0.646- 212 1.02
  68  0.003  0.248  0.631- 151 1.09
  69  0.010  0.764  0.633- 152 1.10
  70  0.511  0.258  0.630- 153 1.09
  71  0.506  0.744  0.633- 154 1.10
  72  0.252  0.990  0.631- 156 1.10
  73  0.246  0.496  0.631- 155 1.09
  74  0.745  0.000  0.631- 158 1.09
  75  0.729  0.490  0.634- 157 1.10
  76  0.449  0.301  0.769- 221 1.02
  77  0.449  0.801  0.769- 222 1.02
  78  0.949  0.301  0.769- 223 1.02
  79  0.949  0.801  0.769- 224 1.02
  80  0.301  0.051  0.769- 225 1.02
  81  0.301  0.551  0.769- 226 1.02
  82  0.801  0.051  0.769- 227 1.02
  83  0.801  0.551  0.769- 228 1.02
  84  0.079  0.171  0.743- 213 1.02
  85  0.079  0.671  0.743- 214 1.02
  86  0.579  0.171  0.743- 215 1.02
  87  0.579  0.671  0.743- 216 1.02
  88  0.171  0.421  0.743- 217 1.02
  89  0.171  0.921  0.743- 218 1.02
  90  0.671  0.421  0.743- 219 1.02
  91  0.671  0.921  0.743- 220 1.02
  92  0.051  0.199  0.769- 213 1.02
  93  0.051  0.699  0.769- 214 1.02
  94  0.551  0.199  0.769- 215 1.02
  95  0.551  0.699  0.769- 216 1.02
  96  0.199  0.449  0.769- 217 1.02
  97  0.199  0.949  0.769- 218 1.02
  98  0.699  0.449  0.769- 219 1.02
  99  0.699  0.949  0.769- 220 1.02
 100  0.421  0.329  0.743- 221 1.02
 101  0.421  0.829  0.743- 222 1.02
 102  0.921  0.329  0.743- 223 1.02
 103  0.921  0.829  0.743- 224 1.02
 104  0.329  0.079  0.743- 225 1.02
 105  0.329  0.579  0.743- 226 1.02
 106  0.829  0.079  0.743- 227 1.02
 107  0.829  0.579  0.743- 228 1.02
 108  0.000  0.250  0.726- 161 1.09
 109  0.000  0.750  0.726- 162 1.09
 110  0.500  0.250  0.726- 159 1.09
 111  0.500  0.750  0.726- 160 1.09
 112  0.250  0.000  0.726- 163 1.09
 113  0.250  0.500  0.726- 164 1.09
 114  0.750  0.000  0.726- 165 1.09
 115  0.750  0.500  0.726- 166 1.09
 116  0.777  0.524  0.524- 173 1.12
 117  0.872  0.518  0.535- 173 1.11
 118  0.768  0.630  0.541- 174 1.10
 119  0.774  0.638  0.569- 174 1.10
 120  0.685  0.470  0.564- 175 1.10
 121  0.675  0.566  0.569- 175 1.10
 122  0.808  0.432  0.574- 176 1.12
 123  0.872  0.508  0.577- 176 1.10
 124  0.857  0.393  0.548- 177 1.13
 125  0.760  0.390  0.541- 177 1.11
 126  0.777  0.397  0.504- 178 1.11
 127  0.867  0.436  0.506- 178 1.12
 128  0.901  0.636  0.537- 179 1.10
 129  0.922  0.609  0.564- 179 1.11
 130  0.878  0.696  0.559- 179 1.11
 131  0.601  0.543  0.539- 180 1.10
 132  0.670  0.494  0.525- 180 1.07
 133  0.674  0.592  0.527- 180 1.12
 134  0.730  0.481  0.602- 181 1.09
 135  0.749  0.574  0.593- 181 1.12
 136  0.812  0.531  0.611- 181 1.13
 137  0.839  0.273  0.522- 182 1.14
 138  0.841  0.293  0.494- 182 1.11
 139  0.942  0.188  0.503- 168 1.10
 140  0.967  0.420  0.518- 169 1.10
 141  0.079  0.173  0.506- 170 1.11
 142  0.099  0.404  0.521- 171 1.08
 143  0.159  0.280  0.515- 172 1.07
 144  0.992  0.235  0.559-  31 1.11 183 1.32 189 1.33
 145  0.017  0.766  0.556-  32 1.11 184 1.31 190 1.31
 146  0.505  0.252  0.557-  29 1.09 185 1.33 187 1.34
 147  0.507  0.764  0.556-  30 1.10 186 1.33 188 1.34
 148  0.252  0.500  0.556-  33 1.11 191 1.32 195 1.32
 149  0.258  0.992  0.557-  34 1.11 194 1.31 192 1.32
 150  0.758  0.993  0.557-  35 1.10 193 1.31 196 1.32
 151  1.000  0.249  0.649-  68 1.09 207 1.29 197 1.33
 152  0.003  0.759  0.650-  69 1.10 208 1.30 198 1.33
 153  0.502  0.253  0.647-  70 1.09 205 1.32 199 1.32
 154  0.499  0.749  0.650-  71 1.10 206 1.32 200 1.32
 155  0.249  0.500  0.649-  73 1.09 201 1.32 210 1.33
 156  0.252  0.997  0.649-  72 1.10 209 1.30 202 1.32
 157  0.739  0.494  0.652-  75 1.10 203 1.31 212 1.34
 158  0.751  0.003  0.649-  74 1.09 204 1.32 211 1.32
 159  0.500  0.250  0.743- 110 1.09 221 1.31 215 1.31
 160  0.500  0.750  0.743- 111 1.09 222 1.31 216 1.31
 161  1.000  0.250  0.743- 108 1.09 223 1.31 213 1.31
 162  1.000  0.750  0.743- 109 1.09 224 1.31 214 1.31
 163  0.250  0.000  0.743- 112 1.09 225 1.31 218 1.31
 164  0.250  0.500  0.743- 113 1.09 226 1.31 217 1.31
 165  0.750  0.000  0.743- 114 1.09 227 1.31 220 1.31
 166  0.750  0.500  0.743- 115 1.09 228 1.31 219 1.31
 167  0.943  0.305  0.510- 168 1.39 169 1.42 182 1.49
 168  0.977  0.237  0.507- 139 1.10 167 1.39 170 1.41
 169  0.991  0.366  0.514- 140 1.10 171 1.38 167 1.42
 170  0.054  0.228  0.508- 141 1.11 168 1.41 172 1.42
 171  0.067  0.357  0.517- 142 1.08 169 1.38 172 1.40
 172  0.101  0.288  0.514- 143 1.07 171 1.40 170 1.42
 173  0.814  0.498  0.537- 117 1.11 116 1.12 229 1.50 177 1.52
 174  0.800  0.613  0.555- 118 1.10 119 1.10 229 1.51 179 1.54
 175  0.696  0.526  0.557- 121 1.10 120 1.10 180 1.51 229 1.55
 176  0.813  0.493  0.577- 123 1.10 122 1.12 181 1.53 229 1.55
 177  0.814  0.414  0.536- 125 1.11 124 1.13 178 1.51 173 1.52
 178  0.830  0.392  0.513- 126 1.11 127 1.12 177 1.51 182 1.54
 179  0.881  0.638  0.554- 128 1.10 130 1.11 129 1.11 174 1.54
 180  0.661  0.540  0.536- 132 1.07 131 1.10 133 1.12 175 1.51
 181  0.773  0.519  0.597- 134 1.09 135 1.12 136 1.13 176 1.53
 182  0.861  0.314  0.509- 138 1.11 137 1.14 167 1.49 178 1.54
 183  0.050  0.205  0.569-  15 1.02   8 1.06 144 1.32
 184  0.051  0.711  0.566-   9 1.01  16 1.04 145 1.31
 185  0.552  0.207  0.567-  10 1.02  17 1.04 146 1.33
 186  0.556  0.721  0.566-  11 1.02  18 1.04 147 1.33
 187  0.449  0.288  0.567-  22 1.02   1 1.08 146 1.34
 188  0.446  0.792  0.565-  23 1.01   2 1.03 147 1.34
 189  0.942  0.279  0.568-  24 1.02   3 1.03 144 1.33
 190  0.968  0.809  0.565-  25 1.01   4 1.04 145 1.31
 191  0.223  0.449  0.569-  19 1.02  26 1.04 148 1.32
 192  0.198  0.964  0.566-  20 1.02  27 1.05 149 1.32
 193  0.711  0.948  0.566-  21 1.02  28 1.06 150 1.31
 194  0.306  0.034  0.566-   5 1.02  12 1.05 149 1.31
 195  0.292  0.556  0.563-   6 1.03  13 1.05 148 1.32
 196  0.789  0.050  0.566-   7 1.02  14 1.05 150 1.32
 197  0.046  0.202  0.658-  44 1.02  52 1.04 151 1.33
 198  0.050  0.713  0.660-  45 1.03  53 1.03 152 1.33
 199  0.543  0.203  0.657-  46 1.02  54 1.04 153 1.32
 200  0.541  0.704  0.662-  55 0.99  47 1.05 154 1.32
 201  0.204  0.456  0.659-  56 1.03  48 1.06 155 1.32
 202  0.207  0.952  0.659-  57 1.03  49 1.06 156 1.32
 203  0.702  0.450  0.664-  50 1.02  58 1.03 157 1.31
 204  0.702  0.963  0.659-  59 1.02  51 1.06 158 1.32
 205  0.452  0.297  0.656-  60 1.02  36 1.04 153 1.32
 206  0.451  0.797  0.658-  61 1.02  37 1.03 154 1.32
 207  0.954  0.294  0.658-  38 1.01  62 1.05 151 1.29
 208  0.952  0.798  0.660-  63 1.02  39 1.04 152 1.30
 209  0.295  0.046  0.657-  40 1.03  64 1.06 156 1.30
 210  0.296  0.547  0.658-  65 1.02  41 1.03 155 1.33
 211  0.803  0.044  0.657-  42 1.04  66 1.04 158 1.32
 212  0.789  0.545  0.658-  67 1.02  43 1.03 157 1.34
 213  0.046  0.204  0.753-  92 1.02  84 1.02 161 1.31
 214  0.046  0.704  0.753-  93 1.02  85 1.02 162 1.31
 215  0.546  0.204  0.753-  94 1.02  86 1.02 159 1.31
 216  0.546  0.704  0.753-  95 1.02  87 1.02 160 1.31
 217  0.204  0.454  0.753-  96 1.02  88 1.02 164 1.31
 218  0.204  0.954  0.753-  97 1.02  89 1.02 163 1.31
 219  0.704  0.454  0.753-  98 1.02  90 1.02 166 1.31
 220  0.704  0.954  0.753-  99 1.02  91 1.02 165 1.31
 221  0.454  0.296  0.753-  76 1.02 100 1.02 159 1.31
 222  0.454  0.796  0.753-  77 1.02 101 1.02 160 1.31
 223  0.954  0.296  0.753-  78 1.02 102 1.02 161 1.31
 224  0.954  0.796  0.753-  79 1.02 103 1.02 162 1.31
 225  0.296  0.046  0.753-  80 1.02 104 1.02 163 1.31
 226  0.296  0.546  0.753-  81 1.02 105 1.02 164 1.31
 227  0.796  0.046  0.753-  82 1.02 106 1.02 165 1.31
 228  0.796  0.546  0.753-  83 1.02 107 1.02 166 1.31
 229  0.781  0.531  0.557- 173 1.50 174 1.51 176 1.55 175 1.55
 230  0.495  0.001  0.552- 304 3.13
 231  0.477  0.482  0.555- 305 3.08
 232  0.998  0.001  0.551- 302 3.26
 233  0.020  0.498  0.557- 303 3.06
 234  0.261  0.246  0.554- 306 3.15
 235  0.248  0.759  0.552- 307 3.22
 236  0.736  0.231  0.555- 308 3.18
 237  0.729  0.771  0.547- 309 3.61
 238  0.002  0.004  0.654- 302 3.17 310 3.19
 239  0.006  0.500  0.656- 311 3.03 303 3.13
 240  0.505  0.004  0.655- 312 3.13 304 3.28
 241  0.501  0.499  0.655- 313 3.08 305 3.25
 242  0.248  0.247  0.656- 314 3.08 306 3.20
 243  0.247  0.753  0.654- 315 3.16 307 3.19
 244  0.743  0.248  0.656- 316 3.06 308 3.14
 245  0.747  0.755  0.654- 309 3.08 317 3.18
 246  0.146  0.105  0.609- 306 3.23 302 3.27
 247  0.149  0.607  0.609- 303 3.14 307 3.23
 248  0.644  0.107  0.610- 308 3.24 304 3.29
 249  0.622  0.629  0.613- 305 3.28 309 3.34
 250  0.357  0.391  0.611- 306 3.23 305 3.26
 251  0.356  0.893  0.609- 307 3.19 304 3.26
 252  0.878  0.374  0.613- 308 3.23 303 3.36
 253  0.856  0.896  0.608- 309 3.14 302 3.22
 254  0.111  0.353  0.609- 306 3.22 303 3.26
 255  0.107  0.857  0.609- 307 3.19 302 3.25
 256  0.615  0.363  0.607- 308 3.18 305 3.22
 257  0.607  0.861  0.610- 309 3.21 304 3.23
 258  0.395  0.141  0.610- 304 3.18 306 3.19
 259  0.391  0.644  0.607- 307 3.25 305 3.29
 260  0.891  0.138  0.609- 302 3.20 308 3.26
 261  0.909  0.660  0.613- 303 3.42 309 3.42
 262  0.000  0.000  0.755- 310 3.13 318 3.27
 263  0.000  0.500  0.755- 311 3.13 319 3.27
 264  0.500  0.000  0.755- 312 3.13 320 3.27
 265  0.500  0.500  0.755- 313 3.13 321 3.27
 266  0.250  0.250  0.755- 314 3.13 322 3.27
 267  0.250  0.750  0.755- 315 3.13 323 3.27
 268  0.750  0.250  0.755- 316 3.13 324 3.27
 269  0.750  0.750  0.755- 317 3.13 325 3.27
 270  0.136  0.114  0.705- 310 3.20 314 3.20
 271  0.136  0.614  0.705- 311 3.20 315 3.20
 272  0.636  0.114  0.705- 312 3.20 316 3.20
 273  0.636  0.614  0.705- 313 3.20 317 3.20
 274  0.364  0.386  0.705- 313 3.20 314 3.20
 275  0.364  0.886  0.705- 312 3.20 315 3.20
 276  0.864  0.386  0.705- 311 3.20 316 3.20
 277  0.864  0.886  0.705- 310 3.20 317 3.20
 278  0.114  0.364  0.705- 314 3.21 311 3.21
 279  0.114  0.864  0.705- 315 3.21 310 3.21
 280  0.614  0.364  0.705- 316 3.21 313 3.21
 281  0.614  0.864  0.705- 317 3.21 312 3.21
 282  0.386  0.136  0.705- 314 3.21 312 3.21
 283  0.386  0.636  0.705- 315 3.21 313 3.21
 284  0.886  0.136  0.705- 316 3.21 310 3.21
 285  0.886  0.636  0.705- 317 3.21 311 3.21
 286  0.135  0.115  0.801- 318 3.22 322 3.22
 287  0.135  0.615  0.801- 319 3.22 323 3.22
 288  0.635  0.115  0.801- 320 3.22 324 3.22
 289  0.635  0.615  0.801- 321 3.22 325 3.22
 290  0.365  0.385  0.801- 321 3.22 322 3.22
 291  0.365  0.885  0.801- 320 3.22 323 3.22
 292  0.865  0.385  0.801- 319 3.22 324 3.22
 293  0.865  0.885  0.801- 318 3.22 325 3.22
 294  0.115  0.365  0.801- 319 3.23 322 3.23
 295  0.115  0.865  0.801- 318 3.23 323 3.23
 296  0.615  0.365  0.801- 321 3.23 324 3.23
 297  0.615  0.865  0.801- 320 3.23 325 3.23
 298  0.385  0.135  0.801- 320 3.23 322 3.23
 299  0.385  0.635  0.801- 321 3.23 323 3.23
 300  0.885  0.135  0.801- 318 3.23 324 3.23
 301  0.885  0.635  0.801- 319 3.23 325 3.23
 302  1.000  0.000  0.603- 238 3.17 260 3.20 253 3.22 255 3.25 232 3.26 246 3.27
 303  0.011  0.502  0.606- 233 3.06 239 3.13 247 3.14 254 3.26 252 3.36 261 3.42
 304  0.498  0.001  0.602- 230 3.13 258 3.18 257 3.23 251 3.26 240 3.28 248 3.29
 305  0.500  0.499  0.603- 231 3.08 256 3.22 241 3.25 250 3.26 249 3.28 259 3.29
 306  0.254  0.247  0.604- 234 3.15 258 3.19 242 3.20 254 3.22 250 3.23 246 3.23
 307  0.249  0.754  0.603- 251 3.19 243 3.19 255 3.19 235 3.22 247 3.23 259 3.25
 308  0.750  0.251  0.606- 244 3.14 236 3.18 256 3.18 252 3.23 248 3.24 260 3.26
 309  0.750  0.759  0.605- 245 3.08 253 3.14 257 3.21 249 3.34 261 3.42 237 3.61
 310  0.000  0.000  0.705- 262 3.13 238 3.19 270 3.20 277 3.20 279 3.21 284 3.21
 311  0.000  0.500  0.705- 239 3.03 263 3.13 271 3.20 276 3.20 278 3.21 285 3.21
 312  0.500  0.000  0.705- 240 3.13 264 3.13 272 3.20 275 3.20 281 3.21 282 3.21
 313  0.500  0.500  0.705- 241 3.08 265 3.13 273 3.20 274 3.20 280 3.21 283 3.21
 314  0.250  0.250  0.705- 242 3.08 266 3.13 270 3.20 274 3.20 282 3.21 278 3.21
 315  0.250  0.750  0.705- 267 3.13 243 3.16 271 3.20 275 3.20 283 3.21 279 3.21
 316  0.750  0.250  0.705- 244 3.06 268 3.13 272 3.20 276 3.20 284 3.21 280 3.21
 317  0.750  0.750  0.705- 269 3.13 245 3.18 273 3.20 277 3.20 285 3.21 281 3.21
 318  0.000  0.000  0.807- 286 3.22 293 3.22 300 3.23 295 3.23 262 3.27
 319  0.000  0.500  0.807- 287 3.22 292 3.22 301 3.23 294 3.23 263 3.27
 320  0.500  0.000  0.807- 288 3.22 291 3.22 298 3.23 297 3.23 264 3.27
 321  0.500  0.500  0.807- 289 3.22 290 3.22 299 3.23 296 3.23 265 3.27
 322  0.250  0.250  0.807- 290 3.22 286 3.22 294 3.23 298 3.23 266 3.27
 323  0.250  0.750  0.807- 291 3.22 287 3.22 299 3.23 295 3.23 267 3.27
 324  0.750  0.250  0.807- 292 3.22 288 3.22 296 3.23 300 3.23 268 3.27
 325  0.750  0.750  0.807- 293 3.22 289 3.22 297 3.23 301 3.23 269 3.27
 

IMPORTANT INFORMATION: All symmetrisations will be switched off!
NOSYMM: (Re-)initialisation of all symmetry stuff for point group C_1.


----------------------------------------------------------------------------------------

                                     Primitive cell                                     

  volume of cell :   20385.2105

  direct lattice vectors                    reciprocal lattice vectors
    18.060800552  0.000000000  0.000000000     0.055368531  0.000015077 -0.000000000
    -0.004918649 18.062799454  0.000000000     0.000000000  0.055362404  0.000000000
     0.000000000  0.000000000 62.487499237     0.000000000 -0.000000000  0.016003201

  length of vectors
    18.060800552 18.062800123 62.487499237     0.055368533  0.055362404  0.016003201

  position of ions in fractional coordinates (direct lattice)
     0.437187344  0.285261157  0.583647437
     0.432482403  0.782444373  0.580979912
     0.942824517  0.295047026  0.584143752
     0.952034436  0.804697390  0.581391615
     0.304145427  0.050158237  0.582006118
     0.306488411  0.566529963  0.578578674
     0.780969388  0.065834162  0.581809973
     0.086817425  0.173139031  0.559081244
     0.088072521  0.679803633  0.557573619
     0.595959578  0.186366810  0.558481942
     0.602450995  0.704875414  0.557883434
     0.352477394  0.053685163  0.557641198
     0.313099577  0.593879806  0.551745915
     0.825711256  0.083470079  0.557461414
     0.062145048  0.213762891  0.584435376
     0.042183930  0.695755139  0.581247726
     0.548598857  0.194682382  0.583210216
     0.549951288  0.707228238  0.582065944
     0.228758847  0.447486349  0.584780843
     0.183767905  0.972031057  0.581426412
     0.693444730  0.951893819  0.581718768
     0.413956313  0.320918798  0.558295076
     0.411765162  0.825846091  0.556608338
     0.901976903  0.299876247  0.558266262
     0.942218539  0.850718508  0.557356962
     0.192108086  0.405884241  0.561745107
     0.162041714  0.931458887  0.556657359
     0.689282828  0.902918323  0.557370209
     0.512363685  0.259419137  0.539810483
     0.519657588  0.777650395  0.539540044
     0.982720109  0.219738350  0.542234918
     0.033141696  0.779721807  0.539574169
     0.242525696  0.494750060  0.538584530
     0.266866002  0.979041617  0.539482476
     0.771998577  0.982596000  0.539880383
     0.438927261  0.297527568  0.672665669
     0.441895968  0.803817834  0.673996746
     0.945212009  0.302013472  0.673991496
     0.943321873  0.797628834  0.676204585
     0.300134042  0.056540294  0.673548475
     0.302535300  0.553828736  0.674086486
     0.811931792  0.050087933  0.673738149
     0.801791610  0.554200485  0.673713120
     0.079930510  0.169048529  0.649389407
     0.088035679  0.684342176  0.650666091
     0.579777417  0.172843668  0.648521436
     0.575521332  0.667018616  0.653152672
     0.168479040  0.420860124  0.650413965
     0.174935576  0.913773584  0.650169776
     0.667248183  0.412112284  0.657054942
     0.662848426  0.932014734  0.650620000
     0.048747159  0.196934402  0.674685360
     0.050530552  0.703238949  0.676131634
     0.539871759  0.193159511  0.673548170
     0.542650070  0.701344303  0.677365401
     0.198307611  0.452051397  0.675693008
     0.200007742  0.949594020  0.675362681
     0.703448845  0.447505514  0.680716962
     0.698641674  0.958167865  0.675719259
     0.423319239  0.333858063  0.647270575
     0.421592601  0.829869540  0.647590769
     0.921215090  0.327240426  0.648486517
     0.919475329  0.832044753  0.650772191
     0.328677670  0.078974098  0.647349693
     0.329096978  0.578608177  0.648103994
     0.837066265  0.075042893  0.647359277
     0.812724306  0.577607502  0.646456814
     0.002917416  0.247965467  0.631243200
     0.010288012  0.763617135  0.633001364
     0.510874469  0.258460225  0.630221511
     0.505771596  0.744377969  0.632574276
     0.251767696  0.989595700  0.631224763
     0.245574928  0.495960342  0.631469136
     0.744993390  0.000331999  0.631353207
     0.729372510  0.490072448  0.634499771
     0.448745018  0.301283966  0.768889017
     0.448745007  0.801283913  0.768889017
     0.948744965  0.301283966  0.768889017
     0.948745007  0.801283913  0.768889017
     0.301275995  0.051294496  0.768872961
     0.301276011  0.551294499  0.768872961
     0.801275943  0.051294496  0.768872961
     0.801275984  0.551294499  0.768872961
     0.078771004  0.171180501  0.743441971
     0.078771006  0.671180448  0.743441971
     0.578771004  0.171180501  0.743441971
     0.578770992  0.671180448  0.743441971
     0.171199499  0.421174482  0.743421032
     0.171199501  0.921174508  0.743421032
     0.671199512  0.421174482  0.743421032
     0.671199501  0.921174508  0.743421032
     0.051256000  0.198714991  0.768889017
     0.051256002  0.698714925  0.768889017
     0.551256027  0.198714991  0.768889017
     0.551256016  0.698714925  0.768889017
     0.198723491  0.448703970  0.768872046
     0.198723493  0.948703970  0.768872046
     0.698723518  0.448703970  0.768872046
     0.698723507  0.948703970  0.768872046
     0.421231519  0.328817467  0.743441971
     0.421231508  0.828817440  0.743441971
     0.921231466  0.328817467  0.743441971
     0.921231508  0.828817440  0.743441971
     0.328800503  0.078824997  0.743421032
     0.328800492  0.578824964  0.743421032
     0.828800477  0.078824997  0.743421032
     0.828800519  0.578824964  0.743421032
     0.000003500  0.250001478  0.725821992
     0.000003500  0.750001452  0.725821992
     0.500003506  0.250001478  0.725821992
     0.500003495  0.750001452  0.725821992
     0.250000502  0.000000000  0.725803983
     0.250000517  0.500000000  0.725803983
     0.750000502  0.000000000  0.725803983
     0.750000490  0.500000000  0.725803983
     0.777364027  0.523845343  0.524230219
     0.871634232  0.518349683  0.535446818
     0.768346445  0.629889846  0.541179959
     0.773741820  0.638473697  0.569404537
     0.684936295  0.470011222  0.563894158
     0.675437554  0.566312436  0.569260527
     0.808404142  0.432231113  0.573909467
     0.872090283  0.508024828  0.576663558
     0.856944543  0.393267622  0.547642067
     0.760107240  0.389844167  0.541229957
     0.777294979  0.396725001  0.504400416
     0.867420442  0.435504993  0.506414277
     0.901443229  0.636316805  0.537198450
     0.922216836  0.608998534  0.564209712
     0.877762605  0.695926045  0.559378545
     0.601043675  0.543169619  0.539121808
     0.669877219  0.494126150  0.525204413
     0.673848274  0.592490277  0.527256520
     0.729557732  0.480523191  0.601740473
     0.748501687  0.574159231  0.593111549
     0.811578689  0.530913213  0.610732933
     0.838722287  0.273381621  0.521550239
     0.840575558  0.292865399  0.493591614
     0.942479683  0.187532636  0.503240638
     0.966802894  0.420190280  0.517976282
     0.078790171  0.172534762  0.506299203
     0.099376759  0.404296772  0.521341701
     0.159070660  0.279503594  0.515133123
     0.992297636  0.235320259  0.559177699
     0.016651631  0.766372224  0.556204021
     0.505150761  0.252392818  0.557032068
     0.506857093  0.764401233  0.556305665
     0.252257813  0.499602064  0.556040109
     0.257566511  0.992341521  0.556533249
     0.757739907  0.992983170  0.556811870
     0.999939686  0.249131583  0.648698839
     0.003029578  0.759044326  0.650462071
     0.501667407  0.253326519  0.647417211
     0.499404020  0.749237997  0.650080463
     0.249231425  0.500066367  0.648845719
     0.251853198  0.997010979  0.648645789
     0.739388508  0.493987186  0.651752001
     0.750530594  0.003092511  0.648725395
     0.499988984  0.249994984  0.743277021
     0.499989025  0.749994958  0.743277021
     0.999988984  0.249994984  0.743277021
     0.999989025  0.749994958  0.743277021
     0.250000502  0.000001000  0.743255960
     0.250000517  0.500001003  0.743255960
     0.750000502  0.000001000  0.743255960
     0.750000491  0.500001003  0.743255960
     0.943392857  0.304992503  0.510092931
     0.976786201  0.236593607  0.506754922
     0.991465034  0.366019546  0.514074928
     0.054054845  0.228255002  0.507866411
     0.066878624  0.357055420  0.516522683
     0.100596222  0.288028628  0.513697106
     0.814014891  0.498164805  0.536692428
     0.800073578  0.612696433  0.555312058
     0.695678069  0.525856672  0.557448655
     0.813224140  0.493056627  0.576707267
     0.813553289  0.414038872  0.536143795
     0.830269525  0.392152984  0.513281557
     0.881470832  0.637925604  0.553810110
     0.660962998  0.539961103  0.535867373
     0.772832732  0.518763670  0.596889283
     0.861443173  0.313888019  0.509214886
     0.050128340  0.204868656  0.568704385
     0.051133808  0.711242289  0.565503427
     0.551804035  0.206905433  0.566897322
     0.556181713  0.721102101  0.566011403
     0.449029336  0.287797796  0.566754288
     0.445569491  0.792305770  0.565158998
     0.941951000  0.279385380  0.568218753
     0.967590684  0.809376112  0.565479375
     0.222971482  0.448686071  0.568532293
     0.198198212  0.964162295  0.565750425
     0.710689664  0.948145152  0.566169576
     0.306397353  0.034211747  0.566292343
     0.292195458  0.555926231  0.562955249
     0.789332842  0.050152026  0.566254676
     0.046034133  0.202242313  0.658157824
     0.050187555  0.712550721  0.659842059
     0.542789916  0.203128245  0.657176304
     0.541396759  0.704183553  0.661589235
     0.203812333  0.456044909  0.659390980
     0.207104451  0.952082349  0.659080799
     0.701864659  0.449541975  0.664217568
     0.702181549  0.962936095  0.659433225
     0.451887761  0.296756959  0.656451550
     0.451014881  0.797240824  0.657788731
     0.954387316  0.293681519  0.658173818
     0.952385994  0.798466734  0.659738828
     0.294554560  0.046085617  0.657457061
     0.296461271  0.547102045  0.657749295
     0.802917012  0.044271342  0.657418418
     0.788561473  0.545484323  0.657917053
     0.045862501  0.204119496  0.752725994
     0.045862500  0.704119456  0.752725994
     0.545862507  0.204119496  0.752725994
     0.545862496  0.704119456  0.752725994
     0.204119002  0.454101003  0.752704994
     0.204118991  0.954100951  0.752704994
     0.704118976  0.454101003  0.752704994
     0.704118964  0.954100951  0.752704994
     0.454140018  0.295888490  0.752726971
     0.454140007  0.795888516  0.752726971
     0.954140018  0.295888490  0.752726971
     0.954140060  0.795888516  0.752726971
     0.295882492  0.045900498  0.752704994
     0.295882481  0.545900528  0.752704994
     0.795882439  0.045900498  0.752704994
     0.795882481  0.545900528  0.752704994
     0.781432923  0.531262365  0.556580866
     0.494749334  0.001403946  0.552259384
     0.477281347  0.482081832  0.554828013
     0.997971604  0.001437167  0.551088618
     0.020161660  0.497832232  0.557485772
     0.261352447  0.245566287  0.554061014
     0.248357162  0.758733030  0.551654832
     0.735609702  0.231365051  0.555436106
     0.729046388  0.770989700  0.547192575
     0.001637343  0.004021924  0.653853679
     0.006251695  0.499513416  0.656441721
     0.505353291  0.004317653  0.654770427
     0.501099227  0.499321074  0.655490786
     0.247653568  0.246820126  0.655527598
     0.246688569  0.752722329  0.654275211
     0.742613047  0.248273726  0.655964697
     0.747434001  0.755452076  0.653896656
     0.146107129  0.104919443  0.609283119
     0.149172273  0.606864187  0.609194600
     0.643686673  0.107169813  0.609656485
     0.622115434  0.628585743  0.613300646
     0.356626837  0.391373690  0.610608701
     0.355788264  0.892677476  0.609031360
     0.877946353  0.373653540  0.613096870
     0.856231854  0.896217879  0.608308742
     0.111326642  0.352738311  0.609438607
     0.106671375  0.856678418  0.608639741
     0.614842127  0.363196084  0.606647521
     0.606612579  0.861455555  0.609918866
     0.394522790  0.141196105  0.609682369
     0.390633545  0.643856422  0.607078821
     0.890658527  0.138407237  0.609317183
     0.909224030  0.659924717  0.612836076
     0.000000000  0.000000000  0.754927972
     0.000000000  0.500000000  0.754927972
     0.500000000  0.000000000  0.754927972
     0.499999989  0.500000000  0.754927972
     0.250000496  0.250000000  0.754939022
     0.250000511  0.749999974  0.754939022
     0.750000470  0.250000000  0.754939022
     0.750000458  0.749999974  0.754939022
     0.135790500  0.114209997  0.704782994
     0.135790502  0.614209984  0.704782994
     0.635790447  0.114209997  0.704782994
     0.635790488  0.614209984  0.704782994
     0.364209516  0.385789989  0.704782994
     0.364209505  0.885789963  0.704782994
     0.864209542  0.385789989  0.704782994
     0.864209531  0.885789963  0.704782994
     0.114217990  0.364218986  0.704780979
     0.114217992  0.864218986  0.704780979
     0.614218004  0.364218986  0.704780979
     0.614217992  0.864218986  0.704780979
     0.385782012  0.135781489  0.704782017
     0.385782001  0.635781489  0.704782017
     0.885781985  0.135781489  0.704782017
     0.885782027  0.635781489  0.704782017
     0.134667000  0.115332001  0.801256025
     0.134666989  0.615331988  0.801256025
     0.634666987  0.115332001  0.801256025
     0.634666976  0.615331988  0.801256025
     0.365333002  0.384667985  0.801256025
     0.365332990  0.884667959  0.801256025
     0.865332949  0.384667985  0.801256025
     0.865332938  0.884667959  0.801256025
     0.115328503  0.365337004  0.801264999
     0.115328505  0.865336978  0.801264999
     0.615328503  0.365337004  0.801264999
     0.615328492  0.865336978  0.801264999
     0.384671513  0.134662996  0.801264999
     0.384671501  0.634662970  0.801264999
     0.884671486  0.134662996  0.801264999
     0.884671528  0.634662970  0.801264999
     0.999872732  0.000251672  0.603204144
     0.010771517  0.501993588  0.606350220
     0.497988313  0.001051362  0.602319446
     0.499743165  0.498689403  0.603465976
     0.253800502  0.246699642  0.604364044
     0.248910986  0.753768990  0.603244069
     0.750237752  0.250907223  0.605796032
     0.750304874  0.758737413  0.604547980
     0.000000500  0.000000500  0.704828963
     0.000000500  0.500000475  0.704828963
     0.500000475  0.000000500  0.704828963
     0.500000464  0.500000475  0.704828963
     0.249999994  0.249999472  0.704824995
     0.250000010  0.749999498  0.704824995
     0.749999994  0.249999472  0.704824995
     0.749999983  0.749999498  0.704824995
     0.000000000  0.000000000  0.807317968
     0.000000000  0.500000000  0.807317968
     0.500000000  0.000000000  0.807317968
     0.499999989  0.500000000  0.807317968
     0.249999994  0.250000000  0.807317968
     0.250000010  0.749999974  0.807317968
     0.749999994  0.250000000  0.807317968
     0.749999983  0.749999974  0.807317968

  ion indices of the primitive-cell ions
   primitive index   ion index
                 1           1
                 2           2
                 3           3
                 4           4
                 5           5
                 6           6
                 7           7
                 8           8
                 9           9
                10          10
                11          11
                12          12
                13          13
                14          14
                15          15
                16          16
                17          17
                18          18
                19          19
                20          20
                21          21
                22          22
                23          23
                24          24
                25          25
                26          26
                27          27
                28          28
                29          29
                30          30
                31          31
                32          32
                33          33
                34          34
                35          35
                36          36
                37          37
                38          38
                39          39
                40          40
                41          41
                42          42
                43          43
                44          44
                45          45
                46          46
                47          47
                48          48
                49          49
                50          50
                51          51
                52          52
                53          53
                54          54
                55          55
                56          56
                57          57
                58          58
                59          59
                60          60
                61          61
                62          62
                63          63
                64          64
                65          65
                66          66
                67          67
                68          68
                69          69
                70          70
                71          71
                72          72
                73          73
                74          74
                75          75
                76          76
                77          77
                78          78
                79          79
                80          80
                81          81
                82          82
                83          83
                84          84
                85          85
                86          86
                87          87
                88          88
                89          89
                90          90
                91          91
                92          92
                93          93
                94          94
                95          95
                96          96
                97          97
                98          98
                99          99
               100         100
               101         101
               102         102
               103         103
               104         104
               105         105
               106         106
               107         107
               108         108
               109         109
               110         110
               111         111
               112         112
               113         113
               114         114
               115         115
               116         116
               117         117
               118         118
               119         119
               120         120
               121         121
               122         122
               123         123
               124         124
               125         125
               126         126
               127         127
               128         128
               129         129
               130         130
               131         131
               132         132
               133         133
               134         134
               135         135
               136         136
               137         137
               138         138
               139         139
               140         140
               141         141
               142         142
               143         143
               144         144
               145         145
               146         146
               147         147
               148         148
               149         149
               150         150
               151         151
               152         152
               153         153
               154         154
               155         155
               156         156
               157         157
               158         158
               159         159
               160         160
               161         161
               162         162
               163         163
               164         164
               165         165
               166         166
               167         167
               168         168
               169         169
               170         170
               171         171
               172         172
               173         173
               174         174
               175         175
               176         176
               177         177
               178         178
               179         179
               180         180
               181         181
               182         182
               183         183
               184         184
               185         185
               186         186
               187         187
               188         188
               189         189
               190         190
               191         191
               192         192
               193         193
               194         194
               195         195
               196         196
               197         197
               198         198
               199         199
               200         200
               201         201
               202         202
               203         203
               204         204
               205         205
               206         206
               207         207
               208         208
               209         209
               210         210
               211         211
               212         212
               213         213
               214         214
               215         215
               216         216
               217         217
               218         218
               219         219
               220         220
               221         221
               222         222
               223         223
               224         224
               225         225
               226         226
               227         227
               228         228
               229         229
               230         230
               231         231
               232         232
               233         233
               234         234
               235         235
               236         236
               237         237
               238         238
               239         239
               240         240
               241         241
               242         242
               243         243
               244         244
               245         245
               246         246
               247         247
               248         248
               249         249
               250         250
               251         251
               252         252
               253         253
               254         254
               255         255
               256         256
               257         257
               258         258
               259         259
               260         260
               261         261
               262         262
               263         263
               264         264
               265         265
               266         266
               267         267
               268         268
               269         269
               270         270
               271         271
               272         272
               273         273
               274         274
               275         275
               276         276
               277         277
               278         278
               279         279
               280         280
               281         281
               282         282
               283         283
               284         284
               285         285
               286         286
               287         287
               288         288
               289         289
               290         290
               291         291
               292         292
               293         293
               294         294
               295         295
               296         296
               297         297
               298         298
               299         299
               300         300
               301         301
               302         302
               303         303
               304         304
               305         305
               306         306
               307         307
               308         308
               309         309
               310         310
               311         311
               312         312
               313         313
               314         314
               315         315
               316         316
               317         317
               318         318
               319         319
               320         320
               321         321
               322         322
               323         323
               324         324
               325         325

----------------------------------------------------------------------------------------

 
 
 KPOINTS: Automatic Mesh                          

Automatic generation of k-mesh.
 Grid dimensions read from file:
 generate k-points for:    3    3    1

 Generating k-lattice:

  Cartesian coordinates                     Fractional coordinates (reciprocal lattice)
     0.018456177  0.000005026 -0.000000000     0.333333333  0.000000000  0.000000000
     0.000000000  0.018454135  0.000000000     0.000000000  0.333333333  0.000000000
     0.000000000 -0.000000000  0.016003201     0.000000000  0.000000000  1.000000000

  Length of vectors
     0.018456178  0.018454135  0.016003201

  Shift w.r.t. Gamma in fractional coordinates (k-lattice)
     0.000000000  0.000000000  0.000000000

 
 Subroutine IBZKPT returns following result:
 ===========================================
 
 Found      5 irreducible k-points:
 
 Following reciprocal coordinates:
            Coordinates               Weight
  0.000000  0.000000  0.000000      1.000000
  0.333333  0.000000  0.000000      2.000000
  0.000000  0.333333  0.000000      2.000000
  0.333333  0.333333  0.000000      2.000000
 -0.333333  0.333333  0.000000      2.000000
 
 Following cartesian coordinates:
            Coordinates               Weight
  0.000000  0.000000  0.000000      1.000000
  0.018456  0.000005  0.000000      2.000000
  0.000000  0.018454  0.000000      2.000000
  0.018456  0.018459  0.000000      2.000000
 -0.018456  0.018449  0.000000      2.000000
 


--------------------------------------------------------------------------------------------------------




 Dimension of arrays:
   k-points           NKPTS =      5   k-points in BZ     NKDIM =      5   number of bands    NBANDS=    732
   number of dos      NEDOS =    301   number of ions     NIONS =    325
   non local maximal  LDIM  =      5   non local SUM 2l+1 LMDIM =     13
   total plane-waves  NPLWV = ******
   max r-space proj   IRMAX =   3336   max aug-charges    IRDMAX=  19845
   dimension x,y,z NGX =   100 NGY =  100 NGZ =  350
   dimension x,y,z NGXF=   200 NGYF=  200 NGZF=  700
   support grid    NGXF=   200 NGYF=  200 NGZF=  700
   ions per type =             143  39  47  72  24
   NGX,Y,Z   is equivalent  to a cutoff of   9.20,  9.20,  9.31 a.u.
   NGXF,Y,Z  is equivalent  to a cutoff of  18.41, 18.41, 18.62 a.u.

 SYSTEM =  PSC                                     
 POSCAR =   H  C  N  I Pb                          

 Startparameter for this run:
   NWRITE =      2    write-flag & timer
   PREC   = normal    normal or accurate (medium, high low for compatibility)
   ISTART =      0    job   : 0-new  1-cont  2-samecut
   ICHARG =      1    charge: 1-file 2-atom 10-const
   ISPIN  =      1    spin polarized calculation?
   LNONCOLLINEAR =      F non collinear calculations
   LSORBIT =      F    spin-orbit coupling
   INIWAV =      1    electr: 0-lowe 1-rand  2-diag
   LASPH  =      F    aspherical Exc in radial PAW
 Electronic Relaxation 1
   ENCUT  =  500.0 eV  36.75 Ry    6.06 a.u.  32.93 32.93113.93*2*pi/ulx,y,z
   ENINI  =  500.0     initial cutoff
   ENAUG  =  644.9 eV  augmentation charge cutoff
   NELM   =    600;   NELMIN=  2; NELMDL=  0     # of ELM steps 
   EDIFF  = 0.1E-03   stopping-criterion for ELM
   LREAL  =      T    real-space projection
   NLSPLINE    = F    spline interpolate recip. space projectors
   LCOMPAT=      F    compatible to vasp.4.4
   GGA_COMPAT  = F    GGA compatible to vasp.4.4-vasp.4.6
   LMAXPAW     = -100 max onsite density
   LMAXMIX     =    2 max onsite mixed and CHGCAR
   VOSKOWN=      0    Vosko Wilk Nusair interpolation
   ROPT   =   -0.00050  -0.00050  -0.00050  -0.00050
   ROPT   =   -0.00050
 Ionic relaxation
   EDIFFG = 0.1E-02   stopping-criterion for IOM
   NSW    =      0    number of steps for IOM
   NBLOCK =      1;   KBLOCK =      1    inner block; outer block 
   IBRION =     -1    ionic relax: 0-MD 1-quasi-New 2-CG
   NFREE  =      0    steps in history (QN), initial steepest desc. (CG)
   ISIF   =      2    stress and relaxation
   IWAVPR =     10    prediction:  0-non 1-charg 2-wave 3-comb
   ISYM   =      0    0-nonsym 1-usesym 2-fastsym
   LCORR  =      T    Harris-Foulkes like correction to forces

   POTIM  = 0.5000    time-step for ionic-motion
   TEIN   =    0.0    initial temperature
   TEBEG  =    0.0;   TEEND  =   0.0 temperature during run
   SMASS  =  -3.00    Nose mass-parameter (am)
   estimated Nose-frequenzy (Omega)   =  0.10E-29 period in steps = 0.13E+47 mass=  -0.745E-26a.u.
   SCALEE = 1.0000    scale energy and forces
   NPACO  =    256;   APACO  = 16.0  distance and # of slots for P.C.
   PSTRESS=    0.0 pullay stress

  Mass of Ions in am
   POMASS =   1.00 12.01 14.00126.90207.20
  Ionic Valenz
   ZVAL   =   1.00  4.00  5.00  7.00  4.00
  Atomic Wigner-Seitz radii
   RWIGS  =  -1.00 -1.00 -1.00 -1.00 -1.00
  virtual crystal weights 
   VCA    =   1.00  1.00  1.00  1.00  1.00
   NELECT =    1134.0000    total number of electrons
   NUPDOWN=      -1.0000    fix difference up-down

 DOS related values:
   EMIN   =  10.00;   EMAX   =-10.00  energy-range for DOS
   EFERMI =   0.00
   ISMEAR =     0;   SIGMA  =   0.05  broadening in eV -4-tet -1-fermi 0-gaus

 Electronic relaxation 2 (details)
   IALGO  =     38    algorithm
   LDIAG  =      T    sub-space diagonalisation (order eigenvalues)
   LSUBROT=      F    optimize rotation matrix (better conditioning)
   TURBO    =      0    0=normal 1=particle mesh
   IRESTART =      0    0=no restart 2=restart with 2 vectors
   NREBOOT  =      0    no. of reboots
   NMIN     =      0    reboot dimension
   EREF     =   0.00    reference energy to select bands
   IMIX   =      4    mixing-type and parameters
     AMIX     =   0.40;   BMIX     =  0.01
     AMIX_MAG =   1.60;   BMIX_MAG =  0.01
     AMIN     =   0.01
     WC   =   100.;   INIMIX=   1;  MIXPRE=   1;  MAXMIX= -45

 Intra band minimization:
   WEIMIN = 0.0000     energy-eigenvalue tresh-hold
   EBREAK =  0.34E-07  absolut break condition
   DEPER  =   0.30     relativ break condition  

   TIME   =   0.40     timestep for ELM

  volume/ion in A,a.u.               =      62.72       423.28
  Fermi-wavevector in a.u.,A,eV,Ry     =   0.624944  1.180972  5.313816  0.390554
  Thomas-Fermi vector in A             =   1.685677
 
 Write flags
   LWAVE        =      F    write WAVECAR
   LDOWNSAMPLE  =      F    k-point downsampling of WAVECAR
   LCHARG       =      T    write CHGCAR
   LVTOT        =      T    write LOCPOT, total local potential
   LVHAR        =      F    write LOCPOT, Hartree potential only
   LELF         =      F    write electronic localiz. function (ELF)
   LORBIT       =      0    0 simple, 1 ext, 2 COOP (PROOUT), +10 PAW based schemes


 Dipole corrections
   LMONO  =      F    monopole corrections only (constant potential shift)
   LDIPOL =      T    correct potential (dipole corrections)
   IDIPOL =      3    1-x, 2-y, 3-z, 4-all directions 
   EPSILON=  1.0000000 bulk dielectric constant

 Exchange correlation treatment:
   GGA     =    --    GGA type
   LEXCH   =     8    internal setting for exchange type
   VOSKOWN=      0    Vosko Wilk Nusair interpolation
   LHFCALC =     F    Hartree Fock is set to
   LHFONE  =     F    Hartree Fock one center treatment
   AEXX    =    0.0000 exact exchange contribution

 Linear response parameters
   LEPSILON=     F    determine dielectric tensor
   LRPA    =     F    only Hartree local field effects (RPA)
   LNABLA  =     F    use nabla operator in PAW spheres
   LVEL    =     F    velocity operator in full k-point grid
   LINTERFAST=   F  fast interpolation
   KINTER  =     0    interpolate to denser k-point grid
   CSHIFT  =0.1000    complex shift for real part using Kramers Kronig
   OMEGAMAX=  -1.0    maximum frequency
   DEG_THRESHOLD= 0.2000000E-02 threshold for treating states as degnerate
   RTIME   =   -0.100 relaxation time in fs
  (WPLASMAI=    0.000 imaginary part of plasma frequency in eV, 0.658/RTIME)
   DFIELD  = 0.0000000 0.0000000 0.0000000 field for delta impulse in time
 
 Orbital magnetization related:
   ORBITALMAG=     F  switch on orbital magnetization
   LCHIMAG   =     F  perturbation theory with respect to B field
   DQ        =  0.001000  dq finite difference perturbation B field
   LLRAUG    =     F  two centre corrections for induced B field



--------------------------------------------------------------------------------------------------------


 Static calculation
 charge density and potential will be updated during run
 non-spin polarized calculation
 Variant of blocked Davidson
 Davidson routine will perform the subspace rotation
 perform sub-space diagonalisation
    after iterative eigenvector-optimisation
 modified Broyden-mixing scheme, WC =      100.0
 initial mixing is a Kerker type mixing with AMIX =  0.4000 and BMIX =      0.0100
 Hartree-type preconditioning will be used
 using additional bands           165
 real space projection scheme for non local part
[...]
     13.54561      0.00000     45.35368        -0.004227      0.004533      0.010220
     13.54315      9.03140     45.35368         0.003146      0.004548      0.019468
     14.03724      9.46211     32.75784         0.931186     -0.560266      0.052367
     15.73986      9.36285     33.45873        -0.305138     -0.043580     -0.015805
     13.87385     11.37757     33.81698         0.255424      0.269843      0.222546
     13.97126     11.53262     35.58067         0.121450     -0.160566     -0.267171
     12.36819      8.48972     35.23634        -0.283469      0.146056     -0.283138
     12.19616     10.22919     35.57167         0.276869     -0.108233     -0.030187
     14.59830      7.80730     35.86217        -0.028336      0.773599      0.189882
     15.74815      9.17635     36.03426        -0.013830     -0.124371      0.013972
     15.47517      7.10351     34.22078        -0.475552      0.258453     -0.608387
     13.72623      7.04168     33.82011         0.231723      0.099361      0.028405
     14.03662      7.16596     31.51872         0.267832      0.045293      0.004116
     15.66417      7.86644     31.64456        -0.237844     -0.497278     -0.087780
     16.27766     11.49366     33.56819         0.058694      0.066371      0.103780
     16.65298     11.00022     35.25605        -0.638084      0.159089     -0.304492
     15.84967     12.57037     34.95417         0.231488     -0.203834     -0.303176
     10.85266      9.81116     33.68837         0.023307     -0.159826     -0.173616
     12.09609      8.92530     32.81871        -0.054431     -0.537656     -0.550414
     12.16733     10.70203     32.94694         0.251637     -0.343062      0.546319
     13.17403      8.67959     37.60126        -0.277668     -0.111981      0.010791
     13.51572     10.37092     37.06206         0.087633     -0.708016      0.483637
     14.65515      9.58978     38.16317        -0.551562     -0.462217     -1.035535
     15.14665      4.93804     32.59037        -0.030967      0.692009     -0.664522
     15.18003      5.28997     30.84331         0.140673      0.136246      0.296896
     17.02102      3.38736     31.44625         0.145799      0.247810      0.059929
     17.45917      7.58981     32.36704         0.298886     -0.318839     -0.239003
      1.42216      3.11646     31.63737        -0.231683      0.378652     -0.146615
      1.79284      7.30273     32.57734         0.269922      0.368139      0.061500
      2.87157      5.04862     32.18938         0.609063      0.006551      0.178989
     17.92053      4.25054     34.94162        -0.460643     -0.051088      0.212357
      0.29697     13.84283     34.75580         0.359486      0.308701     -0.297505
      9.12219      4.55892     34.80754        -0.775943     -0.008233      1.542274
      9.15049     13.80723     34.76215         0.059555     -0.145902      0.456135
      4.55352      9.02421     34.74556         0.084600      0.139992      0.255302
      4.64698     17.92447     34.77637        -0.202997     -0.090497      0.226993
     13.68051     17.93606     34.79378         0.058007      0.301668      0.284152
     18.05849      4.50001     40.53557         1.284047     -1.313648      0.068094
      0.05098     13.71047     40.64575         1.484362     -1.114879     -0.657525
      9.05927      4.57579     40.45548         0.056940     -0.230412      0.366968
      9.01595     13.53334     40.62190         0.015938     -0.222595      0.248555
      4.49886      9.03260     40.54475        -0.010970      0.009397      0.834343
      4.54377     18.00881     40.53225        -0.826805     -0.943783      0.094566
     13.35152      8.92279     40.72635         0.872301      1.100386      0.182386
     13.55517      0.05586     40.53723        -0.025572     -0.076444      0.709074
      9.02897      4.51561     46.44552         0.013830      0.002425      0.043916
      9.02651     13.54701     46.44552         0.005598      0.010417      0.046841
     18.05937      4.51561     46.44552         0.013586      0.004599      0.041878
     18.05691     13.54701     46.44552         0.030229     -0.013988      0.050782
      4.51521      0.00002     46.44421         0.006335      0.007569      0.050028
      4.51275      9.03142     46.44421        -0.011320     -0.010177      0.052344
     13.54561      0.00002     46.44421        -0.001243      0.002688      0.050524
     13.54315      9.03142     46.44421        -0.011144     -0.010937      0.068819
     17.03693      5.50902     31.87443         1.011239      1.306279     -0.193585
     17.64038      4.27354     31.66585         0.354958     -0.749909     -0.306410
     17.90485      6.61134     32.12326        -1.321173     -0.306355      0.485312
      0.97515      4.12292     31.73530         0.491527     -0.168149      0.516439
      1.20613      6.44942     32.27621         0.581573     -0.407442     -0.046181
      1.81543      5.20260     32.09965        -1.497304     -0.436948     -0.721913
     14.69931      8.99825     33.53657        -0.745928      0.032703     -0.032661
     14.44696     11.06701     34.70006         0.165795     -0.131817      0.474785
     12.56192      9.49844     34.83357         0.828311      0.019382     -0.424086
     14.68505      8.90598     36.03699        -0.218348      0.020284     -0.118905
     14.69139      7.47870     33.50229         0.319111     -0.077469      0.582536
     14.99340      7.08338     32.07368        -0.105316     -0.154147     -0.935131
     15.91693     11.52272     34.60621        -0.583987     -0.041165      0.237175
     11.93486      9.75321     33.48501        -0.791415      0.573743      0.127111
     13.95543      9.37032     37.29812         0.931188      1.279484     -0.022336
     15.55681      5.66970     31.81956        -0.842794     -0.577996      0.521676
      0.90435      3.70050     35.53691         0.227493     -0.362995     -1.373626
      0.92002     12.84703     35.33689        -0.402160     -0.147878      0.820473
      9.96500      3.73729     35.42400        -0.824009      0.396407      0.136690
     10.04154     13.02512     35.36864        -1.638718      0.530931      0.346025
      8.10841      5.19843     35.41506         0.753345     -0.709204      0.927898
      8.04344     14.31126     35.31537         1.337550     -0.767088     -0.025606
     17.01101      5.04648     35.50657         0.979088     -0.663414     -0.573905
     17.47148     14.61960     35.33539        -0.265670     -0.357658      0.638707
      4.02484      8.10453     35.52616        -0.551809     -0.662092     -0.841848
      3.57488     17.41547     35.35233        -0.657788     -0.723765     -0.994925
     12.83096     17.12616     35.37852        -0.614729     -0.782086     -0.863915
      5.53361      0.61796     35.38619         0.882350      0.547201     -0.872886
      5.27455     10.04158     35.17767         0.242601      0.692930     -1.330579
     14.25574      0.90589     35.38384         0.873792      0.466367     -0.986673
      0.83042      3.65306     41.12664        -0.496314      0.461950      0.818244
      0.90292     12.87066     41.23188        -0.603540      0.420978      0.106149
      9.80222      3.66906     41.06530        -0.470781      0.372289      0.718726
      9.77460     12.71953     41.34106         0.272705     -0.241125     -2.508056
      3.67877      8.23745     41.20369        -0.785866     -0.842951     -0.886864
      3.73579     17.19727     41.18431        -0.969810     -1.058126     -0.764013
     12.67403      8.11999     41.50529        -0.039652     -0.136060     -0.091284
     12.67722     17.39332     41.20633        -0.874914     -0.803295     -0.851463
      8.16000      5.36026     41.02002         0.091085     -0.170640      0.474611
      8.14177     14.40040     41.10357         0.490718     -0.436072      0.259785
     17.23555      5.30471     41.12764        -1.236101      1.210432     -0.604252
     17.19693     14.42254     41.22543        -0.464994      0.234085      1.166132
      5.31966      0.83244     41.08285         1.641742      1.622527     -0.763477
      5.35164      9.88219     41.10111        -0.429840     -0.422031     -0.024540
     14.50111      0.79966     41.08043         0.249496      0.311305     -0.352999
     14.23937      9.85297     41.11159        -0.973320     -1.069869     -0.146384
      0.82731      3.68697     47.03596         0.015083     -0.024759     -0.088243
      0.82485     12.71837     47.03596         0.007549     -0.008309     -0.097702
      9.85771      3.68697     47.03596         0.016538     -0.019392     -0.083825
      9.85525     12.71837     47.03596         0.026530     -0.022734     -0.088944
      3.68432      8.20234     47.03465        -0.004594     -0.003538     -0.078822
      3.68186     17.23373     47.03465        -0.016358     -0.015641     -0.072500
     12.71472      8.20234     47.03465        -0.002626     -0.002983     -0.087088
     12.71226     17.23373     47.03465        -0.006187     -0.016616     -0.073063
      8.20068      5.34457     47.03603        -0.019192      0.018690     -0.088516
      8.19822     14.37597     47.03603        -0.016537      0.011530     -0.094566
     17.23108      5.34457     47.03603        -0.021472      0.017504     -0.095279
     17.22862     14.37597     47.03603        -0.032372      0.026307     -0.092857
      5.34365      0.82909     47.03465         0.006801      0.004689     -0.076502
      5.34119      9.86049     47.03465         0.015572      0.017814     -0.072099
     14.37405      0.82909     47.03465         0.013722      0.006048     -0.073026
     14.37159      9.86049     47.03465         0.011671      0.018880     -0.081955
     14.11069      9.59609     34.77935         0.353442     -0.056097      1.040947
      8.93556      0.02536     34.50931         0.029034      0.007982      0.016549
      8.61771      8.70775     34.66982        -0.134474      0.044568     -0.008570
     18.02416      0.02596     34.43615        -0.042752      0.027297      0.056424
      0.36169      8.99224     34.83589         0.332684     -0.102752     -0.144778
      4.71903      4.43561     34.62189        -0.146965      0.007988      0.043716
      4.48180     13.70484     34.47153        -0.020047     -0.018147      0.040578
     13.28456      4.17910     34.70781         0.215453      0.087473     -0.106691
     13.16337     13.92623     34.19270        -0.250160      0.625037     -0.000086
      0.02955      0.07265     40.85768         0.036044     -0.086072      0.056172
      0.11045      9.02261     41.01940        -0.072679      0.028402     -0.166477
      9.12706      0.07799     40.91497        -0.116566     -0.068576     -0.069966
      9.04780      9.01914     40.95998        -0.024192     -0.014998     -0.152518
      4.47161      4.45826     40.96228         0.035991      0.010687     -0.115548
      4.45169     13.59627     40.88402         0.070204     -0.035911     -0.006804
     13.41096      4.48452     40.98959         0.037553     -0.008785     -0.197395
     13.49554     13.64558     40.86037         0.037556      0.008780     -0.079660
      2.63830      1.89514     38.07258        -0.015983     -0.084352     -0.060462
      2.69119     10.96167     38.06705        -0.040654      0.005074     -0.068254
     11.62497      1.93579     38.09591        -0.100909     -0.017222     -0.074165
     11.23281     11.35402     38.32362        -0.076485      0.076591     -0.097531
      6.43904      7.06930     38.15541         0.088492     -0.011641     -0.044112
      6.42143     16.12425     38.05685         0.144898      0.027523     -0.047227
     15.85458      6.74923     38.31089         0.054541     -0.072380      0.068571
     15.45982     16.18820     38.01169         0.031901     -0.039141     -0.042024
      2.00891      6.37144     38.08229         0.025121      0.129338     -0.031998
      1.92236     15.47401     38.03238         0.008438      0.123761     -0.068458
     11.10275      6.56034     37.90789        -0.041756      0.071311      0.002123
     10.95167     15.56030     38.11230         0.123952      0.038619     -0.044384
      7.12470      2.55040     38.09753        -0.003820      0.029531     -0.013915
      7.05199     11.62985     37.93484        -0.030014     -0.013905     -0.026838
     16.08533      2.50002     38.07471        -0.018558     -0.048949      0.008931
     16.41807     11.92009     38.29459        -0.055595     -0.085812     -0.227530
      0.00000      0.00000     47.17356        -0.003126     -0.003305      0.366376
     -0.00246      9.03140     47.17356        -0.002962      0.004326      0.540884
      9.03040      0.00000     47.17356        -0.000723     -0.003274      0.470731
      9.02794      9.03140     47.17356         0.001954      0.003996      0.505715
      4.51398      4.51570     47.17425        -0.001205     -0.002929      0.497926
      4.51152     13.54710     47.17425        -0.001641      0.002226      0.398111
     13.54438      4.51570     47.17425         0.002557      0.000128      0.481876
     13.54192     13.54710     47.17425         0.002534      0.000989      0.273656
      2.45192      2.06295     44.04013        -0.024999     -0.044729     -0.008373
      2.44946     11.09435     44.04013         0.033308      0.010594      0.007348
     11.48232      2.06295     44.04013        -0.018519      0.001469     -0.011944
     11.47986     11.09435     44.04013         0.084410      0.002141      0.020465
      6.57602      6.96845     44.04013         0.010367     -0.020431     -0.059167
      6.57356     15.99985     44.04013        -0.006417     -0.016967     -0.035810
     15.60642      6.96845     44.04013        -0.008323     -0.006060     -0.056980
     15.60396     15.99985     44.04013        -0.037773      0.007877      0.003335
      2.06108      6.57881     44.04000        -0.004730     -0.003784      0.000428
      2.05862     15.61021     44.04000        -0.020454      0.010100     -0.010231
     11.09148      6.57881     44.04000        -0.108214     -0.109671      0.189142
     11.08902     15.61021     44.04000         0.025810     -0.027989     -0.021859
      6.96686      2.45259     44.04007         0.002984     -0.010313     -0.064800
      6.96440     11.48399     44.04007        -0.022086      0.016604     -0.043347
     15.99726      2.45259     44.04007         0.012971     -0.023940     -0.043847
     15.99481     11.48399     44.04007        -0.051319      0.031914     -0.084559
      2.43163      2.08322     50.06849        -0.005728     -0.026673      0.022661
      2.42917     11.11462     50.06849         0.017952      0.001137      0.021452
     11.46203      2.08322     50.06849         0.008939     -0.014054      0.023861
     11.45957     11.11462     50.06849         0.029788      0.009618      0.021138
      6.59631      6.94818     50.06849        -0.007242      0.013917      0.024434
      6.59385     15.97958     50.06849        -0.014475      0.005180      0.022561
     15.62671      6.94818     50.06849        -0.013243      0.008168      0.022741
     15.62425     15.97958     50.06849        -0.017438      0.002514      0.019885
      2.08113      6.59901     50.06905        -0.011786     -0.008486      0.023777
      2.07867     15.63041     50.06905        -0.015963     -0.006295      0.021346
     11.11153      6.59901     50.06905        -0.007956     -0.009236      0.023069
     11.10907     15.63041     50.06905         0.006253     -0.026570      0.021809
      6.94681      2.43239     50.06905         0.015565      0.002246      0.024217
      6.94435     11.46379     50.06905         0.002839      0.018658      0.023027
     15.97721      2.43239     50.06905         0.020406     -0.002400      0.022235
     15.97475     11.46379     50.06905        -0.011196      0.031973      0.020671
     18.05850      0.00455     37.69272         0.012658      0.105423     -0.062964
      0.19207      9.06741     37.88931        -0.070939      0.007839      0.107177
      8.99406      0.01899     37.63744         0.100062     -0.105094      0.069500
      9.02331      9.00773     37.70908        -0.045297      0.000543      0.052996
      4.58263      4.45609     37.76520        -0.077295      0.059078     -0.026390
      4.49182     13.61518     37.69521        -0.005182     -0.029296     -0.071714
     13.54866      4.53209     37.85468         0.012040     -0.051831     -0.059368
     13.54737     13.70492     37.77669        -0.038909     -0.091676      0.022131
      0.00001      0.00001     44.04300         0.051309      0.020819      0.024233
     -0.00245      9.03141     44.04300         0.046226     -0.025103      0.283692
      9.03041      0.00001     44.04300         0.011638      0.016475      0.011601
      9.02795      9.03141     44.04300        -0.035004     -0.036623      0.105645
      4.51397      4.51569     44.04275        -0.016643      0.027035      0.141481
      4.51151     13.54709     44.04275        -0.010150     -0.005405      0.056667
     13.54437      4.51569     44.04275        -0.025131     -0.040466      0.277357
     13.54191     13.54709     44.04275        -0.043779      0.007501      0.179423
      0.00000      0.00000     50.44728         0.010698      0.017381     -0.613766
     -0.00246      9.03140     50.44728         0.008794     -0.018738     -0.659703
      9.03040      0.00000     50.44728        -0.008428      0.018805     -0.642946
      9.02794      9.03140     50.44728        -0.011863     -0.017407     -0.650223
      4.51397      4.51570     50.44728         0.003505      0.010603     -0.650813
      4.51151     13.54710     50.44728         0.004961     -0.009993     -0.623067
     13.54437      4.51570     50.44728        -0.005468      0.009133     -0.644188
     13.54191     13.54710     50.44728        -0.003929     -0.010026     -0.586322
 -----------------------------------------------------------------------------------
    total drift:                                0.060896      0.013857      0.483856


--------------------------------------------------------------------------------------------------------



  FREE ENERGIE OF THE ION-ELECTRON SYSTEM (eV)
  ---------------------------------------------------
  free  energy   TOTEN  =     -1571.82682875 eV

  energy  without entropy=    -1571.82682875  energy(sigma->0) =    -1571.82682875
 


--------------------------------------------------------------------------------------------------------


    POTLOK:  cpu time    0.5013: real time    0.5013


--------------------------------------------------------------------------------------------------------


     LOOP+:  cpu time  305.1836: real time  305.9252
 vacuum level on the upper side and lower side of the slab         2.433         1.453
    4ORBIT:  cpu time    0.0000: real time    0.0000

 total amount of memory used by VASP MPI-rank0  8653570. kBytes
=======================================================================

   base      :      30000. kBytes
   nonlr-proj:      53608. kBytes
   fftplans  :     249280. kBytes
   grid      :     701440. kBytes
   one-center:       2636. kBytes
   wavefun   :    7616606. kBytes
 
  
  
 General timing and accounting informations for this job:
 ========================================================
  
                  Total CPU time used (sec):      518.046
                            User time (sec):      417.536
                          System time (sec):      100.510
                         Elapsed time (sec):      520.547
  
                   Maximum memory used (kb):    10306860.
                   Average memory used (kb):          N/A
  
                          Minor page faults:      3685317
                          Major page faults:           12
                 Voluntary context switches:        11184
