<?xml version="1.0" encoding="ISO-8859-1"?>
<modeling>
 <generator>
  <i name="program" type="string">vasp </i>
  <i name="version" type="string">6.2.1  </i>
  <i name="subversion" type="string">16May21 (build Nov 15 2021 14:57:28) complex                          parallel </i>
  <i name="platform" type="string">LinuxPGI </i>
  <i name="date" type="string">2023 07 30 </i>
  <i name="time" type="string">09:28:20 </i>
 </generator>
 <incar>
  <i type="string" name="SYSTEM">PSC</i>
  <i type="int" name="ISTART">     1</i>
  <i type="string" name="PREC">Normal</i>
  <i name="BMIX">      0.01000000</i>
  <i name="AMIN">      0.01000000</i>
  <i type="int" name="ICHARG">     1</i>
  <i type="int" name="NELM">   600</i>
  <i type="int" name="ISYM">     0</i>
  <i name="ENCUT">    500.00000000</i>
  <i type="string" name="LREAL">Auto</i>
  <i type="int" name="ISMEAR">     0</i>
  <i name="SIGMA">      0.05000000</i>
  <i type="logical" name="LWAVE"> F  </i>
  <i type="logical" name="LVTOT"> T  </i>
  <i type="logical" name="GGA_COMPAT"> F  </i>
  <i type="logical" name="LDIPOL"> T  </i>
  <i type="int" name="IDIPOL">     3</i>
  <i type="int" name="IVDW">    12</i>
 </incar>
 <primitive_cell>
  <structure name="primitive_cell" >
   <crystal>
    <varray name="basis" >
     <v>      18.06080055       0.00000000       0.00000000 </v>
     <v>      -0.00491865      18.06279945       0.00000000 </v>
     <v>       0.00000000       0.00000000      62.48749924 </v>
    </varray>
    <i name="volume">  20385.21054034 </i>
    <varray name="rec_basis" >
     <v>       0.05536853       0.00001508      -0.00000000 </v>
     <v>       0.00000000       0.05536240       0.00000000 </v>
     <v>       0.00000000      -0.00000000       0.01600320 </v>
    </varray>
   </crystal>
   <varray name="positions" >
    <v>       0.43718734       0.28526116       0.58364744 </v>
    <v>       0.43248240       0.78244437       0.58097991 </v>
    <v>       0.94282452       0.29504703       0.58414375 </v>
    <v>       0.95203444       0.80469739       0.58139162 </v>
    <v>       0.30414543       0.05015824       0.58200612 </v>
    <v>       0.30648841       0.56652996       0.57857867 </v>
    <v>       0.78096939       0.06583416       0.58180997 </v>
    <v>       0.08681742       0.17313903       0.55908124 </v>
    <v>       0.08807252       0.67980363       0.55757362 </v>
    <v>       0.59595958       0.18636681       0.55848194 </v>
    <v>       0.60245100       0.70487541       0.55788343 </v>
    <v>       0.35247739       0.05368516       0.55764120 </v>
    <v>       0.31309958       0.59387981       0.55174592 </v>
    <v>       0.82571126       0.08347008       0.55746141 </v>
    <v>       0.06214505       0.21376289       0.58443538 </v>
    <v>       0.04218393       0.69575514       0.58124773 </v>
    <v>       0.54859886       0.19468238       0.58321022 </v>
    <v>       0.54995129       0.70722824       0.58206594 </v>
    <v>       0.22875885       0.44748635       0.58478084 </v>
    <v>       0.18376790       0.97203106       0.58142641 </v>
    <v>       0.69344473       0.95189382       0.58171877 </v>
    <v>       0.41395631       0.32091880       0.55829508 </v>
    <v>       0.41176516       0.82584609       0.55660834 </v>
    <v>       0.90197690       0.29987625       0.55826626 </v>
    <v>       0.94221854       0.85071851       0.55735696 </v>
    <v>       0.19210809       0.40588424       0.56174511 </v>
    <v>       0.16204171       0.93145889       0.55665736 </v>
    <v>       0.68928283       0.90291832       0.55737021 </v>
    <v>       0.51236368       0.25941914       0.53981048 </v>
    <v>       0.51965759       0.77765039       0.53954004 </v>
    <v>       0.98272011       0.21973835       0.54223492 </v>
    <v>       0.03314170       0.77972181       0.53957417 </v>
    <v>       0.24252570       0.49475006       0.53858453 </v>
    <v>       0.26686600       0.97904162       0.53948248 </v>
    <v>       0.77199858       0.98259600       0.53988038 </v>
    <v>       0.43892726       0.29752757       0.67266567 </v>
    <v>       0.44189597       0.80381783       0.67399675 </v>
    <v>       0.94521201       0.30201347       0.67399150 </v>
    <v>       0.94332187       0.79762883       0.67620459 </v>
    <v>       0.30013404       0.05654029       0.67354848 </v>
    <v>       0.30253530       0.55382874       0.67408649 </v>
    <v>       0.81193179       0.05008793       0.67373815 </v>
    <v>       0.80179161       0.55420048       0.67371312 </v>
    <v>       0.07993051       0.16904853       0.64938941 </v>
    <v>       0.08803568       0.68434218       0.65066609 </v>
    <v>       0.57977742       0.17284367       0.64852144 </v>
    <v>       0.57552133       0.66701862       0.65315267 </v>
    <v>       0.16847904       0.42086012       0.65041397 </v>
    <v>       0.17493558       0.91377358       0.65016978 </v>
    <v>       0.66724818       0.41211228       0.65705494 </v>
    <v>       0.66284843       0.93201473       0.65062000 </v>
    <v>       0.04874716       0.19693440       0.67468536 </v>
    <v>       0.05053055       0.70323895       0.67613163 </v>
    <v>       0.53987176       0.19315951       0.67354817 </v>
    <v>       0.54265007       0.70134430       0.67736540 </v>
    <v>       0.19830761       0.45205140       0.67569301 </v>
    <v>       0.20000774       0.94959402       0.67536268 </v>
    <v>       0.70344884       0.44750551       0.68071696 </v>
    <v>       0.69864167       0.95816787       0.67571926 </v>
    <v>       0.42331924       0.33385806       0.64727058 </v>
    <v>       0.42159260       0.82986954       0.64759077 </v>
    <v>       0.92121509       0.32724043       0.64848652 </v>
    <v>       0.91947533       0.83204475       0.65077219 </v>
    <v>       0.32867767       0.07897410       0.64734969 </v>
    <v>       0.32909698       0.57860818       0.64810399 </v>
    <v>       0.83706626       0.07504289       0.64735928 </v>
    <v>       0.81272431       0.57760750       0.64645681 </v>
    <v>       0.00291742       0.24796547       0.63124320 </v>
    <v>       0.01028801       0.76361713       0.63300136 </v>
    <v>       0.51087447       0.25846022       0.63022151 </v>
    <v>       0.50577160       0.74437797       0.63257428 </v>
    <v>       0.25176770       0.98959570       0.63122476 </v>
    <v>       0.24557493       0.49596034       0.63146914 </v>
    <v>       0.74499339       0.00033200       0.63135321 </v>
    <v>       0.72937251       0.49007245       0.63449977 </v>
    <v>       0.44874502       0.30128397       0.76888902 </v>
    <v>       0.44874501       0.80128391       0.76888902 </v>
    <v>       0.94874497       0.30128397       0.76888902 </v>
    <v>       0.94874501       0.80128391       0.76888902 </v>
    <v>       0.30127600       0.05129450       0.76887296 </v>
    <v>       0.30127601       0.55129450       0.76887296 </v>
    <v>       0.80127594       0.05129450       0.76887296 </v>
    <v>       0.80127598       0.55129450       0.76887296 </v>
    <v>       0.07877100       0.17118050       0.74344197 </v>
    <v>       0.07877101       0.67118045       0.74344197 </v>
    <v>       0.57877100       0.17118050       0.74344197 </v>
    <v>       0.57877099       0.67118045       0.74344197 </v>
    <v>       0.17119950       0.42117448       0.74342103 </v>
    <v>       0.17119950       0.92117451       0.74342103 </v>
    <v>       0.67119951       0.42117448       0.74342103 </v>
    <v>       0.67119950       0.92117451       0.74342103 </v>
    <v>       0.05125600       0.19871499       0.76888902 </v>
    <v>       0.05125600       0.69871493       0.76888902 </v>
    <v>       0.55125603       0.19871499       0.76888902 </v>
    <v>       0.55125602       0.69871493       0.76888902 </v>
    <v>       0.19872349       0.44870397       0.76887205 </v>
    <v>       0.19872349       0.94870397       0.76887205 </v>
    <v>       0.69872352       0.44870397       0.76887205 </v>
    <v>       0.69872351       0.94870397       0.76887205 </v>
    <v>       0.42123152       0.32881747       0.74344197 </v>
    <v>       0.42123151       0.82881744       0.74344197 </v>
    <v>       0.92123147       0.32881747       0.74344197 </v>
    <v>       0.92123151       0.82881744       0.74344197 </v>
    <v>       0.32880050       0.07882500       0.74342103 </v>
    <v>       0.32880049       0.57882496       0.74342103 </v>
    <v>       0.82880048       0.07882500       0.74342103 </v>
    <v>       0.82880052       0.57882496       0.74342103 </v>
    <v>       0.00000350       0.25000148       0.72582199 </v>
    <v>       0.00000350       0.75000145       0.72582199 </v>
    <v>       0.50000351       0.25000148       0.72582199 </v>
    <v>       0.50000350       0.75000145       0.72582199 </v>
    <v>       0.25000050       0.00000000       0.72580398 </v>
    <v>       0.25000052       0.50000000       0.72580398 </v>
    <v>       0.75000050       0.00000000       0.72580398 </v>
    <v>       0.75000049       0.50000000       0.72580398 </v>
    <v>       0.77736403       0.52384534       0.52423022 </v>
    <v>       0.87163423       0.51834968       0.53544682 </v>
    <v>       0.76834644       0.62988985       0.54117996 </v>
    <v>       0.77374182       0.63847370       0.56940454 </v>
    <v>       0.68493630       0.47001122       0.56389416 </v>
    <v>       0.67543755       0.56631244       0.56926053 </v>
    <v>       0.80840414       0.43223111       0.57390947 </v>
    <v>       0.87209028       0.50802483       0.57666356 </v>
    <v>       0.85694454       0.39326762       0.54764207 </v>
    <v>       0.76010724       0.38984417       0.54122996 </v>
    <v>       0.77729498       0.39672500       0.50440042 </v>
    <v>       0.86742044       0.43550499       0.50641428 </v>
    <v>       0.90144323       0.63631680       0.53719845 </v>
    <v>       0.92221684       0.60899853       0.56420971 </v>
    <v>       0.87776260       0.69592604       0.55937855 </v>
    <v>       0.60104367       0.54316962       0.53912181 </v>
    <v>       0.66987722       0.49412615       0.52520441 </v>
    <v>       0.67384827       0.59249028       0.52725652 </v>
    <v>       0.72955773       0.48052319       0.60174047 </v>
    <v>       0.74850169       0.57415923       0.59311155 </v>
    <v>       0.81157869       0.53091321       0.61073293 </v>
    <v>       0.83872229       0.27338162       0.52155024 </v>
    <v>       0.84057556       0.29286540       0.49359161 </v>
    <v>       0.94247968       0.18753264       0.50324064 </v>
    <v>       0.96680289       0.42019028       0.51797628 </v>
    <v>       0.07879017       0.17253476       0.50629920 </v>
    <v>       0.09937676       0.40429677       0.52134170 </v>
    <v>       0.15907066       0.27950359       0.51513312 </v>
    <v>       0.99229764       0.23532026       0.55917770 </v>
    <v>       0.01665163       0.76637222       0.55620402 </v>
    <v>       0.50515076       0.25239282       0.55703207 </v>
    <v>       0.50685709       0.76440123       0.55630566 </v>
    <v>       0.25225781       0.49960206       0.55604011 </v>
    <v>       0.25756651       0.99234152       0.55653325 </v>
    <v>       0.75773991       0.99298317       0.55681187 </v>
    <v>       0.99993969       0.24913158       0.64869884 </v>
    <v>       0.00302958       0.75904433       0.65046207 </v>
    <v>       0.50166741       0.25332652       0.64741721 </v>
    <v>       0.49940402       0.74923800       0.65008046 </v>
    <v>       0.24923142       0.50006637       0.64884572 </v>
    <v>       0.25185320       0.99701098       0.64864579 </v>
    <v>       0.73938851       0.49398719       0.65175200 </v>
    <v>       0.75053059       0.00309251       0.64872540 </v>
    <v>       0.49998898       0.24999498       0.74327702 </v>
    <v>       0.49998903       0.74999496       0.74327702 </v>
    <v>       0.99998898       0.24999498       0.74327702 </v>
    <v>       0.99998903       0.74999496       0.74327702 </v>
    <v>       0.25000050       0.00000100       0.74325596 </v>
    <v>       0.25000052       0.50000100       0.74325596 </v>
    <v>       0.75000050       0.00000100       0.74325596 </v>
    <v>       0.75000049       0.50000100       0.74325596 </v>
    <v>       0.94339286       0.30499250       0.51009293 </v>
    <v>       0.97678620       0.23659361       0.50675492 </v>
    <v>       0.99146503       0.36601955       0.51407493 </v>
    <v>       0.05405484       0.22825500       0.50786641 </v>
    <v>       0.06687862       0.35705542       0.51652268 </v>
    <v>       0.10059622       0.28802863       0.51369711 </v>
    <v>       0.81401489       0.49816480       0.53669243 </v>
    <v>       0.80007358       0.61269643       0.55531206 </v>
    <v>       0.69567807       0.52585667       0.55744865 </v>
    <v>       0.81322414       0.49305663       0.57670727 </v>
    <v>       0.81355329       0.41403887       0.53614380 </v>
    <v>       0.83026953       0.39215298       0.51328156 </v>
    <v>       0.88147083       0.63792560       0.55381011 </v>
    <v>       0.66096300       0.53996110       0.53586737 </v>
    <v>       0.77283273       0.51876367       0.59688928 </v>
    <v>       0.86144317       0.31388802       0.50921489 </v>
    <v>       0.05012834       0.20486866       0.56870439 </v>
    <v>       0.05113381       0.71124229       0.56550343 </v>
    <v>       0.55180403       0.20690543       0.56689732 </v>
    <v>       0.55618171       0.72110210       0.56601140 </v>
    <v>       0.44902934       0.28779780       0.56675429 </v>
    <v>       0.44556949       0.79230577       0.56515900 </v>
    <v>       0.94195100       0.27938538       0.56821875 </v>
    <v>       0.96759068       0.80937611       0.56547937 </v>
    <v>       0.22297148       0.44868607       0.56853229 </v>
    <v>       0.19819821       0.96416230       0.56575043 </v>
    <v>       0.71068966       0.94814515       0.56616958 </v>
    <v>       0.30639735       0.03421175       0.56629234 </v>
    <v>       0.29219546       0.55592623       0.56295525 </v>
    <v>       0.78933284       0.05015203       0.56625468 </v>
    <v>       0.04603413       0.20224231       0.65815782 </v>
    <v>       0.05018755       0.71255072       0.65984206 </v>
    <v>       0.54278992       0.20312825       0.65717630 </v>
    <v>       0.54139676       0.70418355       0.66158924 </v>
    <v>       0.20381233       0.45604491       0.65939098 </v>
    <v>       0.20710445       0.95208235       0.65908080 </v>
    <v>       0.70186466       0.44954197       0.66421757 </v>
    <v>       0.70218155       0.96293610       0.65943323 </v>
    <v>       0.45188776       0.29675696       0.65645155 </v>
    <v>       0.45101488       0.79724082       0.65778873 </v>
    <v>       0.95438732       0.29368152       0.65817382 </v>
    <v>       0.95238599       0.79846673       0.65973883 </v>
    <v>       0.29455456       0.04608562       0.65745706 </v>
    <v>       0.29646127       0.54710204       0.65774929 </v>
    <v>       0.80291701       0.04427134       0.65741842 </v>
    <v>       0.78856147       0.54548432       0.65791705 </v>
    <v>       0.04586250       0.20411950       0.75272599 </v>
    <v>       0.04586250       0.70411946       0.75272599 </v>
    <v>       0.54586251       0.20411950       0.75272599 </v>
    <v>       0.54586250       0.70411946       0.75272599 </v>
    <v>       0.20411900       0.45410100       0.75270499 </v>
    <v>       0.20411899       0.95410095       0.75270499 </v>
    <v>       0.70411898       0.45410100       0.75270499 </v>
    <v>       0.70411896       0.95410095       0.75270499 </v>
    <v>       0.45414002       0.29588849       0.75272697 </v>
    <v>       0.45414001       0.79588852       0.75272697 </v>
    <v>       0.95414002       0.29588849       0.75272697 </v>
    <v>       0.95414006       0.79588852       0.75272697 </v>
    <v>       0.29588249       0.04590050       0.75270499 </v>
    <v>       0.29588248       0.54590053       0.75270499 </v>
    <v>       0.79588244       0.04590050       0.75270499 </v>
    <v>       0.79588248       0.54590053       0.75270499 </v>
    <v>       0.78143292       0.53126236       0.55658087 </v>
    <v>       0.49474933       0.00140395       0.55225938 </v>
    <v>       0.47728135       0.48208183       0.55482801 </v>
    <v>       0.99797160       0.00143717       0.55108862 </v>
    <v>       0.02016166       0.49783223       0.55748577 </v>
    <v>       0.26135245       0.24556629       0.55406101 </v>
    <v>       0.24835716       0.75873303       0.55165483 </v>
    <v>       0.73560970       0.23136505       0.55543611 </v>
    <v>       0.72904639       0.77098970       0.54719258 </v>
    <v>       0.00163734       0.00402192       0.65385368 </v>
    <v>       0.00625169       0.49951342       0.65644172 </v>
    <v>       0.50535329       0.00431765       0.65477043 </v>
    <v>       0.50109923       0.49932107       0.65549079 </v>
    <v>       0.24765357       0.24682013       0.65552760 </v>
    <v>       0.24668857       0.75272233       0.65427521 </v>
    <v>       0.74261305       0.24827373       0.65596470 </v>
    <v>       0.74743400       0.75545208       0.65389666 </v>
    <v>       0.14610713       0.10491944       0.60928312 </v>
    <v>       0.14917227       0.60686419       0.60919460 </v>
    <v>       0.64368667       0.10716981       0.60965648 </v>
    <v>       0.62211543       0.62858574       0.61330065 </v>
    <v>       0.35662684       0.39137369       0.61060870 </v>
    <v>       0.35578826       0.89267748       0.60903136 </v>
    <v>       0.87794635       0.37365354       0.61309687 </v>
    <v>       0.85623185       0.89621788       0.60830874 </v>
    <v>       0.11132664       0.35273831       0.60943861 </v>
    <v>       0.10667137       0.85667842       0.60863974 </v>
    <v>       0.61484213       0.36319608       0.60664752 </v>
    <v>       0.60661258       0.86145555       0.60991887 </v>
    <v>       0.39452279       0.14119610       0.60968237 </v>
    <v>       0.39063355       0.64385642       0.60707882 </v>
    <v>       0.89065853       0.13840724       0.60931718 </v>
    <v>       0.90922403       0.65992472       0.61283608 </v>
    <v>       0.00000000       0.00000000       0.75492797 </v>
    <v>       0.00000000       0.50000000       0.75492797 </v>
    <v>       0.50000000       0.00000000       0.75492797 </v>
    <v>       0.49999999       0.50000000       0.75492797 </v>
    <v>       0.25000050       0.25000000       0.75493902 </v>
    <v>       0.25000051       0.74999997       0.75493902 </v>
    <v>       0.75000047       0.25000000       0.75493902 </v>
    <v>       0.75000046       0.74999997       0.75493902 </v>
    <v>       0.13579050       0.11421000       0.70478299 </v>
    <v>       0.13579050       0.61420998       0.70478299 </v>
    <v>       0.63579045       0.11421000       0.70478299 </v>
    <v>       0.63579049       0.61420998       0.70478299 </v>
    <v>       0.36420952       0.38578999       0.70478299 </v>
    <v>       0.36420950       0.88578996       0.70478299 </v>
    <v>       0.86420954       0.38578999       0.70478299 </v>
    <v>       0.86420953       0.88578996       0.70478299 </v>
    <v>       0.11421799       0.36421899       0.70478098 </v>
    <v>       0.11421799       0.86421899       0.70478098 </v>
    <v>       0.61421800       0.36421899       0.70478098 </v>
    <v>       0.61421799       0.86421899       0.70478098 </v>
    <v>       0.38578201       0.13578149       0.70478202 </v>
    <v>       0.38578200       0.63578149       0.70478202 </v>
    <v>       0.88578199       0.13578149       0.70478202 </v>
    <v>       0.88578203       0.63578149       0.70478202 </v>
    <v>       0.13466700       0.11533200       0.80125603 </v>
    <v>       0.13466699       0.61533199       0.80125603 </v>
    <v>       0.63466699       0.11533200       0.80125603 </v>
    <v>       0.63466698       0.61533199       0.80125603 </v>
    <v>       0.36533300       0.38466799       0.80125603 </v>
    <v>       0.36533299       0.88466796       0.80125603 </v>
    <v>       0.86533295       0.38466799       0.80125603 </v>
    <v>       0.86533294       0.88466796       0.80125603 </v>
    <v>       0.11532850       0.36533700       0.80126500 </v>
    <v>       0.11532850       0.86533698       0.80126500 </v>
    <v>       0.61532850       0.36533700       0.80126500 </v>
    <v>       0.61532849       0.86533698       0.80126500 </v>
    <v>       0.38467151       0.13466300       0.80126500 </v>
    <v>       0.38467150       0.63466297       0.80126500 </v>
    <v>       0.88467149       0.13466300       0.80126500 </v>
    <v>       0.88467153       0.63466297       0.80126500 </v>
    <v>       0.99987273       0.00025167       0.60320414 </v>
    <v>       0.01077152       0.50199359       0.60635022 </v>
    <v>       0.49798831       0.00105136       0.60231945 </v>
    <v>       0.49974317       0.49868940       0.60346598 </v>
    <v>       0.25380050       0.24669964       0.60436404 </v>
    <v>       0.24891099       0.75376899       0.60324407 </v>
    <v>       0.75023775       0.25090722       0.60579603 </v>
    <v>       0.75030487       0.75873741       0.60454798 </v>
    <v>       0.00000050       0.00000050       0.70482896 </v>
    <v>       0.00000050       0.50000048       0.70482896 </v>
    <v>       0.50000048       0.00000050       0.70482896 </v>
    <v>       0.50000046       0.50000048       0.70482896 </v>
    <v>       0.24999999       0.24999947       0.70482499 </v>
    <v>       0.25000001       0.74999950       0.70482499 </v>
    <v>       0.74999999       0.24999947       0.70482499 </v>
    <v>       0.74999998       0.74999950       0.70482499 </v>
    <v>       0.00000000       0.00000000       0.80731797 </v>
    <v>       0.00000000       0.50000000       0.80731797 </v>
    <v>       0.50000000       0.00000000       0.80731797 </v>
    <v>       0.49999999       0.50000000       0.80731797 </v>
    <v>       0.24999999       0.25000000       0.80731797 </v>
    <v>       0.25000001       0.74999997       0.80731797 </v>
    <v>       0.74999999       0.25000000       0.80731797 </v>
    <v>       0.74999998       0.74999997       0.80731797 </v>
   </varray>
  </structure>
  <varray name="primitive_index" >
   <v type="int" >        1 </v>
   <v type="int" >        2 </v>
   <v type="int" >        3 </v>
   <v type="int" >        4 </v>
   <v type="int" >        5 </v>
   <v type="int" >        6 </v>
   <v type="int" >        7 </v>
   <v type="int" >        8 </v>
   <v type="int" >        9 </v>
   <v type="int" >       10 </v>
   <v type="int" >       11 </v>
   <v type="int" >       12 </v>
   <v type="int" >       13 </v>
   <v type="int" >       14 </v>
   <v type="int" >       15 </v>
   <v type="int" >       16 </v>
   <v type="int" >       17 </v>
   <v type="int" >       18 </v>
   <v type="int" >       19 </v>
   <v type="int" >       20 </v>
   <v type="int" >       21 </v>
   <v type="int" >       22 </v>
   <v type="int" >       23 </v>
   <v type="int" >       24 </v>
   <v type="int" >       25 </v>
   <v type="int" >       26 </v>
   <v type="int" >       27 </v>
   <v type="int" >       28 </v>
   <v type="int" >       29 </v>
   <v type="int" >       30 </v>
   <v type="int" >       31 </v>
   <v type="int" >       32 </v>
   <v type="int" >       33 </v>
   <v type="int" >       34 </v>
   <v type="int" >       35 </v>
   <v type="int" >       36 </v>
   <v type="int" >       37 </v>
   <v type="int" >       38 </v>
   <v type="int" >       39 </v>
   <v type="int" >       40 </v>
   <v type="int" >       41 </v>
   <v type="int" >       42 </v>
   <v type="int" >       43 </v>
   <v type="int" >       44 </v>
   <v type="int" >       45 </v>
   <v type="int" >       46 </v>
   <v type="int" >       47 </v>
   <v type="int" >       48 </v>
   <v type="int" >       49 </v>
   <v type="int" >       50 </v>
   <v type="int" >       51 </v>
   <v type="int" >       52 </v>
   <v type="int" >       53 </v>
   <v type="int" >       54 </v>
   <v type="int" >       55 </v>
   <v type="int" >       56 </v>
   <v type="int" >       57 </v>
   <v type="int" >       58 </v>
   <v type="int" >       59 </v>
   <v type="int" >       60 </v>
   <v type="int" >       61 </v>
   <v type="int" >       62 </v>
   <v type="int" >       63 </v>
   <v type="int" >       64 </v>
   <v type="int" >       65 </v>
   <v type="int" >       66 </v>
   <v type="int" >       67 </v>
   <v type="int" >       68 </v>
   <v type="int" >       69 </v>
   <v type="int" >       70 </v>
   <v type="int" >       71 </v>
   <v type="int" >       72 </v>
   <v type="int" >       73 </v>
   <v type="int" >       74 </v>
   <v type="int" >       75 </v>
   <v type="int" >       76 </v>
   <v type="int" >       77 </v>
   <v type="int" >       78 </v>
   <v type="int" >       79 </v>
   <v type="int" >       80 </v>
   <v type="int" >       81 </v>
   <v type="int" >       82 </v>
   <v type="int" >       83 </v>
   <v type="int" >       84 </v>
   <v type="int" >       85 </v>
   <v type="int" >       86 </v>
   <v type="int" >       87 </v>
   <v type="int" >       88 </v>
   <v type="int" >       89 </v>
   <v type="int" >       90 </v>
   <v type="int" >       91 </v>
   <v type="int" >       92 </v>
   <v type="int" >       93 </v>
   <v type="int" >       94 </v>
   <v type="int" >       95 </v>
   <v type="int" >       96 </v>
   <v type="int" >       97 </v>
   <v type="int" >       98 </v>
   <v type="int" >       99 </v>
   <v type="int" >      100 </v>
   <v type="int" >      101 </v>
   <v type="int" >      102 </v>
   <v type="int" >      103 </v>
   <v type="int" >      104 </v>
   <v type="int" >      105 </v>
   <v type="int" >      106 </v>
   <v type="int" >      107 </v>
   <v type="int" >      108 </v>
   <v type="int" >      109 </v>
   <v type="int" >      110 </v>
   <v type="int" >      111 </v>
   <v type="int" >      112 </v>
   <v type="int" >      113 </v>
   <v type="int" >      114 </v>
   <v type="int" >      115 </v>
   <v type="int" >      116 </v>
   <v type="int" >      117 </v>
   <v type="int" >      118 </v>
   <v type="int" >      119 </v>
   <v type="int" >      120 </v>
   <v type="int" >      121 </v>
   <v type="int" >      122 </v>
   <v type="int" >      123 </v>
   <v type="int" >      124 </v>
   <v type="int" >      125 </v>
   <v type="int" >      126 </v>
   <v type="int" >      127 </v>
   <v type="int" >      128 </v>
   <v type="int" >      129 </v>
   <v type="int" >      130 </v>
   <v type="int" >      131 </v>
   <v type="int" >      132 </v>
   <v type="int" >      133 </v>
   <v type="int" >      134 </v>
   <v type="int" >      135 </v>
   <v type="int" >      136 </v>
   <v type="int" >      137 </v>
   <v type="int" >      138 </v>
   <v type="int" >      139 </v>
   <v type="int" >      140 </v>
   <v type="int" >      141 </v>
   <v type="int" >      142 </v>
   <v type="int" >      143 </v>
   <v type="int" >      144 </v>
   <v type="int" >      145 </v>
   <v type="int" >      146 </v>
   <v type="int" >      147 </v>
   <v type="int" >      148 </v>
   <v type="int" >      149 </v>
   <v type="int" >      150 </v>
   <v type="int" >      151 </v>
   <v type="int" >      152 </v>
   <v type="int" >      153 </v>
   <v type="int" >      154 </v>
   <v type="int" >      155 </v>
   <v type="int" >      156 </v>
   <v type="int" >      157 </v>
   <v type="int" >      158 </v>
   <v type="int" >      159 </v>
   <v type="int" >      160 </v>
   <v type="int" >      161 </v>
   <v type="int" >      162 </v>
   <v type="int" >      163 </v>
   <v type="int" >      164 </v>
   <v type="int" >      165 </v>
   <v type="int" >      166 </v>
   <v type="int" >      167 </v>
   <v type="int" >      168 </v>
   <v type="int" >      169 </v>
   <v type="int" >      170 </v>
   <v type="int" >      171 </v>
   <v type="int" >      172 </v>
   <v type="int" >      173 </v>
   <v type="int" >      174 </v>
   <v type="int" >      175 </v>
   <v type="int" >      176 </v>
   <v type="int" >      177 </v>
   <v type="int" >      178 </v>
   <v type="int" >      179 </v>
   <v type="int" >      180 </v>
   <v type="int" >      181 </v>
   <v type="int" >      182 </v>
   <v type="int" >      183 </v>
   <v type="int" >      184 </v>
   <v type="int" >      185 </v>
   <v type="int" >      186 </v>
   <v type="int" >      187 </v>
   <v type="int" >      188 </v>
   <v type="int" >      189 </v>
   <v type="int" >      190 </v>
   <v type="int" >      191 </v>
   <v type="int" >      192 </v>
   <v type="int" >      193 </v>
   <v type="int" >      194 </v>
   <v type="int" >      195 </v>
   <v type="int" >      196 </v>
   <v type="int" >      197 </v>
   <v type="int" >      198 </v>
   <v type="int" >      199 </v>
   <v type="int" >      200 </v>
   <v type="int" >      201 </v>
   <v type="int" >      202 </v>
   <v type="int" >      203 </v>
   <v type="int" >      204 </v>
   <v type="int" >      205 </v>
   <v type="int" >      206 </v>
   <v type="int" >      207 </v>
   <v type="int" >      208 </v>
   <v type="int" >      209 </v>
   <v type="int" >      210 </v>
   <v type="int" >      211 </v>
   <v type="int" >      212 </v>
   <v type="int" >      213 </v>
   <v type="int" >      214 </v>
   <v type="int" >      215 </v>
   <v type="int" >      216 </v>
   <v type="int" >      217 </v>
   <v type="int" >      218 </v>
   <v type="int" >      219 </v>
   <v type="int" >      220 </v>
   <v type="int" >      221 </v>
   <v type="int" >      222 </v>
   <v type="int" >      223 </v>
   <v type="int" >      224 </v>
   <v type="int" >      225 </v>
   <v type="int" >      226 </v>
   <v type="int" >      227 </v>
   <v type="int" >      228 </v>
   <v type="int" >      229 </v>
   <v type="int" >      230 </v>
   <v type="int" >      231 </v>
   <v type="int" >      232 </v>
   <v type="int" >      233 </v>
   <v type="int" >      234 </v>
   <v type="int" >      235 </v>
   <v type="int" >      236 </v>
   <v type="int" >      237 </v>
   <v type="int" >      238 </v>
   <v type="int" >      239 </v>
   <v type="int" >      240 </v>
   <v type="int" >      241 </v>
   <v type="int" >      242 </v>
   <v type="int" >      243 </v>
   <v type="int" >      244 </v>
   <v type="int" >      245 </v>
   <v type="int" >      246 </v>
   <v type="int" >      247 </v>
   <v type="int" >      248 </v>
   <v type="int" >      249 </v>
   <v type="int" >      250 </v>
   <v type="int" >      251 </v>
   <v type="int" >      252 </v>
   <v type="int" >      253 </v>
   <v type="int" >      254 </v>
   <v type="int" >      255 </v>
   <v type="int" >      256 </v>
   <v type="int" >      257 </v>
   <v type="int" >      258 </v>
   <v type="int" >      259 </v>
   <v type="int" >      260 </v>
   <v type="int" >      261 </v>
   <v type="int" >      262 </v>
   <v type="int" >      263 </v>
   <v type="int" >      264 </v>
   <v type="int" >      265 </v>
   <v type="int" >      266 </v>
   <v type="int" >      267 </v>
   <v type="int" >      268 </v>
   <v type="int" >      269 </v>
   <v type="int" >      270 </v>
   <v type="int" >      271 </v>
   <v type="int" >      272 </v>
   <v type="int" >      273 </v>
   <v type="int" >      274 </v>
   <v type="int" >      275 </v>
   <v type="int" >      276 </v>
   <v type="int" >      277 </v>
   <v type="int" >      278 </v>
   <v type="int" >      279 </v>
   <v type="int" >      280 </v>
   <v type="int" >      281 </v>
   <v type="int" >      282 </v>
   <v type="int" >      283 </v>
   <v type="int" >      284 </v>
   <v type="int" >      285 </v>
   <v type="int" >      286 </v>
   <v type="int" >      287 </v>
   <v type="int" >      288 </v>
   <v type="int" >      289 </v>
   <v type="int" >      290 </v>
   <v type="int" >      291 </v>
   <v type="int" >      292 </v>
   <v type="int" >      293 </v>
   <v type="int" >      294 </v>
   <v type="int" >      295 </v>
   <v type="int" >      296 </v>
   <v type="int" >      297 </v>
   <v type="int" >      298 </v>
   <v type="int" >      299 </v>
   <v type="int" >      300 </v>
   <v type="int" >      301 </v>
   <v type="int" >      302 </v>
   <v type="int" >      303 </v>
   <v type="int" >      304 </v>
   <v type="int" >      305 </v>
   <v type="int" >      306 </v>
   <v type="int" >      307 </v>
   <v type="int" >      308 </v>
   <v type="int" >      309 </v>
   <v type="int" >      310 </v>
   <v type="int" >      311 </v>
   <v type="int" >      312 </v>
   <v type="int" >      313 </v>
   <v type="int" >      314 </v>
   <v type="int" >      315 </v>
   <v type="int" >      316 </v>
   <v type="int" >      317 </v>
   <v type="int" >      318 </v>
   <v type="int" >      319 </v>
   <v type="int" >      320 </v>
   <v type="int" >      321 </v>
   <v type="int" >      322 </v>
   <v type="int" >      323 </v>
   <v type="int" >      324 </v>
   <v type="int" >      325 </v>
  </varray>
 </primitive_cell>
 <kpoints>
  <generation param="Gamma">
   <v type="int" name="divisions">       3        3        1 </v>
   <v name="usershift">      0.00000000       0.00000000       0.00000000 </v>
   <v name="genvec1">      0.33333333       0.00000000       0.00000000 </v>
   <v name="genvec2">      0.00000000       0.33333333       0.00000000 </v>
   <v name="genvec3">      0.00000000       0.00000000       1.00000000 </v>
   <v name="shift">      0.00000000       0.00000000       0.00000000 </v>
  </generation>
  <varray name="kpointlist" >
   <v>       0.00000000       0.00000000       0.00000000 </v>
   <v>       0.33333333       0.00000000       0.00000000 </v>
   <v>       0.00000000       0.33333333       0.00000000 </v>
   <v>       0.33333333       0.33333333       0.00000000 </v>
   <v>      -0.33333333       0.33333333       0.00000000 </v>
  </varray>
  <varray name="weights" >
   <v>       0.11111111 </v>
   <v>       0.22222222 </v>
   <v>       0.22222222 </v>
   <v>       0.22222222 </v>
   <v>       0.22222222 </v>
  </varray>
 </kpoints>
 <parameters>
  <separator name="general" >
   <i type="string" name="SYSTEM">PSC</i>
   <i type="logical" name="LCOMPAT"> F  </i>
  </separator>
  <separator name="electronic" >
   <i type="string" name="PREC">normal</i>
   <i name="ENMAX">    500.00000000</i>
   <i name="ENAUG">    644.87300000</i>
   <i name="EDIFF">      0.00010000</i>
   <i type="int" name="IALGO">    38</i>
   <i type="int" name="IWAVPR">    10</i>
   <i type="int" name="NBANDS">   732</i>
   <i type="int" name="NBANDSLOW">    -1</i>
   <i type="int" name="NBANDSHIGH">    -1</i>
   <i name="NELECT">   1134.00000000</i>
   <i type="int" name="TURBO">     0</i>
   <i type="int" name="IRESTART">     0</i>
   <i type="int" name="NREBOOT">     0</i>
   <i type="int" name="NMIN">     0</i>
   <i name="EREF">      0.00000000</i>
   <separator name="electronic smearing" >
    <i type="int" name="ISMEAR">     0</i>
    <i name="SIGMA">      0.05000000</i>
    <i name="KSPACING">      0.50000000</i>
    <i type="logical" name="KGAMMA"> T  </i>
    <i type="logical" name="KBLOWUP"> T  </i>
   </separator>
   <separator name="electronic projectors" >
    <i type="logical" name="LREAL"> T  </i>
    <v name="ROPT">     -0.00050000     -0.00050000     -0.00050000     -0.00050000     -0.00050000</v>
    <i type="int" name="LMAXPAW">  -100</i>
    <i type="int" name="LMAXMIX">     2</i>
    <i type="logical" name="NLSPLINE"> F  </i>
   </separator>
   <separator name="electronic startup" >
    <i type="int" name="ISTART">     0</i>
    <i type="int" name="ICHARG">     1</i>
    <i type="int" name="INIWAV">     1</i>
   </separator>
   <separator name="electronic spin" >
    <i type="int" name="ISPIN">     1</i>
    <i type="logical" name="LNONCOLLINEAR"> F  </i>
    <v name="MAGMOM">      1.00000000      1.00000000      1.00000000      1.00000000      1.00000000      1.00000000      1.00000000      1.00000000      1.00000000      1.00000000      1.00000000      1.00000000      1.00000000      1.00000000      1.00000000      1.00000000      1.00000000      1.00000000      1.00000000      1.00000000
      1.00000000      1.00000000      1.00000000      1.00000000      1.00000000      1.00000000      1.00000000      1.00000000      1.00000000      1.00000000      1.00000000      1.00000000      1.00000000      1.00000000      1.00000000      1.00000000      1.00000000      1.00000000      1.00000000      1.00000000
      1.00000000      1.00000000      1.00000000      1.00000000      1.00000000      1.00000000      1.00000000      1.00000000      1.00000000      1.00000000      1.00000000      1.00000000      1.00000000      1.00000000      1.00000000      1.00000000      1.00000000      1.00000000      1.00000000      1.00000000
      1.00000000      1.00000000      1.00000000      1.00000000      1.00000000      1.00000000      1.00000000      1.00000000      1.00000000      1.00000000      1.00000000      1.00000000      1.00000000      1.00000000      1.00000000      1.00000000      1.00000000      1.00000000      1.00000000      1.00000000
      1.00000000      1.00000000      1.00000000      1.00000000      1.00000000      1.00000000      1.00000000      1.00000000      1.00000000      1.00000000      1.00000000      1.00000000      1.00000000      1.00000000      1.00000000      1.00000000      1.00000000      1.00000000      1.00000000      1.00000000
      1.00000000      1.00000000      1.00000000      1.00000000      1.00000000      1.00000000      1.00000000      1.00000000      1.00000000      1.00000000      1.00000000      1.00000000      1.00000000      1.00000000      1.00000000      1.00000000      1.00000000      1.00000000      1.00000000      1.00000000
      1.00000000      1.00000000      1.00000000      1.00000000      1.00000000      1.00000000      1.00000000      1.00000000      1.00000000      1.00000000      1.00000000      1.00000000      1.00000000      1.00000000      1.00000000      1.00000000      1.00000000      1.00000000      1.00000000      1.00000000
      1.00000000      1.00000000      1.00000000      1.00000000      1.00000000      1.00000000      1.00000000      1.00000000      1.00000000      1.00000000      1.00000000      1.00000000      1.00000000      1.00000000      1.00000000      1.00000000      1.00000000      1.00000000      1.00000000      1.00000000
      1.00000000      1.00000000      1.00000000      1.00000000      1.00000000      1.00000000      1.00000000      1.00000000      1.00000000      1.00000000      1.00000000      1.00000000      1.00000000      1.00000000      1.00000000      1.00000000      1.00000000      1.00000000      1.00000000      1.00000000
      1.00000000      1.00000000      1.00000000      1.00000000      1.00000000      1.00000000      1.00000000      1.00000000      1.00000000      1.00000000      1.00000000      1.00000000      1.00000000      1.00000000      1.00000000      1.00000000      1.00000000      1.00000000      1.00000000      1.00000000
      1.00000000      1.00000000      1.00000000      1.00000000      1.00000000      1.00000000      1.00000000      1.00000000      1.00000000      1.00000000      1.00000000      1.00000000      1.00000000      1.00000000      1.00000000      1.00000000      1.00000000      1.00000000      1.00000000      1.00000000
      1.00000000      1.00000000      1.00000000      1.00000000      1.00000000      1.00000000      1.00000000      1.00000000      1.00000000      1.00000000      1.00000000      1.00000000      1.00000000      1.00000000      1.00000000      1.00000000      1.00000000      1.00000000      1.00000000      1.00000000
      1.00000000      1.00000000      1.00000000      1.00000000      1.00000000      1.00000000      1.00000000      1.00000000      1.00000000      1.00000000      1.00000000      1.00000000      1.00000000      1.00000000      1.00000000      1.00000000      1.00000000      1.00000000      1.00000000      1.00000000
      1.00000000      1.00000000      1.00000000      1.00000000      1.00000000      1.00000000      1.00000000      1.00000000      1.00000000      1.00000000      1.00000000      1.00000000      1.00000000      1.00000000      1.00000000      1.00000000      1.00000000      1.00000000      1.00000000      1.00000000
      1.00000000      1.00000000      1.00000000      1.00000000      1.00000000      1.00000000      1.00000000      1.00000000      1.00000000      1.00000000      1.00000000      1.00000000      1.00000000      1.00000000      1.00000000      1.00000000      1.00000000      1.00000000      1.00000000      1.00000000
      1.00000000      1.00000000      1.00000000      1.00000000      1.00000000      1.00000000      1.00000000      1.00000000      1.00000000      1.00000000      1.00000000      1.00000000      1.00000000      1.00000000      1.00000000      1.00000000      1.00000000      1.00000000      1.00000000      1.00000000
      1.00000000      1.00000000      1.00000000      1.00000000      1.00000000</v>
    <i name="NUPDOWN">     -1.00000000</i>
    <i type="logical" name="LSORBIT"> F  </i>
    <v name="SAXIS">      0.00000000      0.00000000      1.00000000</v>
    <i type="logical" name="LSPIRAL"> F  </i>
    <v name="QSPIRAL">      0.00000000      0.00000000      0.00000000</v>
    <i type="logical" name="LZEROZ"> F  </i>
   </separator>
   <separator name="electronic exchange-correlation" >
    <i type="logical" name="LASPH"> F  </i>
    <i type="logical" name="LMETAGGA"> F  </i>
   </separator>
   <separator name="electronic convergence" >
    <i type="int" name="NELM">   600</i>
    <i type="int" name="NELMDL">     0</i>
    <i type="int" name="NELMIN">     2</i>
    <i name="ENINI">    500.00000000</i>
    <separator name="electronic convergence detail" >
     <i type="logical" name="LDIAG"> T  </i>
     <i type="logical" name="LSUBROT"> F  </i>
     <i name="WEIMIN">      0.00000000</i>
     <i name="EBREAK">      0.00000003</i>
     <i name="DEPER">      0.30000000</i>
     <i type="int" name="NRMM">     4</i>
     <i name="TIME">      0.40000000</i>
    </separator>
   </separator>
   <separator name="electronic mixer" >
    <i name="AMIX">      0.40000000</i>
    <i name="BMIX">      0.01000000</i>
    <i name="AMIN">      0.01000000</i>
    <i name="AMIX_MAG">      1.60000000</i>
    <i name="BMIX_MAG">      0.01000000</i>
    <separator name="electronic mixer details" >
     <i type="int" name="IMIX">     4</i>
     <i type="logical" name="MIXFIRST"> F  </i>
     <i type="int" name="MAXMIX">   -45</i>
     <i name="WC">    100.00000000</i>
     <i type="int" name="INIMIX">     1</i>
     <i type="int" name="MIXPRE">     1</i>
     <i type="int" name="MREMOVE">     5</i>
    </separator>
   </separator>
   <separator name="electronic dipolcorrection" >
    <i type="logical" name="LDIPOL"> T  </i>
    <i type="logical" name="LMONO"> F  </i>
    <i type="int" name="IDIPOL">     3</i>
    <i name="EPSILON">      1.00000000</i>
    <v name="DIPOL">   -100.00000000   -100.00000000   -100.00000000</v>
    <i name="EFIELD">      0.00000000</i>
   </separator>
  </separator>
  <separator name="grids" >
   <i type="int" name="NGX">   100</i>
   <i type="int" name="NGY">   100</i>
   <i type="int" name="NGZ">   350</i>
   <i type="int" name="NGXF">   200</i>
   <i type="int" name="NGYF">   200</i>
   <i type="int" name="NGZF">   700</i>
   <i type="logical" name="ADDGRID"> F  </i>
  </separator>
  <separator name="ionic" >
   <i type="int" name="NSW">     0</i>
   <i type="int" name="IBRION">    -1</i>
   <i type="int" name="MDALGO">     0</i>
   <i type="int" name="ISIF">     2</i>
   <i name="PSTRESS">      0.00000000</i>
   <i name="EDIFFG">      0.00100000</i>
   <i type="int" name="NFREE">     0</i>
   <i name="POTIM">      0.50000000</i>
   <i name="SMASS">     -3.00000000</i>
   <i name="SCALEE">      1.00000000</i>
  </separator>
  <separator name="ionic md" >
   <i name="TEBEG">      0.00010000</i>
   <i name="TEEND">      0.00010000</i>
   <i type="int" name="NBLOCK">     1</i>
   <i type="int" name="KBLOCK">     1</i>
   <i type="int" name="NPACO">   256</i>
   <i name="APACO">     16.00000000</i>
  </separator>
  <separator name="symmetry" >
   <i type="int" name="ISYM">     0</i>
   <i name="SYMPREC">      0.00001000</i>
  </separator>
  <separator name="dos" >
   <i type="int" name="LORBIT">     0</i>
   <v name="RWIGS">     -1.00000000     -1.00000000     -1.00000000     -1.00000000     -1.00000000</v>
   <i type="int" name="NEDOS">   301</i>
   <i name="EMIN">     10.00000000</i>
   <i name="EMAX">    -10.00000000</i>
   <i name="EFERMI">      0.00000000</i>
  </separator>
  <separator name="writing" >
   <i type="int" name="NWRITE">     2</i>
   <i type="logical" name="LWAVE"> F  </i>
   <i type="logical" name="LDOWNSAMPLE"> F  </i>
   <i type="logical" name="LCHARG"> T  </i>
   <i type="logical" name="LPARD"> F  </i>
   <i type="logical" name="LVTOT"> T  </i>
   <i type="logical" name="LVHAR"> F  </i>
   <i type="logical" name="LELF"> F  </i>
   <i type="logical" name="LOPTICS"> F  </i>
   <v name="STM">      0.00000000      0.00000000      0.00000000      0.00000000      0.00000000      0.00000000      0.00000000</v>
  </separator>
  <separator name="performance" >
   <i type="int" name="NPAR">     4</i>
   <i type="int" name="NSIM">     4</i>
   <i type="int" name="NBLK">    -1</i>
   <i type="logical" name="LPLANE"> T  </i>
   <i type="logical" name="LSCALAPACK"> T  </i>
   <i type="logical" name="LSCAAWARE"> F  </i>
   <i type="logical" name="LSCALU"> F  </i>
   <i type="logical" name="LASYNC"> F  </i>
   <i type="logical" name="LORBITALREAL"> F  </i>
  </separator>
  <separator name="miscellaneous" >
   <i type="int" name="IDIOT">     3</i>
   <i type="int" name="PHON_NSTRUCT">    -1</i>
   <i type="logical" name="LMUSIC"> F  </i>
   <v name="POMASS">      1.00000000     12.01100000     14.00100000    126.90400000    207.20000000</v>
   <v name="DARWINR">      0.00000000      0.00000000      0.00000000      0.00000000      0.00000000</v>
   <v name="DARWINV">      1.00000000      1.00000000      1.00000000      1.00000000      1.00000000</v>
   <i type="logical" name="LCORR"> T  </i>
  </separator>
  <i type="logical" name="GGA_COMPAT"> F  </i>
  <i type="logical" name="LBERRY"> F  </i>
  <i type="int" name="ICORELEVEL">     0</i>
  <i type="logical" name="LDAU"> F  </i>
  <i type="int" name="I_CONSTRAINED_M">     0</i>
  <separator name="electronic exchange-correlation" >
   <i type="string" name="GGA">--</i>
   <i type="int" name="VOSKOWN">     0</i>
   <i type="logical" name="LHFCALC"> F  </i>
   <i type="string" name="PRECFOCK"></i>
   <i type="logical" name="LSYMGRAD"> F  </i>
   <i type="logical" name="LHFONE"> F  </i>
   <i type="logical" name="LRHFCALC"> F  </i>
   <i type="logical" name="LTHOMAS"> F  </i>
   <i type="logical" name="LMODELHF"> F  </i>
   <i type="logical" name="LFOCKACE"> F  </i>
   <i name="ENCUT4O">     -1.00000000</i>
   <i type="int" name="EXXOEP">     0</i>
   <i type="int" name="FOURORBIT">     0</i>
   <i name="AEXX">      0.00000000</i>
   <i name="HFALPHA">      0.00000000</i>
   <i name="MCALPHA">      0.00000000</i>
   <i name="ALDAX">      1.00000000</i>
   <i name="AGGAX">      1.00000000</i>
   <i name="ALDAC">      1.00000000</i>
   <i name="AGGAC">      1.00000000</i>
   <i type="int" name="NKREDX">     1</i>
   <i type="int" name="NKREDY">     1</i>
   <i type="int" name="NKREDZ">     1</i>
   <i type="logical" name="SHIFTRED"> F  </i>
   <i type="logical" name="ODDONLY"> F  </i>
   <i type="logical" name="EVENONLY"> F  </i>
   <i type="int" name="LMAXFOCK">     0</i>
   <i type="int" name="NMAXFOCKAE">     0</i>
   <i type="logical" name="LFOCKAEDFT"> F  </i>
   <i name="HFSCREEN">      0.00000000</i>
   <i name="HFSCREENC">      0.00000000</i>
   <i type="int" name="NBANDSGWLOW">     0</i>
  </separator>
  <separator name="vdW DFT" >
   <i type="logical" name="LUSE_VDW"> F  </i>
   <i name="Zab_VDW">     -0.84910000</i>
   <i name="PARAM1">      0.12340000</i>
   <i name="PARAM2">      1.00000000</i>
   <i name="PARAM3">      0.00000000</i>
  </separator>
  <separator name="model GW" >
   <i type="int" name="MODEL_GW">     0</i>
   <i name="MODEL_EPS0">     37.63423484</i>
   <i name="MODEL_ALPHA">      1.00000000</i>
  </separator>
  <separator name="linear response parameters" >
   <i type="logical" name="LEPSILON"> F  </i>
   <i type="logical" name="LRPA"> F  </i>
   <i type="logical" name="LNABLA"> F  </i>
   <i type="logical" name="LVEL"> F  </i>
   <i type="int" name="KINTER">     0</i>
   <i name="CSHIFT">      0.10000000</i>
   <i name="OMEGAMAX">     -1.00000000</i>
   <i name="DEG_THRESHOLD">      0.00200000</i>
   <i name="RTIME">     -0.10000000</i>
   <i name="WPLASMAI">      0.00000000</i>
   <v name="DFIELD">      0.00000000      0.00000000      0.00000000</v>
   <v name="WPLASMA">      0.00000000      0.00000000      0.00000000      0.00000000      0.00000000      0.00000000      0.00000000      0.00000000      0.00000000</v>
  </separator>
  <separator name="orbital magnetization" >
   <i type="logical" name="NUCIND"> F  </i>
   <v name="MAGPOS">      0.00000000      0.00000000      0.00000000</v>
   <i type="logical" name="LNICSALL"> T  </i>
   <i type="logical" name="ORBITALMAG"> F  </i>
   <i type="logical" name="LMAGBLOCH"> F  </i>
   <i type="logical" name="LCHIMAG"> F  </i>
   <i type="logical" name="LGAUGE"> T  </i>
   <i type="int" name="MAGATOM">     0</i>
   <v name="MAGDIPOL">      0.00000000      0.00000000      0.00000000</v>
   <v name="AVECCONST">      0.00000000      0.00000000      0.00000000</v>
  </separator>
  <separator name="response functions" >
   <i type="logical" name="LFINITE_TEMPERATURE"> F  </i>
   <i type="logical" name="LADDER"> F  </i>
   <i type="logical" name="LRPAFORCE"> F  </i>
   <i type="logical" name="LFXC"> F  </i>
   <i type="logical" name="LHARTREE"> T  </i>
   <i type="int" name="IBSE">     0</i>
   <v type="int" name="KPOINT">    -1     0     0     0</v>
   <i type="logical" name="LTCTC"> F  </i>
   <i type="logical" name="LTCTE"> F  </i>
   <i type="logical" name="LTETE"> F  </i>
   <i type="logical" name="LTRIPLET"> F  </i>
   <i type="logical" name="LFXCEPS"> F  </i>
   <i type="logical" name="LFXHEG"> F  </i>
   <i type="int" name="NATURALO">     2</i>
   <i type="logical" name="LHOLEGF"> F  </i>
   <i type="logical" name="L2ORDER"> F  </i>
   <i type="logical" name="LDMP1"> F  </i>
   <i type="logical" name="LMP2LT"> F  </i>
   <i type="logical" name="LSMP2LT"> F  </i>
   <i type="logical" name="LGWLF"> F  </i>
   <i name="ENCUTGW">     -2.00000000</i>
   <i name="ENCUTGWSOFT">     -2.00000000</i>
   <i name="ENCUTLF">     -1.00000000</i>
   <i type="logical" name="LESF_SPLINES"> F  </i>
   <i type="int" name="LMAXMP2">    -1</i>
   <i name="SCISSOR">      0.00000000</i>
   <i type="int" name="NOMEGA">     0</i>
   <i type="int" name="NOMEGAR">     0</i>
   <i type="int" name="NBANDSGW">    -1</i>
   <i type="int" name="NBANDSO">    -1</i>
   <i type="int" name="NBANDSV">    -1</i>
   <i type="int" name="NELM">   600</i>
   <i type="int" name="NELMHF">     1</i>
   <i type="int" name="DIM">     3</i>
   <i type="int" name="IESPILON">     4</i>
   <i type="int" name="ANTIRES">     0</i>
   <i name="OMEGAMAX">    -30.00000000</i>
   <i name="OMEGAMIN">    -30.00000000</i>
   <i name="OMEGATL">   -200.00000000</i>
   <i type="int" name="OMEGAGRID">     0</i>
   <i name="CSHIFT">     -0.10000000</i>
   <i type="logical" name="LSELFENERGY"> F  </i>
   <i type="logical" name="LSPECTRAL"> F  </i>
   <i type="logical" name="LSPECTRALGW"> F  </i>
   <i type="logical" name="LSINGLES"> F  </i>
   <i type="logical" name="LFERMIGW"> F  </i>
   <i type="logical" name="ODDONLYGW"> F  </i>
   <i type="logical" name="EVENONLYGW"> F  </i>
   <i type="int" name="NKREDLFX">     1</i>
   <i type="int" name="NKREDLFY">     1</i>
   <i type="int" name="NKREDLFZ">     1</i>
   <i type="int" name="MAXMEM">  2800</i>
   <i type="int" name="TELESCOPE">     0</i>
   <i type="int" name="NTAUPAR">    -1</i>
   <i type="int" name="NOMEGAPAR">    -1</i>
   <i name="DAMP_NEWTON">      0.80000001</i>
   <i name="LAMBDA">      1.00000000</i>
  </separator>
  <separator name="External order field" >
   <i name="OFIELD_KAPPA">      0.00000000</i>
   <v name="OFIELD_K">      0.00000000      0.00000000      0.00000000</v>
   <i name="OFIELD_Q6_NEAR">      0.00000000</i>
   <i name="OFIELD_Q6_FAR">      0.00000000</i>
   <i name="OFIELD_A">      0.00000000</i>
  </separator>
 </parameters>
 <atominfo>
  <atoms>     325 </atoms>
  <types>       5 </types>
  <array name="atoms" >
   <dimension dim="1">ion</dimension>
   <field type="string">element</field>
   <field type="int">atomtype</field>
   <set>
    <rc><c>H </c><c>   1</c></rc>
    <rc><c>H </c><c>   1</c></rc>
    <rc><c>H </c><c>   1</c></rc>
    <rc><c>H </c><c>   1</c></rc>
    <rc><c>H </c><c>   1</c></rc>
    <rc><c>H </c><c>   1</c></rc>
    <rc><c>H </c><c>   1</c></rc>
    <rc><c>H </c><c>   1</c></rc>
    <rc><c>H </c><c>   1</c></rc>
    <rc><c>H </c><c>   1</c></rc>
    <rc><c>H </c><c>   1</c></rc>
    <rc><c>H </c><c>   1</c></rc>
    <rc><c>H </c><c>   1</c></rc>
    <rc><c>H </c><c>   1</c></rc>
    <rc><c>H </c><c>   1</c></rc>
    <rc><c>H </c><c>   1</c></rc>
    <rc><c>H </c><c>   1</c></rc>
    <rc><c>H </c><c>   1</c></rc>
    <rc><c>H </c><c>   1</c></rc>
    <rc><c>H </c><c>   1</c></rc>
    <rc><c>H </c><c>   1</c></rc>
    <rc><c>H </c><c>   1</c></rc>
    <rc><c>H </c><c>   1</c></rc>
    <rc><c>H </c><c>   1</c></rc>
    <rc><c>H </c><c>   1</c></rc>
    <rc><c>H </c><c>   1</c></rc>
    <rc><c>H </c><c>   1</c></rc>
    <rc><c>H </c><c>   1</c></rc>
    <rc><c>H </c><c>   1</c></rc>
    <rc><c>H </c><c>   1</c></rc>
    <rc><c>H </c><c>   1</c></rc>
    <rc><c>H </c><c>   1</c></rc>
    <rc><c>H </c><c>   1</c></rc>
    <rc><c>H </c><c>   1</c></rc>
    <rc><c>H </c><c>   1</c></rc>
    <rc><c>H </c><c>   1</c></rc>
    <rc><c>H </c><c>   1</c></rc>
    <rc><c>H </c><c>   1</c></rc>
    <rc><c>H </c><c>   1</c></rc>
    <rc><c>H </c><c>   1</c></rc>
    <rc><c>H </c><c>   1</c></rc>
    <rc><c>H </c><c>   1</c></rc>
    <rc><c>H </c><c>   1</c></rc>
    <rc><c>H </c><c>   1</c></rc>
    <rc><c>H </c><c>   1</c></rc>
    <rc><c>H </c><c>   1</c></rc>
    <rc><c>H </c><c>   1</c></rc>
    <rc><c>H </c><c>   1</c></rc>
    <rc><c>H </c><c>   1</c></rc>
    <rc><c>H </c><c>   1</c></rc>
    <rc><c>H </c><c>   1</c></rc>
    <rc><c>H </c><c>   1</c></rc>
    <rc><c>H </c><c>   1</c></rc>
    <rc><c>H </c><c>   1</c></rc>
    <rc><c>H </c><c>   1</c></rc>
    <rc><c>H </c><c>   1</c></rc>
    <rc><c>H </c><c>   1</c></rc>
    <rc><c>H </c><c>   1</c></rc>
    <rc><c>H </c><c>   1</c></rc>
    <rc><c>H </c><c>   1</c></rc>
    <rc><c>H </c><c>   1</c></rc>
    <rc><c>H </c><c>   1</c></rc>
    <rc><c>H </c><c>   1</c></rc>
    <rc><c>H </c><c>   1</c></rc>
    <rc><c>H </c><c>   1</c></rc>
    <rc><c>H </c><c>   1</c></rc>
    <rc><c>H </c><c>   1</c></rc>
    <rc><c>H </c><c>   1</c></rc>
    <rc><c>H </c><c>   1</c></rc>
    <rc><c>H </c><c>   1</c></rc>
    <rc><c>H </c><c>   1</c></rc>
    <rc><c>H </c><c>   1</c></rc>
    <rc><c>H </c><c>   1</c></rc>
    <rc><c>H </c><c>   1</c></rc>
    <rc><c>H </c><c>   1</c></rc>
    <rc><c>H </c><c>   1</c></rc>
    <rc><c>H </c><c>   1</c></rc>
    <rc><c>H </c><c>   1</c></rc>
    <rc><c>H </c><c>   1</c></rc>
    <rc><c>H </c><c>   1</c></rc>
    <rc><c>H </c><c>   1</c></rc>
    <rc><c>H </c><c>   1</c></rc>
    <rc><c>H </c><c>   1</c></rc>
    <rc><c>H </c><c>   1</c></rc>
    <rc><c>H </c><c>   1</c></rc>
    <rc><c>H </c><c>   1</c></rc>
    <rc><c>H </c><c>   1</c></rc>
    <rc><c>H </c><c>   1</c></rc>
    <rc><c>H </c><c>   1</c></rc>
    <rc><c>H </c><c>   1</c></rc>
    <rc><c>H </c><c>   1</c></rc>
    <rc><c>H </c><c>   1</c></rc>
    <rc><c>H </c><c>   1</c></rc>
    <rc><c>H </c><c>   1</c></rc>
    <rc><c>H </c><c>   1</c></rc>
    <rc><c>H </c><c>   1</c></rc>
    <rc><c>H </c><c>   1</c></rc>
    <rc><c>H </c><c>   1</c></rc>
    <rc><c>H </c><c>   1</c></rc>
    <rc><c>H </c><c>   1</c></rc>
    <rc><c>H </c><c>   1</c></rc>
    <rc><c>H </c><c>   1</c></rc>
    <rc><c>H </c><c>   1</c></rc>
    <rc><c>H </c><c>   1</c></rc>
    <rc><c>H </c><c>   1</c></rc>
    <rc><c>H </c><c>   1</c></rc>
    <rc><c>H </c><c>   1</c></rc>
    <rc><c>H </c><c>   1</c></rc>
    <rc><c>H </c><c>   1</c></rc>
    <rc><c>H </c><c>   1</c></rc>
    <rc><c>H </c><c>   1</c></rc>
    <rc><c>H </c><c>   1</c></rc>
    <rc><c>H </c><c>   1</c></rc>
    <rc><c>H </c><c>   1</c></rc>
    <rc><c>H </c><c>   1</c></rc>
    <rc><c>H </c><c>   1</c></rc>
    <rc><c>H </c><c>   1</c></rc>
    <rc><c>H </c><c>   1</c></rc>
    <rc><c>H </c><c>   1</c></rc>
    <rc><c>H </c><c>   1</c></rc>
    <rc><c>H </c><c>   1</c></rc>
    <rc><c>H </c><c>   1</c></rc>
    <rc><c>H </c><c>   1</c></rc>
    <rc><c>H </c><c>   1</c></rc>
    <rc><c>H </c><c>   1</c></rc>
    <rc><c>H </c><c>   1</c></rc>
    <rc><c>H </c><c>   1</c></rc>
    <rc><c>H </c><c>   1</c></rc>
    <rc><c>H </c><c>   1</c></rc>
    <rc><c>H </c><c>   1</c></rc>
    <rc><c>H </c><c>   1</c></rc>
    <rc><c>H </c><c>   1</c></rc>
    <rc><c>H </c><c>   1</c></rc>
    <rc><c>H </c><c>   1</c></rc>
    <rc><c>H </c><c>   1</c></rc>
    <rc><c>H </c><c>   1</c></rc>
    <rc><c>H </c><c>   1</c></rc>
    <rc><c>H </c><c>   1</c></rc>
    <rc><c>H </c><c>   1</c></rc>
    <rc><c>H </c><c>   1</c></rc>
    <rc><c>H </c><c>   1</c></rc>
    <rc><c>H </c><c>   1</c></rc>
    <rc><c>H </c><c>   1</c></rc>
    <rc><c>C </c><c>   2</c></rc>
    <rc><c>C </c><c>   2</c></rc>
    <rc><c>C </c><c>   2</c></rc>
    <rc><c>C </c><c>   2</c></rc>
    <rc><c>C </c><c>   2</c></rc>
    <rc><c>C </c><c>   2</c></rc>
    <rc><c>C </c><c>   2</c></rc>
    <rc><c>C </c><c>   2</c></rc>
    <rc><c>C </c><c>   2</c></rc>
    <rc><c>C </c><c>   2</c></rc>
    <rc><c>C </c><c>   2</c></rc>
    <rc><c>C </c><c>   2</c></rc>
    <rc><c>C </c><c>   2</c></rc>
    <rc><c>C </c><c>   2</c></rc>
    <rc><c>C </c><c>   2</c></rc>
    <rc><c>C </c><c>   2</c></rc>
    <rc><c>C </c><c>   2</c></rc>
    <rc><c>C </c><c>   2</c></rc>
    <rc><c>C </c><c>   2</c></rc>
    <rc><c>C </c><c>   2</c></rc>
    <rc><c>C </c><c>   2</c></rc>
    <rc><c>C </c><c>   2</c></rc>
    <rc><c>C </c><c>   2</c></rc>
    <rc><c>C </c><c>   2</c></rc>
    <rc><c>C </c><c>   2</c></rc>
    <rc><c>C </c><c>   2</c></rc>
    <rc><c>C </c><c>   2</c></rc>
    <rc><c>C </c><c>   2</c></rc>
    <rc><c>C </c><c>   2</c></rc>
    <rc><c>C </c><c>   2</c></rc>
    <rc><c>C </c><c>   2</c></rc>
    <rc><c>C </c><c>   2</c></rc>
    <rc><c>C </c><c>   2</c></rc>
    <rc><c>C </c><c>   2</c></rc>
    <rc><c>C </c><c>   2</c></rc>
    <rc><c>C </c><c>   2</c></rc>
    <rc><c>C </c><c>   2</c></rc>
    <rc><c>C </c><c>   2</c></rc>
    <rc><c>C </c><c>   2</c></rc>
    <rc><c>N </c><c>   3</c></rc>
    <rc><c>N </c><c>   3</c></rc>
    <rc><c>N </c><c>   3</c></rc>
    <rc><c>N </c><c>   3</c></rc>
    <rc><c>N </c><c>   3</c></rc>
    <rc><c>N </c><c>   3</c></rc>
    <rc><c>N </c><c>   3</c></rc>
    <rc><c>N </c><c>   3</c></rc>
    <rc><c>N </c><c>   3</c></rc>
    <rc><c>N </c><c>   3</c></rc>
    <rc><c>N </c><c>   3</c></rc>
    <rc><c>N </c><c>   3</c></rc>
    <rc><c>N </c><c>   3</c></rc>
    <rc><c>N </c><c>   3</c></rc>
    <rc><c>N </c><c>   3</c></rc>
    <rc><c>N </c><c>   3</c></rc>
    <rc><c>N </c><c>   3</c></rc>
    <rc><c>N </c><c>   3</c></rc>
    <rc><c>N </c><c>   3</c></rc>
    <rc><c>N </c><c>   3</c></rc>
    <rc><c>N </c><c>   3</c></rc>
    <rc><c>N </c><c>   3</c></rc>
    <rc><c>N </c><c>   3</c></rc>
    <rc><c>N </c><c>   3</c></rc>
    <rc><c>N </c><c>   3</c></rc>
    <rc><c>N </c><c>   3</c></rc>
    <rc><c>N </c><c>   3</c></rc>
    <rc><c>N </c><c>   3</c></rc>
    <rc><c>N </c><c>   3</c></rc>
    <rc><c>N </c><c>   3</c></rc>
    <rc><c>N </c><c>   3</c></rc>
    <rc><c>N </c><c>   3</c></rc>
    <rc><c>N </c><c>   3</c></rc>
    <rc><c>N </c><c>   3</c></rc>
    <rc><c>N </c><c>   3</c></rc>
    <rc><c>N </c><c>   3</c></rc>
    <rc><c>N </c><c>   3</c></rc>
    <rc><c>N </c><c>   3</c></rc>
    <rc><c>N </c><c>   3</c></rc>
    <rc><c>N </c><c>   3</c></rc>
    <rc><c>N </c><c>   3</c></rc>
    <rc><c>N </c><c>   3</c></rc>
    <rc><c>N </c><c>   3</c></rc>
    <rc><c>N </c><c>   3</c></rc>
    <rc><c>N </c><c>   3</c></rc>
    <rc><c>N </c><c>   3</c></rc>
    <rc><c>N </c><c>   3</c></rc>
    <rc><c>I </c><c>   4</c></rc>
    <rc><c>I </c><c>   4</c></rc>
    <rc><c>I </c><c>   4</c></rc>
    <rc><c>I </c><c>   4</c></rc>
    <rc><c>I </c><c>   4</c></rc>
    <rc><c>I </c><c>   4</c></rc>
    <rc><c>I </c><c>   4</c></rc>
    <rc><c>I </c><c>   4</c></rc>
    <rc><c>I </c><c>   4</c></rc>
    <rc><c>I </c><c>   4</c></rc>
    <rc><c>I </c><c>   4</c></rc>
    <rc><c>I </c><c>   4</c></rc>
    <rc><c>I </c><c>   4</c></rc>
    <rc><c>I </c><c>   4</c></rc>
    <rc><c>I </c><c>   4</c></rc>
    <rc><c>I </c><c>   4</c></rc>
    <rc><c>I </c><c>   4</c></rc>
    <rc><c>I </c><c>   4</c></rc>
    <rc><c>I </c><c>   4</c></rc>
    <rc><c>I </c><c>   4</c></rc>
    <rc><c>I </c><c>   4</c></rc>
    <rc><c>I </c><c>   4</c></rc>
    <rc><c>I </c><c>   4</c></rc>
    <rc><c>I </c><c>   4</c></rc>
    <rc><c>I </c><c>   4</c></rc>
    <rc><c>I </c><c>   4</c></rc>
    <rc><c>I </c><c>   4</c></rc>
    <rc><c>I </c><c>   4</c></rc>
    <rc><c>I </c><c>   4</c></rc>
    <rc><c>I </c><c>   4</c></rc>
    <rc><c>I </c><c>   4</c></rc>
    <rc><c>I </c><c>   4</c></rc>
    <rc><c>I </c><c>   4</c></rc>
    <rc><c>I </c><c>   4</c></rc>
    <rc><c>I </c><c>   4</c></rc>
    <rc><c>I </c><c>   4</c></rc>
    <rc><c>I </c><c>   4</c></rc>
    <rc><c>I </c><c>   4</c></rc>
    <rc><c>I </c><c>   4</c></rc>
    <rc><c>I </c><c>   4</c></rc>
    <rc><c>I </c><c>   4</c></rc>
    <rc><c>I </c><c>   4</c></rc>
    <rc><c>I </c><c>   4</c></rc>
    <rc><c>I </c><c>   4</c></rc>
    <rc><c>I </c><c>   4</c></rc>
    <rc><c>I </c><c>   4</c></rc>
    <rc><c>I </c><c>   4</c></rc>
    <rc><c>I </c><c>   4</c></rc>
    <rc><c>I </c><c>   4</c></rc>
    <rc><c>I </c><c>   4</c></rc>
    <rc><c>I </c><c>   4</c></rc>
    <rc><c>I </c><c>   4</c></rc>
    <rc><c>I </c><c>   4</c></rc>
    <rc><c>I </c><c>   4</c></rc>
    <rc><c>I </c><c>   4</c></rc>
    <rc><c>I </c><c>   4</c></rc>
    <rc><c>I </c><c>   4</c></rc>
    <rc><c>I </c><c>   4</c></rc>
    <rc><c>I </c><c>   4</c></rc>
    <rc><c>I </c><c>   4</c></rc>
    <rc><c>I </c><c>   4</c></rc>
    <rc><c>I </c><c>   4</c></rc>
    <rc><c>I </c><c>   4</c></rc>
    <rc><c>I </c><c>   4</c></rc>
    <rc><c>I </c><c>   4</c></rc>
    <rc><c>I </c><c>   4</c></rc>
    <rc><c>I </c><c>   4</c></rc>
    <rc><c>I </c><c>   4</c></rc>
    <rc><c>I </c><c>   4</c></rc>
    <rc><c>I </c><c>   4</c></rc>
    <rc><c>I </c><c>   4</c></rc>
    <rc><c>I </c><c>   4</c></rc>
    <rc><c>Pb</c><c>   5</c></rc>
    <rc><c>Pb</c><c>   5</c></rc>
    <rc><c>Pb</c><c>   5</c></rc>
    <rc><c>Pb</c><c>   5</c></rc>
    <rc><c>Pb</c><c>   5</c></rc>
    <rc><c>Pb</c><c>   5</c></rc>
    <rc><c>Pb</c><c>   5</c></rc>
    <rc><c>Pb</c><c>   5</c></rc>
    <rc><c>Pb</c><c>   5</c></rc>
    <rc><c>Pb</c><c>   5</c></rc>
    <rc><c>Pb</c><c>   5</c></rc>
    <rc><c>Pb</c><c>   5</c></rc>
    <rc><c>Pb</c><c>   5</c></rc>
    <rc><c>Pb</c><c>   5</c></rc>
    <rc><c>Pb</c><c>   5</c></rc>
    <rc><c>Pb</c><c>   5</c></rc>
    <rc><c>Pb</c><c>   5</c></rc>
    <rc><c>Pb</c><c>   5</c></rc>
    <rc><c>Pb</c><c>   5</c></rc>
    <rc><c>Pb</c><c>   5</c></rc>
    <rc><c>Pb</c><c>   5</c></rc>
    <rc><c>Pb</c><c>   5</c></rc>
    <rc><c>Pb</c><c>   5</c></rc>
    <rc><c>Pb</c><c>   5</c></rc>
   </set>
  </array>
  <array name="atomtypes" >
   <dimension dim="1">type</dimension>
   <field type="int">atomspertype</field>
   <field type="string">element</field>
   <field>mass</field>
   <field>valence</field>
   <field type="string">pseudopotential</field>
   <set>
    <rc><c> 143</c><c>H </c><c>      1.00000000</c><c>      1.00000000</c><c>  PAW_PBE H 15Jun2001                   </c></rc>
    <rc><c>  39</c><c>C </c><c>     12.01100000</c><c>      4.00000000</c><c>  PAW_PBE C 08Apr2002                   </c></rc>
    <rc><c>  47</c><c>N </c><c>     14.00100000</c><c>      5.00000000</c><c>  PAW_PBE N 08Apr2002                   </c></rc>
    <rc><c>  72</c><c>I </c><c>    126.90400000</c><c>      7.00000000</c><c>  PAW_PBE I 08Apr2002                   </c></rc>
    <rc><c>  24</c><c>Pb</c><c>    207.20000000</c><c>      4.00000000</c><c>  PAW_PBE Pb 08Apr2002                  </c></rc>
   </set>
  </array>
 </atominfo>
 <structure name="initialpos" >
  <crystal>
   <varray name="basis" >
    <v>      18.06080055       0.00000000       0.00000000 </v>
    <v>      -0.00491865      18.06279945       0.00000000 </v>
    <v>       0.00000000       0.00000000      62.48749924 </v>
   </varray>
   <i name="volume">  20385.21054034 </i>
   <varray name="rec_basis" >
    <v>       0.05536853       0.00001508      -0.00000000 </v>
    <v>       0.00000000       0.05536240       0.00000000 </v>
    <v>       0.00000000      -0.00000000       0.01600320 </v>
   </varray>
  </crystal>
  <varray name="positions" >
   <v>       0.43718734       0.28526116       0.58364744 </v>
   <v>       0.43248240       0.78244437       0.58097991 </v>
   <v>       0.94282452       0.29504703       0.58414375 </v>
   <v>       0.95203444       0.80469739       0.58139162 </v>
   <v>       0.30414543       0.05015824       0.58200612 </v>
   <v>       0.30648841       0.56652996       0.57857867 </v>
   <v>       0.78096939       0.06583416       0.58180997 </v>
   <v>       0.08681742       0.17313903       0.55908124 </v>
   <v>       0.08807252       0.67980363       0.55757362 </v>
   <v>       0.59595958       0.18636681       0.55848194 </v>
   <v>       0.60245100       0.70487541       0.55788343 </v>
   <v>       0.35247739       0.05368516       0.55764120 </v>
   <v>       0.31309958       0.59387981       0.55174592 </v>
   <v>       0.82571126       0.08347008       0.55746141 </v>
   <v>       0.06214505       0.21376289       0.58443538 </v>
   <v>       0.04218393       0.69575514       0.58124773 </v>
   <v>       0.54859886       0.19468238       0.58321022 </v>
   <v>       0.54995129       0.70722824       0.58206594 </v>
   <v>       0.22875885       0.44748635       0.58478084 </v>
   <v>       0.18376790       0.97203106       0.58142641 </v>
   <v>       0.69344473       0.95189382       0.58171877 </v>
   <v>       0.41395631       0.32091880       0.55829508 </v>
   <v>       0.41176516       0.82584609       0.55660834 </v>
   <v>       0.90197690       0.29987625       0.55826626 </v>
   <v>       0.94221854       0.85071851       0.55735696 </v>
   <v>       0.19210809       0.40588424       0.56174511 </v>
   <v>       0.16204171       0.93145889       0.55665736 </v>
   <v>       0.68928283       0.90291832       0.55737021 </v>
   <v>       0.51236368       0.25941914       0.53981048 </v>
   <v>       0.51965759       0.77765039       0.53954004 </v>
   <v>       0.98272011       0.21973835       0.54223492 </v>
   <v>       0.03314170       0.77972181       0.53957417 </v>
   <v>       0.24252570       0.49475006       0.53858453 </v>
   <v>       0.26686600       0.97904162       0.53948248 </v>
   <v>       0.77199858       0.98259600       0.53988038 </v>
   <v>       0.43892726       0.29752757       0.67266567 </v>
   <v>       0.44189597       0.80381783       0.67399675 </v>
   <v>       0.94521201       0.30201347       0.67399150 </v>
   <v>       0.94332187       0.79762883       0.67620459 </v>
   <v>       0.30013404       0.05654029       0.67354848 </v>
   <v>       0.30253530       0.55382874       0.67408649 </v>
   <v>       0.81193179       0.05008793       0.67373815 </v>
   <v>       0.80179161       0.55420048       0.67371312 </v>
   <v>       0.07993051       0.16904853       0.64938941 </v>
   <v>       0.08803568       0.68434218       0.65066609 </v>
   <v>       0.57977742       0.17284367       0.64852144 </v>
   <v>       0.57552133       0.66701862       0.65315267 </v>
   <v>       0.16847904       0.42086012       0.65041397 </v>
   <v>       0.17493558       0.91377358       0.65016978 </v>
   <v>       0.66724818       0.41211228       0.65705494 </v>
   <v>       0.66284843       0.93201473       0.65062000 </v>
   <v>       0.04874716       0.19693440       0.67468536 </v>
   <v>       0.05053055       0.70323895       0.67613163 </v>
   <v>       0.53987176       0.19315951       0.67354817 </v>
   <v>       0.54265007       0.70134430       0.67736540 </v>
   <v>       0.19830761       0.45205140       0.67569301 </v>
   <v>       0.20000774       0.94959402       0.67536268 </v>
   <v>       0.70344884       0.44750551       0.68071696 </v>
   <v>       0.69864167       0.95816787       0.67571926 </v>
   <v>       0.42331924       0.33385806       0.64727058 </v>
   <v>       0.42159260       0.82986954       0.64759077 </v>
   <v>       0.92121509       0.32724043       0.64848652 </v>
   <v>       0.91947533       0.83204475       0.65077219 </v>
   <v>       0.32867767       0.07897410       0.64734969 </v>
   <v>       0.32909698       0.57860818       0.64810399 </v>
   <v>       0.83706626       0.07504289       0.64735928 </v>
   <v>       0.81272431       0.57760750       0.64645681 </v>
   <v>       0.00291742       0.24796547       0.63124320 </v>
   <v>       0.01028801       0.76361713       0.63300136 </v>
   <v>       0.51087447       0.25846022       0.63022151 </v>
   <v>       0.50577160       0.74437797       0.63257428 </v>
   <v>       0.25176770       0.98959570       0.63122476 </v>
   <v>       0.24557493       0.49596034       0.63146914 </v>
   <v>       0.74499339       0.00033200       0.63135321 </v>
   <v>       0.72937251       0.49007245       0.63449977 </v>
   <v>       0.44874502       0.30128397       0.76888902 </v>
   <v>       0.44874501       0.80128391       0.76888902 </v>
   <v>       0.94874497       0.30128397       0.76888902 </v>
   <v>       0.94874501       0.80128391       0.76888902 </v>
   <v>       0.30127600       0.05129450       0.76887296 </v>
   <v>       0.30127601       0.55129450       0.76887296 </v>
   <v>       0.80127594       0.05129450       0.76887296 </v>
   <v>       0.80127598       0.55129450       0.76887296 </v>
   <v>       0.07877100       0.17118050       0.74344197 </v>
   <v>       0.07877101       0.67118045       0.74344197 </v>
   <v>       0.57877100       0.17118050       0.74344197 </v>
   <v>       0.57877099       0.67118045       0.74344197 </v>
   <v>       0.17119950       0.42117448       0.74342103 </v>
   <v>       0.17119950       0.92117451       0.74342103 </v>
   <v>       0.67119951       0.42117448       0.74342103 </v>
   <v>       0.67119950       0.92117451       0.74342103 </v>
   <v>       0.05125600       0.19871499       0.76888902 </v>
   <v>       0.05125600       0.69871493       0.76888902 </v>
   <v>       0.55125603       0.19871499       0.76888902 </v>
   <v>       0.55125602       0.69871493       0.76888902 </v>
   <v>       0.19872349       0.44870397       0.76887205 </v>
   <v>       0.19872349       0.94870397       0.76887205 </v>
   <v>       0.69872352       0.44870397       0.76887205 </v>
   <v>       0.69872351       0.94870397       0.76887205 </v>
   <v>       0.42123152       0.32881747       0.74344197 </v>
   <v>       0.42123151       0.82881744       0.74344197 </v>
   <v>       0.92123147       0.32881747       0.74344197 </v>
   <v>       0.92123151       0.82881744       0.74344197 </v>
   <v>       0.32880050       0.07882500       0.74342103 </v>
   <v>       0.32880049       0.57882496       0.74342103 </v>
   <v>       0.82880048       0.07882500       0.74342103 </v>
   <v>       0.82880052       0.57882496       0.74342103 </v>
   <v>       0.00000350       0.25000148       0.72582199 </v>
   <v>       0.00000350       0.75000145       0.72582199 </v>
   <v>       0.50000351       0.25000148       0.72582199 </v>
   <v>       0.50000350       0.75000145       0.72582199 </v>
   <v>       0.25000050       0.00000000       0.72580398 </v>
   <v>       0.25000052       0.50000000       0.72580398 </v>
   <v>       0.75000050       0.00000000       0.72580398 </v>
   <v>       0.75000049       0.50000000       0.72580398 </v>
   <v>       0.77736403       0.52384534       0.52423022 </v>
   <v>       0.87163423       0.51834968       0.53544682 </v>
   <v>       0.76834644       0.62988985       0.54117996 </v>
   <v>       0.77374182       0.63847370       0.56940454 </v>
   <v>       0.68493630       0.47001122       0.56389416 </v>
   <v>       0.67543755       0.56631244       0.56926053 </v>
   <v>       0.80840414       0.43223111       0.57390947 </v>
   <v>       0.87209028       0.50802483       0.57666356 </v>
   <v>       0.85694454       0.39326762       0.54764207 </v>
   <v>       0.76010724       0.38984417       0.54122996 </v>
   <v>       0.77729498       0.39672500       0.50440042 </v>
   <v>       0.86742044       0.43550499       0.50641428 </v>
   <v>       0.90144323       0.63631680       0.53719845 </v>
   <v>       0.92221684       0.60899853       0.56420971 </v>
   <v>       0.87776260       0.69592604       0.55937855 </v>
   <v>       0.60104367       0.54316962       0.53912181 </v>
   <v>       0.66987722       0.49412615       0.52520441 </v>
   <v>       0.67384827       0.59249028       0.52725652 </v>
   <v>       0.72955773       0.48052319       0.60174047 </v>
   <v>       0.74850169       0.57415923       0.59311155 </v>
   <v>       0.81157869       0.53091321       0.61073293 </v>
   <v>       0.83872229       0.27338162       0.52155024 </v>
   <v>       0.84057556       0.29286540       0.49359161 </v>
   <v>       0.94247968       0.18753264       0.50324064 </v>
   <v>       0.96680289       0.42019028       0.51797628 </v>
   <v>       0.07879017       0.17253476       0.50629920 </v>
   <v>       0.09937676       0.40429677       0.52134170 </v>
   <v>       0.15907066       0.27950359       0.51513312 </v>
   <v>       0.99229764       0.23532026       0.55917770 </v>
   <v>       0.01665163       0.76637222       0.55620402 </v>
   <v>       0.50515076       0.25239282       0.55703207 </v>
   <v>       0.50685709       0.76440123       0.55630566 </v>
   <v>       0.25225781       0.49960206       0.55604011 </v>
   <v>       0.25756651       0.99234152       0.55653325 </v>
   <v>       0.75773991       0.99298317       0.55681187 </v>
   <v>       0.99993969       0.24913158       0.64869884 </v>
   <v>       0.00302958       0.75904433       0.65046207 </v>
   <v>       0.50166741       0.25332652       0.64741721 </v>
   <v>       0.49940402       0.74923800       0.65008046 </v>
   <v>       0.24923142       0.50006637       0.64884572 </v>
   <v>       0.25185320       0.99701098       0.64864579 </v>
   <v>       0.73938851       0.49398719       0.65175200 </v>
   <v>       0.75053059       0.00309251       0.64872540 </v>
   <v>       0.49998898       0.24999498       0.74327702 </v>
   <v>       0.49998903       0.74999496       0.74327702 </v>
   <v>       0.99998898       0.24999498       0.74327702 </v>
   <v>       0.99998903       0.74999496       0.74327702 </v>
   <v>       0.25000050       0.00000100       0.74325596 </v>
   <v>       0.25000052       0.50000100       0.74325596 </v>
   <v>       0.75000050       0.00000100       0.74325596 </v>
   <v>       0.75000049       0.50000100       0.74325596 </v>
   <v>       0.94339286       0.30499250       0.51009293 </v>
   <v>       0.97678620       0.23659361       0.50675492 </v>
   <v>       0.99146503       0.36601955       0.51407493 </v>
   <v>       0.05405484       0.22825500       0.50786641 </v>
   <v>       0.06687862       0.35705542       0.51652268 </v>
   <v>       0.10059622       0.28802863       0.51369711 </v>
   <v>       0.81401489       0.49816480       0.53669243 </v>
   <v>       0.80007358       0.61269643       0.55531206 </v>
   <v>       0.69567807       0.52585667       0.55744865 </v>
   <v>       0.81322414       0.49305663       0.57670727 </v>
   <v>       0.81355329       0.41403887       0.53614380 </v>
   <v>       0.83026953       0.39215298       0.51328156 </v>
   <v>       0.88147083       0.63792560       0.55381011 </v>
   <v>       0.66096300       0.53996110       0.53586737 </v>
   <v>       0.77283273       0.51876367       0.59688928 </v>
   <v>       0.86144317       0.31388802       0.50921489 </v>
   <v>       0.05012834       0.20486866       0.56870439 </v>
   <v>       0.05113381       0.71124229       0.56550343 </v>
   <v>       0.55180403       0.20690543       0.56689732 </v>
   <v>       0.55618171       0.72110210       0.56601140 </v>
   <v>       0.44902934       0.28779780       0.56675429 </v>
   <v>       0.44556949       0.79230577       0.56515900 </v>
   <v>       0.94195100       0.27938538       0.56821875 </v>
   <v>       0.96759068       0.80937611       0.56547937 </v>
   <v>       0.22297148       0.44868607       0.56853229 </v>
   <v>       0.19819821       0.96416230       0.56575043 </v>
   <v>       0.71068966       0.94814515       0.56616958 </v>
   <v>       0.30639735       0.03421175       0.56629234 </v>
   <v>       0.29219546       0.55592623       0.56295525 </v>
   <v>       0.78933284       0.05015203       0.56625468 </v>
   <v>       0.04603413       0.20224231       0.65815782 </v>
   <v>       0.05018755       0.71255072       0.65984206 </v>
   <v>       0.54278992       0.20312825       0.65717630 </v>
   <v>       0.54139676       0.70418355       0.66158924 </v>
   <v>       0.20381233       0.45604491       0.65939098 </v>
   <v>       0.20710445       0.95208235       0.65908080 </v>
   <v>       0.70186466       0.44954197       0.66421757 </v>
   <v>       0.70218155       0.96293610       0.65943323 </v>
   <v>       0.45188776       0.29675696       0.65645155 </v>
   <v>       0.45101488       0.79724082       0.65778873 </v>
   <v>       0.95438732       0.29368152       0.65817382 </v>
   <v>       0.95238599       0.79846673       0.65973883 </v>
   <v>       0.29455456       0.04608562       0.65745706 </v>
   <v>       0.29646127       0.54710204       0.65774929 </v>
   <v>       0.80291701       0.04427134       0.65741842 </v>
   <v>       0.78856147       0.54548432       0.65791705 </v>
   <v>       0.04586250       0.20411950       0.75272599 </v>
   <v>       0.04586250       0.70411946       0.75272599 </v>
   <v>       0.54586251       0.20411950       0.75272599 </v>
   <v>       0.54586250       0.70411946       0.75272599 </v>
   <v>       0.20411900       0.45410100       0.75270499 </v>
   <v>       0.20411899       0.95410095       0.75270499 </v>
   <v>       0.70411898       0.45410100       0.75270499 </v>
   <v>       0.70411896       0.95410095       0.75270499 </v>
   <v>       0.45414002       0.29588849       0.75272697 </v>
   <v>       0.45414001       0.79588852       0.75272697 </v>
   <v>       0.95414002       0.29588849       0.75272697 </v>
[...]
   <v>       0.59595958       0.18636681       0.55848194 </v>
   <v>       0.60245100       0.70487541       0.55788343 </v>
   <v>       0.35247739       0.05368516       0.55764120 </v>
   <v>       0.31309958       0.59387981       0.55174592 </v>
   <v>       0.82571126       0.08347008       0.55746141 </v>
   <v>       0.06214505       0.21376289       0.58443538 </v>
   <v>       0.04218393       0.69575514       0.58124773 </v>
   <v>       0.54859886       0.19468238       0.58321022 </v>
   <v>       0.54995129       0.70722824       0.58206594 </v>
   <v>       0.22875885       0.44748635       0.58478084 </v>
   <v>       0.18376790       0.97203106       0.58142641 </v>
   <v>       0.69344473       0.95189382       0.58171877 </v>
   <v>       0.41395631       0.32091880       0.55829508 </v>
   <v>       0.41176516       0.82584609       0.55660834 </v>
   <v>       0.90197690       0.29987625       0.55826626 </v>
   <v>       0.94221854       0.85071851       0.55735696 </v>
   <v>       0.19210809       0.40588424       0.56174511 </v>
   <v>       0.16204171       0.93145889       0.55665736 </v>
   <v>       0.68928283       0.90291832       0.55737021 </v>
   <v>       0.51236368       0.25941914       0.53981048 </v>
   <v>       0.51965759       0.77765039       0.53954004 </v>
   <v>       0.98272011       0.21973835       0.54223492 </v>
   <v>       0.03314170       0.77972181       0.53957417 </v>
   <v>       0.24252570       0.49475006       0.53858453 </v>
   <v>       0.26686600       0.97904162       0.53948248 </v>
   <v>       0.77199858       0.98259600       0.53988038 </v>
   <v>       0.43892726       0.29752757       0.67266567 </v>
   <v>       0.44189597       0.80381783       0.67399675 </v>
   <v>       0.94521201       0.30201347       0.67399150 </v>
   <v>       0.94332187       0.79762883       0.67620459 </v>
   <v>       0.30013404       0.05654029       0.67354848 </v>
   <v>       0.30253530       0.55382874       0.67408649 </v>
   <v>       0.81193179       0.05008793       0.67373815 </v>
   <v>       0.80179161       0.55420048       0.67371312 </v>
   <v>       0.07993051       0.16904853       0.64938941 </v>
   <v>       0.08803568       0.68434218       0.65066609 </v>
   <v>       0.57977742       0.17284367       0.64852144 </v>
   <v>       0.57552133       0.66701862       0.65315267 </v>
   <v>       0.16847904       0.42086012       0.65041397 </v>
   <v>       0.17493558       0.91377358       0.65016978 </v>
   <v>       0.66724818       0.41211228       0.65705494 </v>
   <v>       0.66284843       0.93201473       0.65062000 </v>
   <v>       0.04874716       0.19693440       0.67468536 </v>
   <v>       0.05053055       0.70323895       0.67613163 </v>
   <v>       0.53987176       0.19315951       0.67354817 </v>
   <v>       0.54265007       0.70134430       0.67736540 </v>
   <v>       0.19830761       0.45205140       0.67569301 </v>
   <v>       0.20000774       0.94959402       0.67536268 </v>
   <v>       0.70344884       0.44750551       0.68071696 </v>
   <v>       0.69864167       0.95816787       0.67571926 </v>
   <v>       0.42331924       0.33385806       0.64727058 </v>
   <v>       0.42159260       0.82986954       0.64759077 </v>
   <v>       0.92121509       0.32724043       0.64848652 </v>
   <v>       0.91947533       0.83204475       0.65077219 </v>
   <v>       0.32867767       0.07897410       0.64734969 </v>
   <v>       0.32909698       0.57860818       0.64810399 </v>
   <v>       0.83706626       0.07504289       0.64735928 </v>
   <v>       0.81272431       0.57760750       0.64645681 </v>
   <v>       0.00291742       0.24796547       0.63124320 </v>
   <v>       0.01028801       0.76361713       0.63300136 </v>
   <v>       0.51087447       0.25846022       0.63022151 </v>
   <v>       0.50577160       0.74437797       0.63257428 </v>
   <v>       0.25176770       0.98959570       0.63122476 </v>
   <v>       0.24557493       0.49596034       0.63146914 </v>
   <v>       0.74499339       0.00033200       0.63135321 </v>
   <v>       0.72937251       0.49007245       0.63449977 </v>
   <v>       0.44874502       0.30128397       0.76888902 </v>
   <v>       0.44874501       0.80128391       0.76888902 </v>
   <v>       0.94874497       0.30128397       0.76888902 </v>
   <v>       0.94874501       0.80128391       0.76888902 </v>
   <v>       0.30127600       0.05129450       0.76887296 </v>
   <v>       0.30127601       0.55129450       0.76887296 </v>
   <v>       0.80127594       0.05129450       0.76887296 </v>
   <v>       0.80127598       0.55129450       0.76887296 </v>
   <v>       0.07877100       0.17118050       0.74344197 </v>
   <v>       0.07877101       0.67118045       0.74344197 </v>
   <v>       0.57877100       0.17118050       0.74344197 </v>
   <v>       0.57877099       0.67118045       0.74344197 </v>
   <v>       0.17119950       0.42117448       0.74342103 </v>
   <v>       0.17119950       0.92117451       0.74342103 </v>
   <v>       0.67119951       0.42117448       0.74342103 </v>
   <v>       0.67119950       0.92117451       0.74342103 </v>
   <v>       0.05125600       0.19871499       0.76888902 </v>
   <v>       0.05125600       0.69871493       0.76888902 </v>
   <v>       0.55125603       0.19871499       0.76888902 </v>
   <v>       0.55125602       0.69871493       0.76888902 </v>
   <v>       0.19872349       0.44870397       0.76887205 </v>
   <v>       0.19872349       0.94870397       0.76887205 </v>
   <v>       0.69872352       0.44870397       0.76887205 </v>
   <v>       0.69872351       0.94870397       0.76887205 </v>
   <v>       0.42123152       0.32881747       0.74344197 </v>
   <v>       0.42123151       0.82881744       0.74344197 </v>
   <v>       0.92123147       0.32881747       0.74344197 </v>
   <v>       0.92123151       0.82881744       0.74344197 </v>
   <v>       0.32880050       0.07882500       0.74342103 </v>
   <v>       0.32880049       0.57882496       0.74342103 </v>
   <v>       0.82880048       0.07882500       0.74342103 </v>
   <v>       0.82880052       0.57882496       0.74342103 </v>
   <v>       0.00000350       0.25000148       0.72582199 </v>
   <v>       0.00000350       0.75000145       0.72582199 </v>
   <v>       0.50000351       0.25000148       0.72582199 </v>
   <v>       0.50000350       0.75000145       0.72582199 </v>
   <v>       0.25000050       0.00000000       0.72580398 </v>
   <v>       0.25000052       0.50000000       0.72580398 </v>
   <v>       0.75000050       0.00000000       0.72580398 </v>
   <v>       0.75000049       0.50000000       0.72580398 </v>
   <v>       0.77736403       0.52384534       0.52423022 </v>
   <v>       0.87163423       0.51834968       0.53544682 </v>
   <v>       0.76834644       0.62988985       0.54117996 </v>
   <v>       0.77374182       0.63847370       0.56940454 </v>
   <v>       0.68493630       0.47001122       0.56389416 </v>
   <v>       0.67543755       0.56631244       0.56926053 </v>
   <v>       0.80840414       0.43223111       0.57390947 </v>
   <v>       0.87209028       0.50802483       0.57666356 </v>
   <v>       0.85694454       0.39326762       0.54764207 </v>
   <v>       0.76010724       0.38984417       0.54122996 </v>
   <v>       0.77729498       0.39672500       0.50440042 </v>
   <v>       0.86742044       0.43550499       0.50641428 </v>
   <v>       0.90144323       0.63631680       0.53719845 </v>
   <v>       0.92221684       0.60899853       0.56420971 </v>
   <v>       0.87776260       0.69592604       0.55937855 </v>
   <v>       0.60104367       0.54316962       0.53912181 </v>
   <v>       0.66987722       0.49412615       0.52520441 </v>
   <v>       0.67384827       0.59249028       0.52725652 </v>
   <v>       0.72955773       0.48052319       0.60174047 </v>
   <v>       0.74850169       0.57415923       0.59311155 </v>
   <v>       0.81157869       0.53091321       0.61073293 </v>
   <v>       0.83872229       0.27338162       0.52155024 </v>
   <v>       0.84057556       0.29286540       0.49359161 </v>
   <v>       0.94247968       0.18753264       0.50324064 </v>
   <v>       0.96680289       0.42019028       0.51797628 </v>
   <v>       0.07879017       0.17253476       0.50629920 </v>
   <v>       0.09937676       0.40429677       0.52134170 </v>
   <v>       0.15907066       0.27950359       0.51513312 </v>
   <v>       0.99229764       0.23532026       0.55917770 </v>
   <v>       0.01665163       0.76637222       0.55620402 </v>
   <v>       0.50515076       0.25239282       0.55703207 </v>
   <v>       0.50685709       0.76440123       0.55630566 </v>
   <v>       0.25225781       0.49960206       0.55604011 </v>
   <v>       0.25756651       0.99234152       0.55653325 </v>
   <v>       0.75773991       0.99298317       0.55681187 </v>
   <v>       0.99993969       0.24913158       0.64869884 </v>
   <v>       0.00302958       0.75904433       0.65046207 </v>
   <v>       0.50166741       0.25332652       0.64741721 </v>
   <v>       0.49940402       0.74923800       0.65008046 </v>
   <v>       0.24923142       0.50006637       0.64884572 </v>
   <v>       0.25185320       0.99701098       0.64864579 </v>
   <v>       0.73938851       0.49398719       0.65175200 </v>
   <v>       0.75053059       0.00309251       0.64872540 </v>
   <v>       0.49998898       0.24999498       0.74327702 </v>
   <v>       0.49998903       0.74999496       0.74327702 </v>
   <v>       0.99998898       0.24999498       0.74327702 </v>
   <v>       0.99998903       0.74999496       0.74327702 </v>
   <v>       0.25000050       0.00000100       0.74325596 </v>
   <v>       0.25000052       0.50000100       0.74325596 </v>
   <v>       0.75000050       0.00000100       0.74325596 </v>
   <v>       0.75000049       0.50000100       0.74325596 </v>
   <v>       0.94339286       0.30499250       0.51009293 </v>
   <v>       0.97678620       0.23659361       0.50675492 </v>
   <v>       0.99146503       0.36601955       0.51407493 </v>
   <v>       0.05405484       0.22825500       0.50786641 </v>
   <v>       0.06687862       0.35705542       0.51652268 </v>
   <v>       0.10059622       0.28802863       0.51369711 </v>
   <v>       0.81401489       0.49816480       0.53669243 </v>
   <v>       0.80007358       0.61269643       0.55531206 </v>
   <v>       0.69567807       0.52585667       0.55744865 </v>
   <v>       0.81322414       0.49305663       0.57670727 </v>
   <v>       0.81355329       0.41403887       0.53614380 </v>
   <v>       0.83026953       0.39215298       0.51328156 </v>
   <v>       0.88147083       0.63792560       0.55381011 </v>
   <v>       0.66096300       0.53996110       0.53586737 </v>
   <v>       0.77283273       0.51876367       0.59688928 </v>
   <v>       0.86144317       0.31388802       0.50921489 </v>
   <v>       0.05012834       0.20486866       0.56870439 </v>
   <v>       0.05113381       0.71124229       0.56550343 </v>
   <v>       0.55180403       0.20690543       0.56689732 </v>
   <v>       0.55618171       0.72110210       0.56601140 </v>
   <v>       0.44902934       0.28779780       0.56675429 </v>
   <v>       0.44556949       0.79230577       0.56515900 </v>
   <v>       0.94195100       0.27938538       0.56821875 </v>
   <v>       0.96759068       0.80937611       0.56547937 </v>
   <v>       0.22297148       0.44868607       0.56853229 </v>
   <v>       0.19819821       0.96416230       0.56575043 </v>
   <v>       0.71068966       0.94814515       0.56616958 </v>
   <v>       0.30639735       0.03421175       0.56629234 </v>
   <v>       0.29219546       0.55592623       0.56295525 </v>
   <v>       0.78933284       0.05015203       0.56625468 </v>
   <v>       0.04603413       0.20224231       0.65815782 </v>
   <v>       0.05018755       0.71255072       0.65984206 </v>
   <v>       0.54278992       0.20312825       0.65717630 </v>
   <v>       0.54139676       0.70418355       0.66158924 </v>
   <v>       0.20381233       0.45604491       0.65939098 </v>
   <v>       0.20710445       0.95208235       0.65908080 </v>
   <v>       0.70186466       0.44954197       0.66421757 </v>
   <v>       0.70218155       0.96293610       0.65943323 </v>
   <v>       0.45188776       0.29675696       0.65645155 </v>
   <v>       0.45101488       0.79724082       0.65778873 </v>
   <v>       0.95438732       0.29368152       0.65817382 </v>
   <v>       0.95238599       0.79846673       0.65973883 </v>
   <v>       0.29455456       0.04608562       0.65745706 </v>
   <v>       0.29646127       0.54710204       0.65774929 </v>
   <v>       0.80291701       0.04427134       0.65741842 </v>
   <v>       0.78856147       0.54548432       0.65791705 </v>
   <v>       0.04586250       0.20411950       0.75272599 </v>
   <v>       0.04586250       0.70411946       0.75272599 </v>
   <v>       0.54586251       0.20411950       0.75272599 </v>
   <v>       0.54586250       0.70411946       0.75272599 </v>
   <v>       0.20411900       0.45410100       0.75270499 </v>
   <v>       0.20411899       0.95410095       0.75270499 </v>
   <v>       0.70411898       0.45410100       0.75270499 </v>
   <v>       0.70411896       0.95410095       0.75270499 </v>
   <v>       0.45414002       0.29588849       0.75272697 </v>
   <v>       0.45414001       0.79588852       0.75272697 </v>
   <v>       0.95414002       0.29588849       0.75272697 </v>
   <v>       0.95414006       0.79588852       0.75272697 </v>
   <v>       0.29588249       0.04590050       0.75270499 </v>
   <v>       0.29588248       0.54590053       0.75270499 </v>
   <v>       0.79588244       0.04590050       0.75270499 </v>
   <v>       0.79588248       0.54590053       0.75270499 </v>
   <v>       0.78143292       0.53126236       0.55658087 </v>
   <v>       0.49474933       0.00140395       0.55225938 </v>
   <v>       0.47728135       0.48208183       0.55482801 </v>
   <v>       0.99797160       0.00143717       0.55108862 </v>
   <v>       0.02016166       0.49783223       0.55748577 </v>
   <v>       0.26135245       0.24556629       0.55406101 </v>
   <v>       0.24835716       0.75873303       0.55165483 </v>
   <v>       0.73560970       0.23136505       0.55543611 </v>
   <v>       0.72904639       0.77098970       0.54719258 </v>
   <v>       0.00163734       0.00402192       0.65385368 </v>
   <v>       0.00625169       0.49951342       0.65644172 </v>
   <v>       0.50535329       0.00431765       0.65477043 </v>
   <v>       0.50109923       0.49932107       0.65549079 </v>
   <v>       0.24765357       0.24682013       0.65552760 </v>
   <v>       0.24668857       0.75272233       0.65427521 </v>
   <v>       0.74261305       0.24827373       0.65596470 </v>
   <v>       0.74743400       0.75545208       0.65389666 </v>
   <v>       0.14610713       0.10491944       0.60928312 </v>
   <v>       0.14917227       0.60686419       0.60919460 </v>
   <v>       0.64368667       0.10716981       0.60965648 </v>
   <v>       0.62211543       0.62858574       0.61330065 </v>
   <v>       0.35662684       0.39137369       0.61060870 </v>
   <v>       0.35578826       0.89267748       0.60903136 </v>
   <v>       0.87794635       0.37365354       0.61309687 </v>
   <v>       0.85623185       0.89621788       0.60830874 </v>
   <v>       0.11132664       0.35273831       0.60943861 </v>
   <v>       0.10667137       0.85667842       0.60863974 </v>
   <v>       0.61484213       0.36319608       0.60664752 </v>
   <v>       0.60661258       0.86145555       0.60991887 </v>
   <v>       0.39452279       0.14119610       0.60968237 </v>
   <v>       0.39063355       0.64385642       0.60707882 </v>
   <v>       0.89065853       0.13840724       0.60931718 </v>
   <v>       0.90922403       0.65992472       0.61283608 </v>
   <v>       0.00000000       0.00000000       0.75492797 </v>
   <v>       0.00000000       0.50000000       0.75492797 </v>
   <v>       0.50000000       0.00000000       0.75492797 </v>
   <v>       0.49999999       0.50000000       0.75492797 </v>
   <v>       0.25000050       0.25000000       0.75493902 </v>
   <v>       0.25000051       0.74999997       0.75493902 </v>
   <v>       0.75000047       0.25000000       0.75493902 </v>
   <v>       0.75000046       0.74999997       0.75493902 </v>
   <v>       0.13579050       0.11421000       0.70478299 </v>
   <v>       0.13579050       0.61420998       0.70478299 </v>
   <v>       0.63579045       0.11421000       0.70478299 </v>
   <v>       0.63579049       0.61420998       0.70478299 </v>
   <v>       0.36420952       0.38578999       0.70478299 </v>
   <v>       0.36420950       0.88578996       0.70478299 </v>
   <v>       0.86420954       0.38578999       0.70478299 </v>
   <v>       0.86420953       0.88578996       0.70478299 </v>
   <v>       0.11421799       0.36421899       0.70478098 </v>
   <v>       0.11421799       0.86421899       0.70478098 </v>
   <v>       0.61421800       0.36421899       0.70478098 </v>
   <v>       0.61421799       0.86421899       0.70478098 </v>
   <v>       0.38578201       0.13578149       0.70478202 </v>
   <v>       0.38578200       0.63578149       0.70478202 </v>
   <v>       0.88578199       0.13578149       0.70478202 </v>
   <v>       0.88578203       0.63578149       0.70478202 </v>
   <v>       0.13466700       0.11533200       0.80125603 </v>
   <v>       0.13466699       0.61533199       0.80125603 </v>
   <v>       0.63466699       0.11533200       0.80125603 </v>
   <v>       0.63466698       0.61533199       0.80125603 </v>
   <v>       0.36533300       0.38466799       0.80125603 </v>
   <v>       0.36533299       0.88466796       0.80125603 </v>
   <v>       0.86533295       0.38466799       0.80125603 </v>
   <v>       0.86533294       0.88466796       0.80125603 </v>
   <v>       0.11532850       0.36533700       0.80126500 </v>
   <v>       0.11532850       0.86533698       0.80126500 </v>
   <v>       0.61532850       0.36533700       0.80126500 </v>
   <v>       0.61532849       0.86533698       0.80126500 </v>
   <v>       0.38467151       0.13466300       0.80126500 </v>
   <v>       0.38467150       0.63466297       0.80126500 </v>
   <v>       0.88467149       0.13466300       0.80126500 </v>
   <v>       0.88467153       0.63466297       0.80126500 </v>
   <v>       0.99987273       0.00025167       0.60320414 </v>
   <v>       0.01077152       0.50199359       0.60635022 </v>
   <v>       0.49798831       0.00105136       0.60231945 </v>
   <v>       0.49974317       0.49868940       0.60346598 </v>
   <v>       0.25380050       0.24669964       0.60436404 </v>
   <v>       0.24891099       0.75376899       0.60324407 </v>
   <v>       0.75023775       0.25090722       0.60579603 </v>
   <v>       0.75030487       0.75873741       0.60454798 </v>
   <v>       0.00000050       0.00000050       0.70482896 </v>
   <v>       0.00000050       0.50000048       0.70482896 </v>
   <v>       0.50000048       0.00000050       0.70482896 </v>
   <v>       0.50000046       0.50000048       0.70482896 </v>
   <v>       0.24999999       0.24999947       0.70482499 </v>
   <v>       0.25000001       0.74999950       0.70482499 </v>
   <v>       0.74999999       0.24999947       0.70482499 </v>
   <v>       0.74999998       0.74999950       0.70482499 </v>
   <v>       0.00000000       0.00000000       0.80731797 </v>
   <v>       0.00000000       0.50000000       0.80731797 </v>
   <v>       0.50000000       0.00000000       0.80731797 </v>
   <v>       0.49999999       0.50000000       0.80731797 </v>
   <v>       0.24999999       0.25000000       0.80731797 </v>
   <v>       0.25000001       0.74999997       0.80731797 </v>
   <v>       0.74999999       0.25000000       0.80731797 </v>
   <v>       0.74999998       0.74999997       0.80731797 </v>
  </varray>
 </structure>
</modeling>
