 vasp.6.2.1 16May21 (build Nov 15 2021 14:57:28) complex                         
 executed on             LinuxPGI date 2023.07.24  21:39:40
 running on    4 total cores
 distrk:  each k-point on    4 cores,    1 groups
 distr:  one band on NCORE=   1 cores,    4 groups


--------------------------------------------------------------------------------------------------------


 INCAR:
   SYSTEM = PSC
   ISTART = 1
   ICHARG = 1
   PREC = Normal
   ENCUT = 500
   GGA_COMPAT = F
   NELM = 600
   ISYM = 0
   LREAL = Auto
   ISMEAR = 0
   SIGMA = 0.05
   AMIN = 0.01
   BMIX = 0.01
   LVTOT = T
   LWAVE = F
   LDIPOL = T
   IDIPOL = 3
   LVDW = T
   IVDW = 12

 POTCAR:    PAW_PBE H 15Jun2001                   
 POTCAR:    PAW_PBE C 08Apr2002                   
 POTCAR:    PAW_PBE N 08Apr2002                   
 POTCAR:    PAW_PBE I 08Apr2002                   
 POTCAR:    PAW_PBE Pb 08Apr2002                  
 WARNING: For LVTOT=.TRUE., VASP.5.x writes the TOTAL local potential to the
     file LOCPOT. If you want only the Hartree contributions, use LVHAR=.TRUE.
     instead. 

 POTCAR:    PAW_PBE H 15Jun2001                   
   SHA256 =  030f79b5d3ab3cf0e668861823c8fb652ff669f3e15e46930bd03bfd63a607b6 H/POTCAR              
   COPYR  = (c) Copyright 15Jun2001 Georg Kresse                                                    
   COPYR  = This file is part of the software VASP. Any use, copying, and all other rights are regul
   COPYR  = If you do not have a valid VASP license, you may not use, copy or distribute this file. 
   VRHFIN =H: ultrasoft test                                                                        
   LEXCH  = PE                                                                                      
   EATOM  =    12.4884 eV,    0.9179 Ry                                                             
                                                                                                    
   TITEL  = PAW_PBE H 15Jun2001                                                                     
   LULTRA =        F    use ultrasoft PP ?                                                          
   IUNSCR =        0    unscreen: 0-lin 1-nonlin 2-no                                               
   RPACOR =    0.000    partial core radius                                                         
   POMASS =    1.000; ZVAL   =    1.000    mass and valenz                                          
   RCORE  =    1.100    outmost cutoff radius                                                       
   RWIGS  =    0.700; RWIGS  =    0.370    wigner-seitz radius (au A)                               
   ENMAX  =  250.000; ENMIN  =  200.000 eV                                                          
   RCLOC  =    0.701    cutoff for local pot                                                        
   LCOR   =        T    correct aug charges                                                         
   LPAW   =        T    paw PP                                                                      
   EAUG   =  400.000                                                                                
   RMAX   =    1.123    core radius for proj-oper                                                   
   RAUG   =    1.200    factor for augmentation sphere                                              
   RDEP   =    1.112    radius for radial grids                                                     
   RDEPT  =    0.926    core radius for aug-charge                                                  
                                                                                                    
   Atomic configuration                                                                             
    2 entries                                                                                       
     n  l   j            E        occ.                                                              
     1  0  0.50        -6.4927   1.0000                                                             
     2  1  0.50        -3.4015   0.0000                                                             
   Description                                                                                      
     l       E           TYP  RCUT    TYP  RCUT                                                     
     0     -6.4927494     23  1.100                                                                 
     0      6.8029130     23  1.100                                                                 
     1     -4.0817478     23  1.100                                                                 
  local pseudopotential read in
  atomic valenz-charges read in
  non local Contribution for L=            0  read in
    real space projection operators read in
  non local Contribution for L=            0  read in
    real space projection operators read in
  non local Contribution for L=            1  read in
    real space projection operators read in
    PAW grid and wavefunctions read in
 
   number of l-projection  operators is LMAX  =            3
   number of lm-projection operators is LMMAX =            5
 
 POTCAR:    PAW_PBE C 08Apr2002                   
   SHA256 =  253f7b50bb8d59471dbedb8285d89021f4a42ed1a2c5d38a03a736e69125dd95 C/POTCAR              
   COPYR  = (c) Copyright 08Apr2002 Georg Kresse                                                    
   COPYR  = This file is part of the software VASP. Any use, copying, and all other rights are regul
   COPYR  = If you do not have a valid VASP license, you may not use, copy or distribute this file. 
   VRHFIN =C: s2p2                                                                                  
   LEXCH  = PE                                                                                      
   EATOM  =   147.1560 eV,   10.8157 Ry                                                             
                                                                                                    
   TITEL  = PAW_PBE C 08Apr2002                                                                     
   LULTRA =        F    use ultrasoft PP ?                                                          
   IUNSCR =        1    unscreen: 0-lin 1-nonlin 2-no                                               
   RPACOR =    1.200    partial core radius                                                         
   POMASS =   12.011; ZVAL   =    4.000    mass and valenz                                          
   RCORE  =    1.500    outmost cutoff radius                                                       
   RWIGS  =    1.630; RWIGS  =    0.863    wigner-seitz radius (au A)                               
   ENMAX  =  400.000; ENMIN  =  300.000 eV                                                          
   ICORE  =        2    local potential                                                             
   LCOR   =        T    correct aug charges                                                         
   LPAW   =        T    paw PP                                                                      
   EAUG   =  644.873                                                                                
   DEXC   =    0.000                                                                                
   RMAX   =    1.529    core radius for proj-oper                                                   
   RAUG   =    1.300    factor for augmentation sphere                                              
   RDEP   =    1.501    radius for radial grids                                                     
   RDEPT  =    1.300    core radius for aug-charge                                                  
                                                                                                    
   Atomic configuration                                                                             
    4 entries                                                                                       
     n  l   j            E        occ.                                                              
     1  0  0.50      -273.3789   2.0000                                                             
     2  0  0.50       -13.7508   2.0000                                                             
     2  1  0.50        -5.2854   2.0000                                                             
     3  2  1.50        -5.4423   0.0000                                                             
   Description                                                                                      
     l       E           TYP  RCUT    TYP  RCUT                                                     
     0    -13.7508458     23  1.200                                                                 
     0     -8.2022199     23  1.200                                                                 
     1     -5.2854383     23  1.500                                                                 
     1     34.0145650     23  1.500                                                                 
     2     -5.4423304      7  1.500                                                                 
  local pseudopotential read in
  partial core-charges read in
  partial kinetic energy density read in
  atomic valenz-charges read in
  non local Contribution for L=            0  read in
    real space projection operators read in
  non local Contribution for L=            0  read in
    real space projection operators read in
  non local Contribution for L=            1  read in
    real space projection operators read in
  non local Contribution for L=            1  read in
    real space projection operators read in
    PAW grid and wavefunctions read in
 
   number of l-projection  operators is LMAX  =            4
   number of lm-projection operators is LMMAX =            8
 
 POTCAR:    PAW_PBE N 08Apr2002                   
   SHA256 =  e053789ff3a61a86a1b75d8a110fcc91f86041011e7b0817c7c99e4e8a6349d7 N/POTCAR              
   COPYR  = (c) Copyright 08Apr2002 Georg Kresse                                                    
   COPYR  = This file is part of the software VASP. Any use, copying, and all other rights are regul
   COPYR  = If you do not have a valid VASP license, you may not use, copy or distribute this file. 
   VRHFIN =N: s2p3                                                                                  
   LEXCH  = PE                                                                                      
   EATOM  =   264.5486 eV,   19.4438 Ry                                                             
                                                                                                    
   TITEL  = PAW_PBE N 08Apr2002                                                                     
   LULTRA =        F    use ultrasoft PP ?                                                          
   IUNSCR =        1    unscreen: 0-lin 1-nonlin 2-no                                               
   RPACOR =    1.200    partial core radius                                                         
   POMASS =   14.001; ZVAL   =    5.000    mass and valenz                                          
   RCORE  =    1.500    outmost cutoff radius                                                       
   RWIGS  =    1.400; RWIGS  =    0.741    wigner-seitz radius (au A)                               
   ENMAX  =  400.000; ENMIN  =  300.000 eV                                                          
   ICORE  =        2    local potential                                                             
   LCOR   =        T    correct aug charges                                                         
   LPAW   =        T    paw PP                                                                      
   EAUG   =  627.112                                                                                
   DEXC   =    0.000                                                                                
   RMAX   =    1.529    core radius for proj-oper                                                   
   RAUG   =    1.300    factor for augmentation sphere                                              
   RDEP   =    1.514    radius for radial grids                                                     
   RDEPT  =    1.338    core radius for aug-charge                                                  
                                                                                                    
   Atomic configuration                                                                             
    4 entries                                                                                       
     n  l   j            E        occ.                                                              
     1  0  0.50      -384.7179   2.0000                                                             
     2  0  0.50       -18.5828   2.0000                                                             
     2  1  0.50        -7.0898   3.0000                                                             
     3  2  1.50        -6.8029   0.0000                                                             
   Description                                                                                      
     l       E           TYP  RCUT    TYP  RCUT                                                     
     0    -18.5828119     23  1.200                                                                 
     0    -13.5018863     23  1.200                                                                 
     1     -7.0897853     23  1.500                                                                 
     1      9.5240782     23  1.500                                                                 
     2     -6.8029130      7  1.500                                                                 
  local pseudopotential read in
  partial core-charges read in
  partial kinetic energy density read in
  atomic valenz-charges read in
  non local Contribution for L=            0  read in
    real space projection operators read in
  non local Contribution for L=            0  read in
    real space projection operators read in
  non local Contribution for L=            1  read in
    real space projection operators read in
  non local Contribution for L=            1  read in
    real space projection operators read in
    PAW grid and wavefunctions read in
 
   number of l-projection  operators is LMAX  =            4
   number of lm-projection operators is LMMAX =            8
 
 POTCAR:    PAW_PBE I 08Apr2002                   
   SHA256 =  e40f3f59b681c1fc3e3091736183c4589116986673d2b852a5012aec72758799 I/POTCAR              
   COPYR  = (c) Copyright 08Apr2002 Georg Kresse                                                    
   COPYR  = This file is part of the software VASP. Any use, copying, and all other rights are regul
   COPYR  = If you do not have a valid VASP license, you may not use, copy or distribute this file. 
   VRHFIN =I : s2p5                                                                                 
   LEXCH  = PE                                                                                      
   EATOM  =   315.8678 eV,   23.2156 Ry                                                             
                                                                                                    
   TITEL  = PAW_PBE I 08Apr2002                                                                     
   LULTRA =        F    use ultrasoft PP ?                                                          
   IUNSCR =        1    unscreen: 0-lin 1-nonlin 2-no                                               
   RPACOR =    2.200    partial core radius                                                         
   POMASS =  126.904; ZVAL   =    7.000    mass and valenz                                          
   RCORE  =    2.300    outmost cutoff radius                                                       
   RWIGS  =    2.810; RWIGS  =    1.487    wigner-seitz radius (au A)                               
   ENMAX  =  175.647; ENMIN  =  131.735 eV                                                          
   ICORE  =        3    local potential                                                             
   LCOR   =        T    correct aug charges                                                         
   LPAW   =        T    paw PP                                                                      
   EAUG   =  370.139                                                                                
   DEXC   =    0.000                                                                                
   RMAX   =    2.359    core radius for proj-oper                                                   
   RAUG   =    1.300    factor for augmentation sphere                                              
   RDEP   =    2.392    radius for radial grids                                                     
   RDEPT  =    2.170    core radius for aug-charge                                                  
                                                                                                    
   Atomic configuration                                                                             
   13 entries                                                                                       
     n  l   j            E        occ.                                                              
     1  0  0.50    -32976.3739   2.0000                                                             
     2  0  0.50     -5094.5933   2.0000                                                             
     2  1  1.50     -4572.0131   6.0000                                                             
     3  0  0.50     -1028.2813   2.0000                                                             
     3  1  1.50      -859.0250   6.0000                                                             
     3  2  2.50      -605.7620  10.0000                                                             
     4  0  0.50      -180.5540   2.0000                                                             
     4  1  1.50      -127.5306   6.0000                                                             
     4  2  2.50       -50.2720  10.0000                                                             
     5  0  0.50       -17.4058   2.0000                                                             
     5  1  0.50        -7.0851   5.0000                                                             
     5  2  1.50        -7.0750   0.0000                                                             
     4  3  2.50        -7.0750   0.0000                                                             
   Description                                                                                      
     l       E           TYP  RCUT    TYP  RCUT                                                     
     0    -17.4058016     23  2.300                                                                 
     0    -18.7663842     23  2.300                                                                 
     1     -7.0850686     23  2.300                                                                 
     1     -4.2150896     23  2.300                                                                 
     2     -7.0750295     23  2.300                                                                 
     3     -1.3605826     23  2.300                                                                 
  local pseudopotential read in
  partial core-charges read in
  partial kinetic energy density read in
  atomic valenz-charges read in
  non local Contribution for L=            0  read in
    real space projection operators read in
  non local Contribution for L=            0  read in
    real space projection operators read in
  non local Contribution for L=            1  read in
    real space projection operators read in
  non local Contribution for L=            1  read in
    real space projection operators read in
  non local Contribution for L=            2  read in
    real space projection operators read in
    PAW grid and wavefunctions read in
 
   number of l-projection  operators is LMAX  =            5
   number of lm-projection operators is LMMAX =           13
 
 POTCAR:    PAW_PBE Pb 08Apr2002                  
   SHA256 =  797118a27cf1bcd06b9881c67a26cdde129e3cd1a551dd4a281f9681ce847303 Pb/POTCAR             
   COPYR  = (c) Copyright 08Apr2002 Georg Kresse                                                    
   COPYR  = This file is part of the software VASP. Any use, copying, and all other rights are regul
   COPYR  = If you do not have a valid VASP license, you may not use, copy or distribute this file. 
   VRHFIN =Pb:                                                                                      
   LEXCH  = PE                                                                                      
   EATOM  =    96.9868 eV,    7.1283 Ry                                                             
                                                                                                    
   TITEL  = PAW_PBE Pb 08Apr2002                                                                    
   LULTRA =        F    use ultrasoft PP ?                                                          
   IUNSCR =        1    unscreen: 0-lin 1-nonlin 2-no                                               
   RPACOR =    2.200    partial core radius                                                         
   POMASS =  207.200; ZVAL   =    4.000    mass and valenz                                          
   RCORE  =    3.100    outmost cutoff radius                                                       
   RWIGS  =    3.260; RWIGS  =    1.725    wigner-seitz radius (au A)                               
   ENMAX  =   97.973; ENMIN  =   73.480 eV                                                          
   ICORE  =        3    local potential                                                             
   LCOR   =        T    correct aug charges                                                         
   LPAW   =        T    paw PP                                                                      
   EAUG   =  234.873                                                                                
   DEXC   =    0.000                                                                                
   RMAX   =    3.158    core radius for proj-oper                                                   
   RAUG   =    1.300    factor for augmentation sphere                                              
   RDEP   =    3.202    radius for radial grids                                                     
   RDEPT  =    2.659    core radius for aug-charge                                                  
                                                                                                    
   Atomic configuration                                                                             
   17 entries                                                                                       
     n  l   j            E        occ.                                                              
     1  0  0.50    -88091.8466   2.0000                                                             
     2  0  0.50    -15753.4197   2.0000                                                             
     2  1  1.50    -13508.1797   6.0000                                                             
     3  0  0.50     -3781.7194   2.0000                                                             
     3  1  1.50     -3138.2529   6.0000                                                             
     3  2  2.50     -2483.2977  10.0000                                                             
     4  0  0.50      -856.2895   2.0000                                                             
     4  1  1.50      -645.4943   6.0000                                                             
     4  2  2.50      -401.8768  10.0000                                                             
     4  3  3.50      -132.9059  14.0000                                                             
     5  0  0.50      -144.0950   2.0000                                                             
     5  1  1.50       -85.7879   6.0000                                                             
     5  2  2.50       -21.1769  10.0000                                                             
     6  0  0.50       -12.0372   2.0000                                                             
     6  1  1.50        -3.4971   2.0000                                                             
     6  2  2.50        -1.3606   0.0000                                                             
     5  3  2.50        -2.7212   0.0000                                                             
   Description                                                                                      
     l       E           TYP  RCUT    TYP  RCUT                                                     
     0    -12.0371566     23  3.100                                                                 
     0    -13.3977392     23  3.100                                                                 
     1     -3.4971341     23  3.100                                                                 
     1     -5.4423304     23  3.100                                                                 
     2     -1.3605826     23  3.100                                                                 
     3     -1.3605826     23  3.100                                                                 
  local pseudopotential read in
  partial core-charges read in
  partial kinetic energy density read in
  atomic valenz-charges read in
  non local Contribution for L=            0  read in
    real space projection operators read in
  non local Contribution for L=            0  read in
    real space projection operators read in
  non local Contribution for L=            1  read in
    real space projection operators read in
  non local Contribution for L=            1  read in
    real space projection operators read in
  non local Contribution for L=            2  read in
    real space projection operators read in
    PAW grid and wavefunctions read in
 
   number of l-projection  operators is LMAX  =            5
   number of lm-projection operators is LMMAX =           13
 
 Optimization of the real space projectors (new method)

 maximal supplied QI-value         = 34.20
 optimisation between [QCUT,QGAM] = [ 11.29, 22.57] = [ 35.68,142.71] Ry 
 Optimized for a Real-space Cutoff    1.16 Angstroem

   l    n(q)    QCUT    max X(q) W(low)/X(q) W(high)/X(q)  e(spline) 
   0      8    11.287    19.460    0.40E-03    0.73E-03    0.16E-06
   0      8    11.287    12.209    0.38E-03    0.70E-03    0.15E-06
   1      7    11.287     4.655    0.22E-03    0.25E-04    0.22E-06
 Optimization of the real space projectors (new method)

 maximal supplied QI-value         = 25.13
 optimisation between [QCUT,QGAM] = [ 11.31, 22.87] = [ 35.82,146.48] Ry 
 Optimized for a Real-space Cutoff    1.00 Angstroem

   l    n(q)    QCUT    max X(q) W(low)/X(q) W(high)/X(q)  e(spline) 
   0      7    11.310   115.676    0.43E-03    0.13E-02    0.19E-06
   0      7    11.310    87.132    0.43E-03    0.13E-02    0.18E-06
   1      6    11.310     4.429    0.42E-03    0.74E-03    0.11E-06
   1      6    11.310     2.733    0.34E-03    0.55E-03    0.92E-07
 Optimization of the real space projectors (new method)

 maximal supplied QI-value         = 25.13
 optimisation between [QCUT,QGAM] = [ 11.31, 22.87] = [ 35.82,146.48] Ry 
 Optimized for a Real-space Cutoff    1.27 Angstroem

   l    n(q)    QCUT    max X(q) W(low)/X(q) W(high)/X(q)  e(spline) 
   0      9    11.310    79.467    0.75E-04    0.16E-03    0.36E-06
   0      9    11.310    66.151    0.74E-04    0.16E-03    0.36E-06
   1      8    11.310    17.416    0.35E-03    0.12E-03    0.95E-06
   1      8    11.310    12.382    0.37E-03    0.13E-03    0.98E-06
 Optimization of the real space projectors (new method)

 maximal supplied QI-value         = 16.25
 optimisation between [QCUT,QGAM] = [ 11.38, 22.75] = [ 36.24,144.96] Ry 
 Optimized for a Real-space Cutoff    1.31 Angstroem

   l    n(q)    QCUT    max X(q) W(low)/X(q) W(high)/X(q)  e(spline) 
   0      9    11.376   194.483    0.24E-03    0.23E-03    0.67E-07
   0      9    11.376   190.334    0.23E-03    0.22E-03    0.65E-07
   1      8    11.376   116.687    0.25E-03    0.63E-04    0.16E-06
   1      8    11.376    88.696    0.25E-03    0.61E-04    0.16E-06
   2      8    11.376     4.877    0.17E-03    0.14E-03    0.29E-07
 Optimization of the real space projectors (new method)

 maximal supplied QI-value         = 12.09
 optimisation between [QCUT,QGAM] = [ 11.37, 22.86] = [ 36.19,146.31] Ry 
 Optimized for a Real-space Cutoff    1.66 Angstroem

   l    n(q)    QCUT    max X(q) W(low)/X(q) W(high)/X(q)  e(spline) 
   0     11    11.369   135.111    0.12E-03    0.69E-04    0.19E-05
   0     11    11.369   146.850    0.11E-03    0.65E-04    0.18E-05
   1     11    11.369   148.016    0.17E-03    0.32E-03    0.89E-06
   1     11    11.369   122.989    0.17E-03    0.32E-03    0.91E-06
   2     10    11.369     8.916    0.12E-03    0.45E-04    0.33E-06
  PAW_PBE H 15Jun2001                   :
 energy of atom  1       EATOM=  -12.4884
 kinetic energy error for atom=    0.0020 (will be added to EATOM!!)
  PAW_PBE C 08Apr2002                   :
 energy of atom  2       EATOM= -147.1560
 kinetic energy error for atom=    0.0076 (will be added to EATOM!!)
  PAW_PBE N 08Apr2002                   :
 energy of atom  3       EATOM= -264.5486
 kinetic energy error for atom=    0.0138 (will be added to EATOM!!)
  PAW_PBE I 08Apr2002                   :
 energy of atom  4       EATOM= -315.8678
 kinetic energy error for atom=    0.0009 (will be added to EATOM!!)
  PAW_PBE Pb 08Apr2002                  :
 energy of atom  5       EATOM=  -96.9868
 kinetic energy error for atom=    0.0000 (will be added to EATOM!!)
 
 
 POSCAR:  H  C  N  I Pb
  positions in cartesian coordinates
  No initial velocities read in
 exchange correlation table for  LEXCH =        8
   RHO(1)=    0.500       N(1)  =     2000
   RHO(2)=  100.500       N(2)  =     4000
 


--------------------------------------------------------------------------------------------------------


 ion  position               nearest neighbor table
   1  0.447  0.305  0.581- 187 1.06
   2  0.443  0.814  0.581- 188 1.06
   3  0.965  0.312  0.578- 189 1.06
   4  0.969  0.812  0.582- 190 1.05
   5  0.315  0.029  0.582- 194 1.01
   6  0.302  0.551  0.581- 195 1.01
   7  0.779  0.061  0.583- 196 1.01
   8  0.073  0.142  0.562- 183 1.05
   9  0.065  0.657  0.556- 184 1.01
  10  0.591  0.186  0.556- 185 1.04
  11  0.565  0.667  0.559- 186 1.03
  12  0.339  0.067  0.557- 194 1.07
  13  0.313  0.593  0.556- 195 1.07
  14  0.826  0.084  0.559- 196 1.06
  15  0.038  0.188  0.585- 183 1.08
  16  0.048  0.693  0.581- 184 1.05
  17  0.569  0.235  0.580- 185 1.06
  18  0.520  0.696  0.582- 186 1.03
  19  0.212  0.441  0.582- 191 1.01
  20  0.196  0.950  0.582- 192 1.01
  21  0.692  0.950  0.581- 193 1.01
  22  0.395  0.301  0.558- 187 1.01
  23  0.444  0.859  0.556- 188 1.01
  24  0.958  0.334  0.551- 189 1.02
  25  0.939  0.842  0.557- 190 1.01
  26  0.170  0.416  0.558- 191 1.06
  27  0.149  0.943  0.558- 192 1.06
  28  0.688  0.904  0.556- 193 1.08
  29  0.483  0.224  0.539- 146 1.09
  30  0.520  0.771  0.539- 147 1.10
  31  0.022  0.233  0.538- 144 1.09
  32  0.998  0.745  0.538- 145 1.07
  33  0.230  0.510  0.539- 148 1.10
  34  0.236  0.017  0.540- 149 1.10
  35  0.772  0.985  0.540- 150 1.10
  36  0.456  0.307  0.676- 205 1.06
  37  0.444  0.804  0.675- 206 1.05
  38  0.946  0.297  0.676- 207 1.06
  39  0.945  0.805  0.676- 208 1.02
  40  0.296  0.049  0.676- 209 1.06
  41  0.299  0.558  0.675- 210 1.04
  42  0.805  0.048  0.674- 211 1.06
  43  0.803  0.570  0.675- 212 1.03
  44  0.082  0.172  0.650- 197 0.99
  45  0.083  0.679  0.653- 198 1.01
  46  0.571  0.163  0.650- 199 1.00
  47  0.571  0.669  0.650- 200 1.06
  48  0.180  0.417  0.649- 201 1.01
  49  0.169  0.919  0.648- 202 1.03
  50  0.682  0.418  0.655- 203 0.99
  51  0.662  0.928  0.649- 204 1.03
  52  0.052  0.199  0.675- 197 1.02
  53  0.043  0.702  0.677- 198 1.00
  54  0.556  0.203  0.675- 199 1.04
  55  0.545  0.696  0.676- 200 1.05
  56  0.205  0.446  0.674- 201 1.05
  57  0.193  0.945  0.674- 202 1.05
  58  0.700  0.462  0.679- 203 1.03
  59  0.692  0.955  0.675- 204 1.05
  60  0.416  0.324  0.651- 205 1.01
  61  0.418  0.832  0.650- 206 1.01
  62  0.918  0.324  0.650- 207 1.06
  63  0.929  0.840  0.651- 208 1.01
  64  0.326  0.079  0.651- 209 1.01
  65  0.325  0.588  0.649- 210 1.03
  66  0.835  0.070  0.649- 211 1.01
  67  0.834  0.581  0.648- 212 1.06
  68  0.001  0.248  0.632- 151 1.08
  69  0.017  0.765  0.634- 152 1.08
  70  0.482  0.234  0.633- 153 1.10
  71  0.492  0.752  0.632- 154 1.08
  72  0.250  0.001  0.631- 156 1.08
  73  0.255  0.505  0.631- 155 1.08
  74  0.747  0.995  0.631- 158 1.08
  75  0.762  0.486  0.634- 157 1.10
  76  0.449  0.301  0.769- 221 1.02
  77  0.449  0.801  0.769- 222 1.02
  78  0.949  0.301  0.769- 223 1.02
  79  0.949  0.801  0.769- 224 1.02
  80  0.301  0.051  0.769- 225 1.02
  81  0.301  0.551  0.769- 226 1.02
  82  0.801  0.051  0.769- 227 1.02
  83  0.801  0.551  0.769- 228 1.02
  84  0.079  0.171  0.743- 213 1.02
  85  0.079  0.671  0.743- 214 1.02
  86  0.579  0.171  0.743- 215 1.02
  87  0.579  0.671  0.743- 216 1.02
  88  0.171  0.421  0.743- 217 1.02
  89  0.171  0.921  0.743- 218 1.02
  90  0.671  0.421  0.743- 219 1.02
  91  0.671  0.921  0.743- 220 1.02
  92  0.051  0.199  0.769- 213 1.02
  93  0.051  0.699  0.769- 214 1.02
  94  0.551  0.199  0.769- 215 1.02
  95  0.551  0.699  0.769- 216 1.02
  96  0.199  0.449  0.769- 217 1.02
  97  0.199  0.949  0.769- 218 1.02
  98  0.699  0.449  0.769- 219 1.02
  99  0.699  0.949  0.769- 220 1.02
 100  0.421  0.329  0.743- 221 1.02
 101  0.421  0.829  0.743- 222 1.02
 102  0.921  0.329  0.743- 223 1.02
 103  0.921  0.829  0.743- 224 1.02
 104  0.329  0.079  0.743- 225 1.02
 105  0.329  0.579  0.743- 226 1.02
 106  0.829  0.079  0.743- 227 1.02
 107  0.829  0.579  0.743- 228 1.02
 108  0.000  0.250  0.726- 161 1.09
 109  0.000  0.750  0.726- 162 1.09
 110  0.500  0.250  0.726- 159 1.09
 111  0.500  0.750  0.726- 160 1.09
 112  0.250  0.000  0.726- 163 1.09
 113  0.250  0.500  0.726- 164 1.09
 114  0.750  0.000  0.726- 165 1.09
 115  0.750  0.500  0.726- 166 1.09
 116  0.783  0.565  0.527- 173 1.13
 117  0.732  0.479  0.529- 173 1.11
 118  0.872  0.506  0.549- 174 1.11
 119  0.850  0.480  0.576- 174 1.09
 120  0.740  0.640  0.568- 175 1.09
 121  0.800  0.592  0.585- 175 1.09
 122  0.649  0.537  0.572- 176 1.13
 123  0.674  0.449  0.562- 176 1.10
 124  0.622  0.546  0.541- 177 1.10
 125  0.670  0.632  0.544- 177 1.13
 126  0.623  0.659  0.511- 178 1.08
 127  0.700  0.607  0.503- 178 1.13
 128  0.827  0.393  0.536- 179 1.09
 129  0.759  0.390  0.556- 179 1.09
 130  0.848  0.364  0.562- 179 1.07
 131  0.859  0.692  0.560- 180 1.10
 132  0.849  0.627  0.541- 180 1.08
 133  0.904  0.604  0.563- 180 1.09
 134  0.766  0.504  0.600- 181 1.14
 135  0.740  0.411  0.593- 181 1.10
 136  0.674  0.471  0.606- 181 1.11
 137  0.544  0.544  0.511- 182 1.13
 138  0.579  0.563  0.484- 182 1.12
 139  0.724  0.500  0.478- 168 1.12
 140  0.554  0.422  0.522- 169 1.09
 141  0.784  0.375  0.480- 170 1.14
 142  0.617  0.300  0.524- 171 1.09
 143  0.734  0.275  0.504- 172 1.13
 144  0.015  0.238  0.556-  31 1.09 183 1.31 189 1.32
 145  0.003  0.749  0.555-  32 1.07 184 1.31 190 1.32
 146  0.492  0.244  0.555-  29 1.09 187 1.30 185 1.32
 147  0.505  0.764  0.556-  30 1.10 188 1.31 186 1.32
 148  0.241  0.505  0.556-  33 1.10 195 1.31 191 1.33
 149  0.244  0.006  0.557-  34 1.10 194 1.31 192 1.33
 150  0.757  0.994  0.557-  35 1.10 193 1.31 196 1.33
 151  0.000  0.248  0.649-  68 1.08 207 1.29 197 1.35
 152  0.006  0.761  0.651-  69 1.08 208 1.31 198 1.36
 153  0.493  0.244  0.650-  70 1.10 205 1.29 199 1.34
 154  0.494  0.750  0.649-  71 1.08 200 1.30 206 1.31
 155  0.252  0.501  0.648-  73 1.08 201 1.30 210 1.34
 156  0.249  1.000  0.649-  72 1.08 209 1.30 202 1.34
 157  0.758  0.499  0.651-  75 1.10 212 1.30 203 1.33
 158  0.750  1.000  0.648-  74 1.08 211 1.30 204 1.34
 159  0.500  0.250  0.743- 110 1.09 221 1.31 215 1.31
 160  0.500  0.750  0.743- 111 1.09 222 1.31 216 1.31
 161  1.000  0.250  0.743- 108 1.09 223 1.31 213 1.31
 162  1.000  0.750  0.743- 109 1.09 224 1.31 214 1.31
 163  0.250  0.000  0.743- 112 1.09 225 1.31 218 1.31
 164  0.250  0.500  0.743- 113 1.09 226 1.31 217 1.31
 165  0.750  0.000  0.743- 114 1.09 227 1.31 220 1.31
 166  0.750  0.500  0.743- 115 1.09 228 1.31 219 1.31
 167  0.632  0.469  0.500- 169 1.42 168 1.42 182 1.52
 168  0.697  0.454  0.488- 139 1.12 170 1.38 167 1.42
 169  0.603  0.410  0.513- 140 1.09 171 1.39 167 1.42
 170  0.732  0.386  0.489- 141 1.14 168 1.38 172 1.38
 171  0.639  0.342  0.514- 142 1.09 169 1.39 172 1.40
 172  0.704  0.329  0.502- 143 1.13 170 1.38 171 1.40
 173  0.736  0.536  0.536- 117 1.11 116 1.13 177 1.47 229 1.51
 174  0.830  0.479  0.560- 119 1.09 118 1.11 179 1.45 229 1.58
 175  0.786  0.601  0.569- 120 1.09 121 1.09 180 1.49 229 1.51
 176  0.695  0.495  0.571- 123 1.10 122 1.13 229 1.53 181 1.54
 177  0.667  0.579  0.534- 124 1.10 125 1.13 173 1.47 178 1.52
 178  0.646  0.603  0.512- 126 1.08 127 1.13 177 1.52 182 1.54
 179  0.817  0.404  0.553- 130 1.07 128 1.09 129 1.09 174 1.45
 180  0.853  0.632  0.558- 132 1.08 133 1.09 131 1.10 175 1.49
 181  0.719  0.469  0.594- 135 1.10 136 1.11 134 1.14 176 1.54
 182  0.596  0.545  0.501- 138 1.12 137 1.13 167 1.52 178 1.54
 183  0.044  0.188  0.568-   8 1.05  15 1.08 144 1.31
 184  0.041  0.696  0.565-   9 1.01  16 1.05 145 1.31
 185  0.553  0.220  0.565-  10 1.04  17 1.06 146 1.32
 186  0.533  0.706  0.566-  18 1.03  11 1.03 147 1.32
 187  0.443  0.285  0.565-  22 1.01   1 1.06 146 1.30
 188  0.461  0.815  0.565-  23 1.01   2 1.06 147 1.31
 189  0.977  0.296  0.562-  24 1.02   3 1.06 144 1.32
 190  0.969  0.803  0.565-  25 1.01   4 1.05 145 1.32
 191  0.207  0.451  0.567-  19 1.01  26 1.06 148 1.33
 192  0.194  0.963  0.567-  20 1.01  27 1.06 149 1.33
 193  0.710  0.948  0.566-  21 1.01  28 1.08 150 1.31
 194  0.302  0.035  0.566-   5 1.01  12 1.07 149 1.31
 195  0.287  0.551  0.565-   6 1.01  13 1.07 148 1.31
 196  0.790  0.049  0.568-   7 1.01  14 1.06 150 1.33
 197  0.049  0.202  0.659-  44 0.99  52 1.02 151 1.35
 198  0.048  0.709  0.661-  53 1.00  45 1.01 152 1.36
 199  0.543  0.200  0.659-  46 1.00  54 1.04 153 1.34
 200  0.537  0.705  0.659-  55 1.05  47 1.06 154 1.30
 201  0.211  0.452  0.658-  48 1.01  56 1.05 155 1.30
 202  0.201  0.952  0.658-  49 1.03  57 1.05 156 1.34
 203  0.710  0.458  0.662-  50 0.99  58 1.03 157 1.33
 204  0.698  0.959  0.658-  51 1.03  59 1.05 158 1.34
 205  0.453  0.294  0.659-  60 1.01  36 1.06 153 1.29
 206  0.450  0.798  0.658-  61 1.01  37 1.05 154 1.31
 207  0.954  0.290  0.659-  62 1.06  38 1.06 151 1.29
 208  0.957  0.804  0.660-  63 1.01  39 1.02 152 1.31
 209  0.292  0.045  0.659-  64 1.01  40 1.06 156 1.30
 210  0.295  0.552  0.658-  65 1.03  41 1.04 155 1.34
 211  0.799  0.041  0.658-  66 1.01  42 1.06 158 1.30
 212  0.799  0.552  0.659-  43 1.03  67 1.06 157 1.30
 213  0.046  0.204  0.753-  92 1.02  84 1.02 161 1.31
 214  0.046  0.704  0.753-  93 1.02  85 1.02 162 1.31
 215  0.546  0.204  0.753-  94 1.02  86 1.02 159 1.31
 216  0.546  0.704  0.753-  95 1.02  87 1.02 160 1.31
 217  0.204  0.454  0.753-  96 1.02  88 1.02 164 1.31
 218  0.204  0.954  0.753-  97 1.02  89 1.02 163 1.31
 219  0.704  0.454  0.753-  98 1.02  90 1.02 166 1.31
 220  0.704  0.954  0.753-  99 1.02  91 1.02 165 1.31
 221  0.454  0.296  0.753-  76 1.02 100 1.02 159 1.31
 222  0.454  0.796  0.753-  77 1.02 101 1.02 160 1.31
 223  0.954  0.296  0.753-  78 1.02 102 1.02 161 1.31
 224  0.954  0.796  0.753-  79 1.02 103 1.02 162 1.31
 225  0.296  0.046  0.753-  80 1.02 104 1.02 163 1.31
 226  0.296  0.546  0.753-  81 1.02 105 1.02 164 1.31
 227  0.796  0.046  0.753-  82 1.02 106 1.02 165 1.31
 228  0.796  0.546  0.753-  83 1.02 107 1.02 166 1.31
 229  0.759  0.529  0.559- 175 1.51 173 1.51 176 1.53 174 1.58
 230  0.496  0.013  0.552- 304 3.13
 231  0.478  0.519  0.558- 305 3.10
 232  0.999  0.998  0.552- 302 3.20
 233  0.025  0.481  0.550- 303 3.39
 234  0.252  0.251  0.552- 306 3.15
 235  0.249  0.751  0.552- 307 3.13
 236  0.757  0.226  0.555- 308 3.16
 237  0.733  0.773  0.548- 309 3.56
 238  0.005  0.001  0.654- 310 3.16 302 3.18
 239  0.008  0.506  0.654- 303 3.16 311 3.19
 240  0.504  0.001  0.655- 312 3.12 304 3.31
 241  0.500  0.495  0.656- 313 3.05 305 3.10
 242  0.249  0.249  0.655- 314 3.12 306 3.31
 243  0.245  0.751  0.654- 315 3.18 307 3.25
 244  0.744  0.250  0.656- 316 3.07 308 3.13
 245  0.753  0.758  0.654- 309 3.09 317 3.19
 246  0.143  0.104  0.610- 302 3.19 306 3.26
 247  0.144  0.603  0.608- 303 3.14 307 3.27
 248  0.644  0.101  0.608- 304 3.19 308 3.19
 249  0.624  0.627  0.613- 309 3.32 305 3.34
 250  0.353  0.394  0.609- 305 3.16 306 3.27
 251  0.354  0.893  0.609- 307 3.24 304 3.33
 252  0.881  0.371  0.613- 303 3.31 308 3.36
 253  0.855  0.897  0.607- 309 3.15 302 3.26
 254  0.108  0.357  0.608- 303 3.26 306 3.28
 255  0.109  0.859  0.609- 307 3.24 302 3.25
 256  0.584  0.336  0.608- 305 3.32 308 3.36
 257  0.607  0.861  0.610- 309 3.16 304 3.29
 258  0.390  0.140  0.608- 304 3.16 306 3.19
 259  0.386  0.639  0.610- 307 3.21 305 3.25
 260  0.894  0.139  0.609- 302 3.17 308 3.29
 261  0.913  0.661  0.613- 303 3.33 309 3.51
 262  0.000  0.000  0.755- 310 3.13 318 3.27
 263  0.000  0.500  0.755- 311 3.13 319 3.27
 264  0.500  0.000  0.755- 312 3.13 320 3.27
 265  0.500  0.500  0.755- 313 3.13 321 3.27
 266  0.250  0.250  0.755- 314 3.13 322 3.27
 267  0.250  0.750  0.755- 315 3.13 323 3.27
 268  0.750  0.250  0.755- 316 3.13 324 3.27
 269  0.750  0.750  0.755- 317 3.13 325 3.27
 270  0.136  0.114  0.705- 310 3.20 314 3.20
 271  0.136  0.614  0.705- 311 3.20 315 3.20
 272  0.636  0.114  0.705- 312 3.20 316 3.20
 273  0.636  0.614  0.705- 313 3.20 317 3.20
 274  0.364  0.386  0.705- 313 3.20 314 3.20
 275  0.364  0.886  0.705- 312 3.20 315 3.20
 276  0.864  0.386  0.705- 311 3.20 316 3.20
 277  0.864  0.886  0.705- 310 3.20 317 3.20
 278  0.114  0.364  0.705- 314 3.21 311 3.21
 279  0.114  0.864  0.705- 315 3.21 310 3.21
 280  0.614  0.364  0.705- 316 3.21 313 3.21
 281  0.614  0.864  0.705- 317 3.21 312 3.21
 282  0.386  0.136  0.705- 314 3.21 312 3.21
 283  0.386  0.636  0.705- 315 3.21 313 3.21
 284  0.886  0.136  0.705- 316 3.21 310 3.21
 285  0.886  0.636  0.705- 317 3.21 311 3.21
 286  0.135  0.115  0.801- 318 3.22 322 3.22
 287  0.135  0.615  0.801- 319 3.22 323 3.22
 288  0.635  0.115  0.801- 320 3.22 324 3.22
 289  0.635  0.615  0.801- 321 3.22 325 3.22
 290  0.365  0.385  0.801- 321 3.22 322 3.22
 291  0.365  0.885  0.801- 320 3.22 323 3.22
 292  0.865  0.385  0.801- 319 3.22 324 3.22
 293  0.865  0.885  0.801- 318 3.22 325 3.22
 294  0.115  0.365  0.801- 319 3.23 322 3.23
 295  0.115  0.865  0.801- 318 3.23 323 3.23
 296  0.615  0.365  0.801- 321 3.23 324 3.23
 297  0.615  0.865  0.801- 320 3.23 325 3.23
 298  0.385  0.135  0.801- 320 3.23 322 3.23
 299  0.385  0.635  0.801- 321 3.23 323 3.23
 300  0.885  0.135  0.801- 318 3.23 324 3.23
 301  0.885  0.635  0.801- 319 3.23 325 3.23
 302  0.001  0.002  0.603- 260 3.17 238 3.18 246 3.19 232 3.20 255 3.25 253 3.26
 303  0.003  0.503  0.603- 247 3.14 239 3.16 254 3.26 252 3.31 261 3.33 233 3.39
 304  0.499  0.004  0.602- 230 3.13 258 3.16 248 3.19 257 3.29 240 3.31 251 3.33
 305  0.495  0.497  0.607- 241 3.10 231 3.10 250 3.16 259 3.25 256 3.32 249 3.34
 306  0.251  0.247  0.602- 234 3.15 258 3.19 246 3.26 250 3.27 254 3.28 242 3.31
 307  0.249  0.749  0.602- 235 3.13 259 3.21 251 3.24 255 3.24 243 3.25 247 3.27
 308  0.747  0.245  0.606- 244 3.13 236 3.16 248 3.19 260 3.29 252 3.36 256 3.36
 309  0.748  0.759  0.604- 245 3.09 253 3.15 257 3.16 249 3.32 261 3.51 237 3.56
 310  0.000  0.000  0.705- 262 3.13 238 3.16 270 3.20 277 3.20 279 3.21 284 3.21
 311  0.000  0.500  0.705- 263 3.13 239 3.19 271 3.20 276 3.20 278 3.21 285 3.21
 312  0.500  0.000  0.705- 240 3.12 264 3.13 272 3.20 275 3.20 281 3.21 282 3.21
 313  0.500  0.500  0.705- 241 3.05 265 3.13 273 3.20 274 3.20 280 3.21 283 3.21
 314  0.250  0.250  0.705- 242 3.12 266 3.13 270 3.20 274 3.20 282 3.21 278 3.21
 315  0.250  0.750  0.705- 267 3.13 243 3.18 271 3.20 275 3.20 283 3.21 279 3.21
 316  0.750  0.250  0.705- 244 3.07 268 3.13 272 3.20 276 3.20 284 3.21 280 3.21
 317  0.750  0.750  0.705- 269 3.13 245 3.19 273 3.20 277 3.20 285 3.21 281 3.21
 318  0.000  0.000  0.807- 286 3.22 293 3.22 300 3.23 295 3.23 262 3.27
 319  0.000  0.500  0.807- 287 3.22 292 3.22 301 3.23 294 3.23 263 3.27
 320  0.500  0.000  0.807- 288 3.22 291 3.22 298 3.23 297 3.23 264 3.27
 321  0.500  0.500  0.807- 289 3.22 290 3.22 299 3.23 296 3.23 265 3.27
 322  0.250  0.250  0.807- 290 3.22 286 3.22 294 3.23 298 3.23 266 3.27
 323  0.250  0.750  0.807- 291 3.22 287 3.22 299 3.23 295 3.23 267 3.27
 324  0.750  0.250  0.807- 292 3.22 288 3.22 296 3.23 300 3.23 268 3.27
 325  0.750  0.750  0.807- 293 3.22 289 3.22 297 3.23 301 3.23 269 3.27
 

IMPORTANT INFORMATION: All symmetrisations will be switched off!
NOSYMM: (Re-)initialisation of all symmetry stuff for point group C_1.


----------------------------------------------------------------------------------------

                                     Primitive cell                                     

  volume of cell :   20385.2105

  direct lattice vectors                    reciprocal lattice vectors
    18.060800552  0.000000000  0.000000000     0.055368531  0.000015077 -0.000000000
    -0.004918649 18.062799454  0.000000000     0.000000000  0.055362404  0.000000000
     0.000000000  0.000000000 62.487499237     0.000000000 -0.000000000  0.016003201

  length of vectors
    18.060800552 18.062800123 62.487499237     0.055368533  0.055362404  0.016003201

  position of ions in fractional coordinates (direct lattice)
     0.447157797  0.304971490  0.580846828
     0.443443902  0.814474997  0.580630232
     0.964960471  0.311604835  0.577722546
     0.969097331  0.811522338  0.581844159
     0.314659109  0.029199502  0.582044822
     0.301619772  0.551042496  0.580960682
     0.779150441  0.061482146  0.582893991
     0.072891118  0.142099130  0.561808719
     0.065434373  0.656538008  0.555748974
     0.590570631  0.186457384  0.556456330
     0.565300713  0.666568041  0.559159385
     0.339053478  0.067112084  0.556983230
     0.312693064  0.592698247  0.555671261
     0.826241017  0.084375930  0.559093149
     0.037686575  0.188256703  0.585349743
     0.048102918  0.692752850  0.581199865
     0.568811922  0.235105742  0.580339647
     0.520461202  0.696207193  0.582277412
     0.212274634  0.440646169  0.582329913
     0.196205757  0.950135239  0.582456342
     0.692132603  0.949911842  0.581051337
     0.395393640  0.300527639  0.557582959
     0.444339587  0.859376487  0.555931200
     0.958296052  0.334175668  0.551015300
     0.939475020  0.841585773  0.557334374
     0.169788517  0.416259464  0.557909074
     0.148710478  0.942885293  0.557911150
     0.688043371  0.904082189  0.556010013
     0.482913602  0.223693307  0.539269359
     0.520365427  0.771280827  0.539462147
     0.022141948  0.233232558  0.538268366
     0.997764346  0.745487882  0.537987304
     0.229639249  0.509853054  0.538860708
     0.236172635  0.016709224  0.539610614
     0.771526877  0.985289905  0.539942834
     0.455740590  0.307099580  0.675788975
     0.444055108  0.804409221  0.675160248
     0.946136017  0.297137815  0.675917785
     0.945341837  0.804794749  0.676051417
     0.296158297  0.049433450  0.675598507
     0.299089521  0.557690096  0.674968193
     0.804947738  0.047981919  0.674291910
     0.802751054  0.570499347  0.674576879
     0.082121376  0.172225658  0.649564369
     0.083489290  0.678826770  0.652564725
     0.570645490  0.162849432  0.650134368
     0.570752508  0.668653867  0.650053114
     0.180274141  0.416945016  0.648735590
     0.169212242  0.919212981  0.647821345
     0.681608681  0.418482089  0.654973471
     0.661739688  0.928055712  0.649253577
     0.052481958  0.198743409  0.675082046
     0.042794000  0.701710508  0.677218582
     0.555947739  0.203410924  0.675195411
     0.544988414  0.696464212  0.675950750
     0.205302997  0.445500205  0.674468581
     0.193417730  0.944948479  0.674044729
     0.699625635  0.461967439  0.678564737
     0.691597512  0.955026943  0.674886817
     0.416370805  0.324104717  0.650836413
     0.417708950  0.831989368  0.649717537
     0.917868041  0.323784631  0.650049329
     0.929098403  0.839766047  0.650626654
     0.326256981  0.078816186  0.650508161
     0.325363850  0.587636900  0.649296188
     0.835475738  0.069693073  0.648598905
     0.833956824  0.580713379  0.648137448
     0.000954510  0.247646067  0.632055984
     0.017044134  0.764617018  0.634062489
     0.482289787  0.234185926  0.633027797
     0.492360339  0.752131417  0.632082662
     0.250445016  0.000632582  0.631294174
     0.254927964  0.505350255  0.631168539
     0.747243332  0.994837934  0.631067200
     0.761507557  0.486277560  0.634323161
     0.448745018  0.301283966  0.768889017
     0.448745007  0.801283913  0.768889017
     0.948744965  0.301283966  0.768889017
     0.948745007  0.801283913  0.768889017
     0.301275995  0.051294496  0.768872961
     0.301276011  0.551294499  0.768872961
     0.801275943  0.051294496  0.768872961
     0.801275984  0.551294499  0.768872961
     0.078771004  0.171180501  0.743441971
     0.078771006  0.671180448  0.743441971
     0.578771004  0.171180501  0.743441971
     0.578770992  0.671180448  0.743441971
     0.171199499  0.421174482  0.743421032
     0.171199501  0.921174508  0.743421032
     0.671199512  0.421174482  0.743421032
     0.671199501  0.921174508  0.743421032
     0.051256000  0.198714991  0.768889017
     0.051256002  0.698714925  0.768889017
     0.551256027  0.198714991  0.768889017
     0.551256016  0.698714925  0.768889017
     0.198723491  0.448703970  0.768872046
     0.198723493  0.948703970  0.768872046
     0.698723518  0.448703970  0.768872046
     0.698723507  0.948703970  0.768872046
     0.421231519  0.328817467  0.743441971
     0.421231508  0.828817440  0.743441971
     0.921231466  0.328817467  0.743441971
     0.921231508  0.828817440  0.743441971
     0.328800503  0.078824997  0.743421032
     0.328800492  0.578824964  0.743421032
     0.828800477  0.078824997  0.743421032
     0.828800519  0.578824964  0.743421032
     0.000003500  0.250001478  0.725821992
     0.000003500  0.750001452  0.725821992
     0.500003506  0.250001478  0.725821992
     0.500003495  0.750001452  0.725821992
     0.250000502  0.000000000  0.725803983
     0.250000517  0.500000000  0.725803983
     0.750000502  0.000000000  0.725803983
     0.750000490  0.500000000  0.725803983
     0.783006438  0.565467884  0.527418112
     0.731573752  0.479287778  0.529357099
     0.872068931  0.505820736  0.549296389
     0.849871034  0.480328157  0.576258875
     0.740438900  0.640458996  0.567764988
     0.799781974  0.592255010  0.585366409
     0.648574184  0.537467151  0.572422231
     0.673563174  0.448575618  0.561706159
     0.622163368  0.546142183  0.541028684
     0.670003683  0.631785706  0.543954745
     0.623200395  0.658663116  0.511093619
     0.700223112  0.607207953  0.502814009
     0.827045932  0.393162423  0.535973290
     0.758546646  0.390091022  0.555766861
     0.847713417  0.363566090  0.561915429
     0.859389721  0.691676622  0.560191208
     0.848827095  0.627054979  0.540625527
     0.903878991  0.604277152  0.562589392
     0.766402065  0.504267586  0.599891348
     0.739781495  0.411471927  0.593197260
     0.674049781  0.471342357  0.605776924
     0.544213281  0.543960476  0.510831909
     0.579305469  0.563375722  0.484229512
     0.723637303  0.499563152  0.478389782
     0.554191158  0.421856443  0.522114622
     0.784203034  0.374736500  0.479913829
     0.617121562  0.299641139  0.524112702
     0.733897997  0.274704890  0.503710764
     0.015383692  0.237754259  0.555580727
     0.002759278  0.748714455  0.555022754
     0.491767575  0.243590940  0.555498924
     0.504646964  0.763881968  0.556275935
     0.241400941  0.504978771  0.556119043
     0.244165068  0.005689700  0.556825727
     0.756970588  0.993669074  0.556928531
     0.000217133  0.247746488  0.649340264
     0.005840643  0.760576885  0.650977188
     0.492587437  0.243714856  0.650110255
     0.494374589  0.750404985  0.649394596
     0.252398057  0.500950464  0.648432001
     0.248627765  0.999891960  0.648549884
     0.757747010  0.499327304  0.651464835
     0.749522172  0.999677033  0.648290188
     0.499988984  0.249994984  0.743277021
     0.499989025  0.749994958  0.743277021
     0.999988984  0.249994984  0.743277021
     0.999989025  0.749994958  0.743277021
     0.250000502  0.000001000  0.743255960
     0.250000517  0.500001003  0.743255960
     0.750000502  0.000001000  0.743255960
     0.750000491  0.500001003  0.743255960
     0.631977794  0.469127494  0.499885475
     0.697202507  0.453728041  0.487876848
     0.603486103  0.410355572  0.512555093
     0.731571293  0.385722751  0.489318603
     0.639074998  0.342461898  0.513601017
     0.703925865  0.329401964  0.501942222
     0.735618687  0.536190185  0.535778610
     0.830428445  0.479141740  0.559719678
     0.785774479  0.601046989  0.568564587
     0.694620937  0.495008294  0.571312695
     0.667101141  0.579303311  0.534086926
     0.645811241  0.603397860  0.511593902
     0.816796734  0.403522916  0.552873338
     0.852892183  0.631927626  0.557841128
     0.719141082  0.468736738  0.593641319
     0.595892650  0.545354758  0.500631566
     0.043762399  0.187618353  0.568194945
     0.040645642  0.696473979  0.564524472
     0.553212007  0.219768220  0.564608900
     0.532613910  0.705993194  0.566474813
     0.442802218  0.284807915  0.565007601
     0.461212195  0.814881698  0.564506036
     0.976594192  0.295865655  0.561768672
     0.968949643  0.802808658  0.565222426
     0.206862807  0.450808961  0.566566140
     0.194423261  0.963487693  0.566824370
     0.709626270  0.948403115  0.565750059
     0.301640222  0.034574817  0.566401862
     0.287184767  0.550965094  0.565366254
     0.789574120  0.048668718  0.567506453
     0.049380889  0.202126171  0.658784414
     0.048120871  0.709401761  0.661391564
     0.543424021  0.199590166  0.659062607
     0.537349481  0.704599440  0.659499889
     0.211197745  0.451792741  0.657779147
     0.201124632  0.952169987  0.657584711
     0.710321807  0.457781954  0.662367223
     0.698083564  0.958837545  0.658296340
     0.453154819  0.293788963  0.659336893
     0.450024680  0.798106600  0.658492363
     0.953800782  0.290278391  0.659241414
     0.957282603  0.803956058  0.660063845
     0.292387647  0.044774765  0.658800225
     0.294562136  0.551647822  0.658389926
     0.798883238  0.040954307  0.657596859
     0.798960686  0.552187784  0.659069627
     0.045862501  0.204119496  0.752725994
     0.045862500  0.704119456  0.752725994
     0.545862507  0.204119496  0.752725994
     0.545862496  0.704119456  0.752725994
     0.204119002  0.454101003  0.752704994
     0.204118991  0.954100951  0.752704994
     0.704118976  0.454101003  0.752704994
     0.704118964  0.954100951  0.752704994
     0.454140018  0.295888490  0.752726971
     0.454140007  0.795888516  0.752726971
     0.954140018  0.295888490  0.752726971
     0.954140060  0.795888516  0.752726971
     0.295882492  0.045900498  0.752704994
     0.295882481  0.545900528  0.752704994
     0.795882439  0.045900498  0.752704994
     0.795882481  0.545900528  0.752704994
     0.759001015  0.529283348  0.558940164
     0.496426908  0.013250705  0.551863004
     0.477714486  0.518892127  0.557516539
     0.998944507  0.998108927  0.552131429
     0.024641238  0.481354755  0.549825853
     0.251829443  0.250742573  0.551532982
     0.249163819  0.751380792  0.551978200
     0.756516482  0.225577103  0.555471575
     0.732619239  0.772559640  0.547854390
     0.005178606  0.000910879  0.654233699
     0.008135308  0.505871527  0.653875534
     0.504148708  0.000919055  0.654843684
     0.499508586  0.495491182  0.656108036
     0.248503293  0.249280710  0.654920726
     0.245482300  0.750689934  0.653986640
     0.744368904  0.249751112  0.655674722
     0.752727033  0.757792756  0.653892261
     0.143396069  0.104362507  0.609793963
     0.144254276  0.603495535  0.607750891
     0.644403721  0.101460355  0.608130423
     0.624235687  0.626766017  0.612882716
     0.353318584  0.394070992  0.608899803
     0.354233240  0.892825732  0.608959507
     0.881097515  0.371149160  0.613269451
     0.855068262  0.896557579  0.607453713
     0.107847361  0.357309668  0.607536432
     0.109090492  0.858601364  0.608701338
     0.584350014  0.336174747  0.608213874
     0.607227617  0.860616229  0.609714235
     0.390147084  0.140194875  0.607669942
     0.385773968  0.638956743  0.609958974
     0.894276761  0.139290913  0.608891073
     0.912831428  0.660569799  0.613473532
     0.000000000  0.000000000  0.754927972
     0.000000000  0.500000000  0.754927972
     0.500000000  0.000000000  0.754927972
     0.499999989  0.500000000  0.754927972
     0.250000496  0.250000000  0.754939022
     0.250000511  0.749999974  0.754939022
     0.750000470  0.250000000  0.754939022
     0.750000458  0.749999974  0.754939022
     0.135790500  0.114209997  0.704782994
     0.135790502  0.614209984  0.704782994
     0.635790447  0.114209997  0.704782994
     0.635790488  0.614209984  0.704782994
     0.364209516  0.385789989  0.704782994
     0.364209505  0.885789963  0.704782994
     0.864209542  0.385789989  0.704782994
     0.864209531  0.885789963  0.704782994
     0.114217990  0.364218986  0.704780979
     0.114217992  0.864218986  0.704780979
     0.614218004  0.364218986  0.704780979
     0.614217992  0.864218986  0.704780979
     0.385782012  0.135781489  0.704782017
     0.385782001  0.635781489  0.704782017
     0.885781985  0.135781489  0.704782017
     0.885782027  0.635781489  0.704782017
     0.134667000  0.115332001  0.801256025
     0.134666989  0.615331988  0.801256025
     0.634666987  0.115332001  0.801256025
     0.634666976  0.615331988  0.801256025
     0.365333002  0.384667985  0.801256025
     0.365332990  0.884667959  0.801256025
     0.865332949  0.384667985  0.801256025
     0.865332938  0.884667959  0.801256025
     0.115328503  0.365337004  0.801264999
     0.115328505  0.865336978  0.801264999
     0.615328503  0.365337004  0.801264999
     0.615328492  0.865336978  0.801264999
     0.384671513  0.134662996  0.801264999
     0.384671501  0.634662970  0.801264999
     0.884671486  0.134662996  0.801264999
     0.884671528  0.634662970  0.801264999
     0.001208155  0.001541116  0.603337838
     0.003117879  0.503427891  0.603330390
     0.498839378  0.004266740  0.601865070
     0.494870405  0.496570261  0.606511446
     0.250914757  0.246777439  0.601979839
     0.249427682  0.749357478  0.602050837
     0.746566303  0.245216106  0.605649580
     0.748443734  0.759029542  0.604481377
     0.000000500  0.000000500  0.704828963
     0.000000500  0.500000475  0.704828963
     0.500000475  0.000000500  0.704828963
     0.500000464  0.500000475  0.704828963
     0.249999994  0.249999472  0.704824995
     0.250000010  0.749999498  0.704824995
     0.749999994  0.249999472  0.704824995
     0.749999983  0.749999498  0.704824995
     0.000000000  0.000000000  0.807317968
     0.000000000  0.500000000  0.807317968
     0.500000000  0.000000000  0.807317968
     0.499999989  0.500000000  0.807317968
     0.249999994  0.250000000  0.807317968
     0.250000010  0.749999974  0.807317968
     0.749999994  0.250000000  0.807317968
     0.749999983  0.749999974  0.807317968

  ion indices of the primitive-cell ions
   primitive index   ion index
                 1           1
                 2           2
                 3           3
                 4           4
                 5           5
                 6           6
                 7           7
                 8           8
                 9           9
                10          10
                11          11
                12          12
                13          13
                14          14
                15          15
                16          16
                17          17
                18          18
                19          19
                20          20
                21          21
                22          22
                23          23
                24          24
                25          25
                26          26
                27          27
                28          28
                29          29
                30          30
                31          31
                32          32
                33          33
                34          34
                35          35
                36          36
                37          37
                38          38
                39          39
                40          40
                41          41
                42          42
                43          43
                44          44
                45          45
                46          46
                47          47
                48          48
                49          49
                50          50
                51          51
                52          52
                53          53
                54          54
                55          55
                56          56
                57          57
                58          58
                59          59
                60          60
                61          61
                62          62
                63          63
                64          64
                65          65
                66          66
                67          67
                68          68
                69          69
                70          70
                71          71
                72          72
                73          73
                74          74
                75          75
                76          76
                77          77
                78          78
                79          79
                80          80
                81          81
                82          82
                83          83
                84          84
                85          85
                86          86
                87          87
                88          88
                89          89
                90          90
                91          91
                92          92
                93          93
                94          94
                95          95
                96          96
                97          97
                98          98
                99          99
               100         100
               101         101
               102         102
               103         103
               104         104
               105         105
               106         106
               107         107
               108         108
               109         109
               110         110
               111         111
               112         112
               113         113
               114         114
               115         115
               116         116
               117         117
               118         118
               119         119
               120         120
               121         121
               122         122
               123         123
               124         124
               125         125
               126         126
               127         127
               128         128
               129         129
               130         130
               131         131
               132         132
               133         133
               134         134
               135         135
               136         136
               137         137
               138         138
               139         139
               140         140
               141         141
               142         142
               143         143
               144         144
               145         145
               146         146
               147         147
               148         148
               149         149
               150         150
               151         151
               152         152
               153         153
               154         154
               155         155
               156         156
               157         157
               158         158
               159         159
               160         160
               161         161
               162         162
               163         163
               164         164
               165         165
               166         166
               167         167
               168         168
               169         169
               170         170
               171         171
               172         172
               173         173
               174         174
               175         175
               176         176
               177         177
               178         178
               179         179
               180         180
               181         181
               182         182
               183         183
               184         184
               185         185
               186         186
               187         187
               188         188
               189         189
               190         190
               191         191
               192         192
               193         193
               194         194
               195         195
               196         196
               197         197
               198         198
               199         199
               200         200
               201         201
               202         202
               203         203
               204         204
               205         205
               206         206
               207         207
               208         208
               209         209
               210         210
               211         211
               212         212
               213         213
               214         214
               215         215
               216         216
               217         217
               218         218
               219         219
               220         220
               221         221
               222         222
               223         223
               224         224
               225         225
               226         226
               227         227
               228         228
               229         229
               230         230
               231         231
               232         232
               233         233
               234         234
               235         235
               236         236
               237         237
               238         238
               239         239
               240         240
               241         241
               242         242
               243         243
               244         244
               245         245
               246         246
               247         247
               248         248
               249         249
               250         250
               251         251
               252         252
               253         253
               254         254
               255         255
               256         256
               257         257
               258         258
               259         259
               260         260
               261         261
               262         262
               263         263
               264         264
               265         265
               266         266
               267         267
               268         268
               269         269
               270         270
               271         271
               272         272
               273         273
               274         274
               275         275
               276         276
               277         277
               278         278
               279         279
               280         280
               281         281
               282         282
               283         283
               284         284
               285         285
               286         286
               287         287
               288         288
               289         289
               290         290
               291         291
               292         292
               293         293
               294         294
               295         295
               296         296
               297         297
               298         298
               299         299
               300         300
               301         301
               302         302
               303         303
               304         304
               305         305
               306         306
               307         307
               308         308
               309         309
               310         310
               311         311
               312         312
               313         313
               314         314
               315         315
               316         316
               317         317
               318         318
               319         319
               320         320
               321         321
               322         322
               323         323
               324         324
               325         325

----------------------------------------------------------------------------------------

 
 
 KPOINTS: Automatic Mesh                          

Automatic generation of k-mesh.
 Grid dimensions read from file:
 generate k-points for:    3    3    1

 Generating k-lattice:

  Cartesian coordinates                     Fractional coordinates (reciprocal lattice)
     0.018456177  0.000005026 -0.000000000     0.333333333  0.000000000  0.000000000
     0.000000000  0.018454135  0.000000000     0.000000000  0.333333333  0.000000000
     0.000000000 -0.000000000  0.016003201     0.000000000  0.000000000  1.000000000

  Length of vectors
     0.018456178  0.018454135  0.016003201

  Shift w.r.t. Gamma in fractional coordinates (k-lattice)
     0.000000000  0.000000000  0.000000000

 
 Subroutine IBZKPT returns following result:
 ===========================================
 
 Found      5 irreducible k-points:
 
 Following reciprocal coordinates:
            Coordinates               Weight
  0.000000  0.000000  0.000000      1.000000
  0.333333  0.000000  0.000000      2.000000
  0.000000  0.333333  0.000000      2.000000
  0.333333  0.333333  0.000000      2.000000
 -0.333333  0.333333  0.000000      2.000000
 
 Following cartesian coordinates:
            Coordinates               Weight
  0.000000  0.000000  0.000000      1.000000
  0.018456  0.000005  0.000000      2.000000
  0.000000  0.018454  0.000000      2.000000
  0.018456  0.018459  0.000000      2.000000
 -0.018456  0.018449  0.000000      2.000000
 


--------------------------------------------------------------------------------------------------------




 Dimension of arrays:
   k-points           NKPTS =      5   k-points in BZ     NKDIM =      5   number of bands    NBANDS=    732
   number of dos      NEDOS =    301   number of ions     NIONS =    325
   non local maximal  LDIM  =      5   non local SUM 2l+1 LMDIM =     13
   total plane-waves  NPLWV = ******
   max r-space proj   IRMAX =   3336   max aug-charges    IRDMAX=  19845
   dimension x,y,z NGX =   100 NGY =  100 NGZ =  350
   dimension x,y,z NGXF=   200 NGYF=  200 NGZF=  700
   support grid    NGXF=   200 NGYF=  200 NGZF=  700
   ions per type =             143  39  47  72  24
   NGX,Y,Z   is equivalent  to a cutoff of   9.20,  9.20,  9.31 a.u.
   NGXF,Y,Z  is equivalent  to a cutoff of  18.41, 18.41, 18.62 a.u.

 SYSTEM =  PSC                                     
 POSCAR =   H  C  N  I Pb                          

 Startparameter for this run:
   NWRITE =      2    write-flag & timer
   PREC   = normal    normal or accurate (medium, high low for compatibility)
   ISTART =      0    job   : 0-new  1-cont  2-samecut
   ICHARG =      1    charge: 1-file 2-atom 10-const
   ISPIN  =      1    spin polarized calculation?
   LNONCOLLINEAR =      F non collinear calculations
   LSORBIT =      F    spin-orbit coupling
   INIWAV =      1    electr: 0-lowe 1-rand  2-diag
   LASPH  =      F    aspherical Exc in radial PAW
 Electronic Relaxation 1
   ENCUT  =  500.0 eV  36.75 Ry    6.06 a.u.  32.93 32.93113.93*2*pi/ulx,y,z
   ENINI  =  500.0     initial cutoff
   ENAUG  =  644.9 eV  augmentation charge cutoff
   NELM   =    600;   NELMIN=  2; NELMDL=  0     # of ELM steps 
   EDIFF  = 0.1E-03   stopping-criterion for ELM
   LREAL  =      T    real-space projection
   NLSPLINE    = F    spline interpolate recip. space projectors
   LCOMPAT=      F    compatible to vasp.4.4
   GGA_COMPAT  = F    GGA compatible to vasp.4.4-vasp.4.6
   LMAXPAW     = -100 max onsite density
   LMAXMIX     =    2 max onsite mixed and CHGCAR
   VOSKOWN=      0    Vosko Wilk Nusair interpolation
   ROPT   =   -0.00050  -0.00050  -0.00050  -0.00050
   ROPT   =   -0.00050
 Ionic relaxation
   EDIFFG = 0.1E-02   stopping-criterion for IOM
   NSW    =      0    number of steps for IOM
   NBLOCK =      1;   KBLOCK =      1    inner block; outer block 
   IBRION =     -1    ionic relax: 0-MD 1-quasi-New 2-CG
   NFREE  =      0    steps in history (QN), initial steepest desc. (CG)
   ISIF   =      2    stress and relaxation
   IWAVPR =     10    prediction:  0-non 1-charg 2-wave 3-comb
   ISYM   =      0    0-nonsym 1-usesym 2-fastsym
   LCORR  =      T    Harris-Foulkes like correction to forces

   POTIM  = 0.5000    time-step for ionic-motion
   TEIN   =    0.0    initial temperature
   TEBEG  =    0.0;   TEEND  =   0.0 temperature during run
   SMASS  =  -3.00    Nose mass-parameter (am)
   estimated Nose-frequenzy (Omega)   =  0.10E-29 period in steps = 0.13E+47 mass=  -0.745E-26a.u.
   SCALEE = 1.0000    scale energy and forces
   NPACO  =    256;   APACO  = 16.0  distance and # of slots for P.C.
   PSTRESS=    0.0 pullay stress

  Mass of Ions in am
   POMASS =   1.00 12.01 14.00126.90207.20
  Ionic Valenz
   ZVAL   =   1.00  4.00  5.00  7.00  4.00
  Atomic Wigner-Seitz radii
   RWIGS  =  -1.00 -1.00 -1.00 -1.00 -1.00
  virtual crystal weights 
   VCA    =   1.00  1.00  1.00  1.00  1.00
   NELECT =    1134.0000    total number of electrons
   NUPDOWN=      -1.0000    fix difference up-down

 DOS related values:
   EMIN   =  10.00;   EMAX   =-10.00  energy-range for DOS
   EFERMI =   0.00
   ISMEAR =     0;   SIGMA  =   0.05  broadening in eV -4-tet -1-fermi 0-gaus

 Electronic relaxation 2 (details)
   IALGO  =     38    algorithm
   LDIAG  =      T    sub-space diagonalisation (order eigenvalues)
   LSUBROT=      F    optimize rotation matrix (better conditioning)
   TURBO    =      0    0=normal 1=particle mesh
   IRESTART =      0    0=no restart 2=restart with 2 vectors
   NREBOOT  =      0    no. of reboots
   NMIN     =      0    reboot dimension
   EREF     =   0.00    reference energy to select bands
   IMIX   =      4    mixing-type and parameters
     AMIX     =   0.40;   BMIX     =  0.01
     AMIX_MAG =   1.60;   BMIX_MAG =  0.01
     AMIN     =   0.01
     WC   =   100.;   INIMIX=   1;  MIXPRE=   1;  MAXMIX= -45

 Intra band minimization:
   WEIMIN = 0.0000     energy-eigenvalue tresh-hold
   EBREAK =  0.34E-07  absolut break condition
   DEPER  =   0.30     relativ break condition  

   TIME   =   0.40     timestep for ELM

  volume/ion in A,a.u.               =      62.72       423.28
  Fermi-wavevector in a.u.,A,eV,Ry     =   0.624944  1.180972  5.313816  0.390554
  Thomas-Fermi vector in A             =   1.685677
 
 Write flags
   LWAVE        =      F    write WAVECAR
   LDOWNSAMPLE  =      F    k-point downsampling of WAVECAR
   LCHARG       =      T    write CHGCAR
   LVTOT        =      T    write LOCPOT, total local potential
   LVHAR        =      F    write LOCPOT, Hartree potential only
   LELF         =      F    write electronic localiz. function (ELF)
   LORBIT       =      0    0 simple, 1 ext, 2 COOP (PROOUT), +10 PAW based schemes


 Dipole corrections
   LMONO  =      F    monopole corrections only (constant potential shift)
   LDIPOL =      T    correct potential (dipole corrections)
   IDIPOL =      3    1-x, 2-y, 3-z, 4-all directions 
   EPSILON=  1.0000000 bulk dielectric constant

 Exchange correlation treatment:
   GGA     =    --    GGA type
   LEXCH   =     8    internal setting for exchange type
   VOSKOWN=      0    Vosko Wilk Nusair interpolation
   LHFCALC =     F    Hartree Fock is set to
   LHFONE  =     F    Hartree Fock one center treatment
   AEXX    =    0.0000 exact exchange contribution

 Linear response parameters
   LEPSILON=     F    determine dielectric tensor
   LRPA    =     F    only Hartree local field effects (RPA)
   LNABLA  =     F    use nabla operator in PAW spheres
   LVEL    =     F    velocity operator in full k-point grid
   LINTERFAST=   F  fast interpolation
   KINTER  =     0    interpolate to denser k-point grid
   CSHIFT  =0.1000    complex shift for real part using Kramers Kronig
   OMEGAMAX=  -1.0    maximum frequency
   DEG_THRESHOLD= 0.2000000E-02 threshold for treating states as degnerate
   RTIME   =   -0.100 relaxation time in fs
  (WPLASMAI=    0.000 imaginary part of plasma frequency in eV, 0.658/RTIME)
   DFIELD  = 0.0000000 0.0000000 0.0000000 field for delta impulse in time
 
 Orbital magnetization related:
   ORBITALMAG=     F  switch on orbital magnetization
   LCHIMAG   =     F  perturbation theory with respect to B field
   DQ        =  0.001000  dq finite difference perturbation B field
   LLRAUG    =     F  two centre corrections for induced B field



--------------------------------------------------------------------------------------------------------


 Static calculation
 charge density and potential will be updated during run
 non-spin polarized calculation
 Variant of blocked Davidson
 Davidson routine will perform the subspace rotation
 perform sub-space diagonalisation
    after iterative eigenvector-optimisation
 modified Broyden-mixing scheme, WC =      100.0
 initial mixing is a Kerker type mixing with AMIX =  0.4000 and BMIX =      0.0100
 Hartree-type preconditioning will be used
 using additional bands           165
 real space projection scheme for non local part
[...]
     13.54561      0.00000     45.35368        -0.003887      0.002477      0.009942
     13.54315      9.03140     45.35368         0.004662     -0.001482      0.015786
     14.13894     10.21393     32.95704        -0.752342     -0.631839      0.334429
     13.21045      8.65728     33.07820        -0.034322      0.346117      0.131755
     15.74778      9.13654     34.32416        -0.349281      0.032840      0.403154
     15.34699      8.67607     36.00898        -0.001768      0.246562      0.145815
     13.36977     11.56848     35.47821        -0.291290      0.129556      0.009131
     14.44179     10.69778     36.57808        -0.230300     -0.282653      0.177780
     11.71113      9.70816     35.76923         0.963576     -0.626157     -0.048194
     12.16288      8.10253     35.09961        -0.017386      0.139681      0.019353
     11.23408      9.86486     33.80753        -0.262172      0.105193     -0.100423
     12.09770     11.41182     33.99037         0.248931     -0.761633     -0.376785
     11.25226     11.89730     31.93696        -0.451216      0.476248      0.103428
     12.64360     10.96788     31.41959        -0.686650      0.155916     -0.020254
     14.93518      7.10161     33.49163         0.031422      0.006049     -0.311854
     13.69804      7.04614     34.72848         0.067745     -0.449881     -0.071652
     15.30859      6.56702     35.11269         0.348949     -0.363858      0.461677
     15.51786     12.49362     35.00495        -0.232089     -0.099229      0.421819
     15.32741     11.32637     33.78234         0.017107     -0.010126     -0.596053
     16.32181     10.91494     35.15480         0.197848     -0.037688      0.179117
     13.83935      9.10848     37.48571        -0.913177     -0.602729     -0.312728
     13.35902      7.43233     37.06741        -0.047041      0.205597     -0.048105
     12.17156      8.51376     37.85349         0.380423      0.047928     -0.648855
      9.82625      9.82545     31.92061         0.549341     -0.288021     -0.664533
     10.45995     10.17614     30.25829         0.180170     -0.073267      0.420313
     13.06701      9.02351     29.89338        -0.465205     -0.746581      0.375950
     10.00706      7.61991     32.62564        -0.032629     -0.124441      0.043987
     14.16149      6.76879     29.98862        -1.012974      0.335899      0.601327
     11.14424      5.41236     32.75049         0.033852     -0.080090      0.026553
     13.25343      4.96194     31.47563        -0.600037      1.086300     -0.183354
      0.27667      4.29451     34.71685        -0.556083      0.740215      0.040167
      0.04615     13.52388     34.68198        -0.179735      0.195985      1.268849
      8.88052      4.39993     34.71174         1.013836     -0.789093      0.337024
      9.11057     13.79785     34.76029         0.504711     -0.306189     -0.174882
      4.35741      9.12133     34.75049        -0.651793     -1.049305      0.737666
      4.40979      0.10277     34.79465        -0.876715     -0.778557      0.701529
     13.66661     17.94845     34.80107         0.570548      0.860024      0.723350
      0.00270      4.47500     40.57565         1.620802     -1.482989      0.919221
      0.10175     13.73815     40.67794         1.607594     -1.879335      1.470309
      8.89532      4.40217     40.62376         1.335462     -1.823655     -0.740577
      8.92511     13.55441     40.57904        -0.613320      0.666559      0.292260
      4.55605      9.04857     40.51889         1.468112      1.895164      0.872017
      4.48550     18.06085     40.52626        -1.289952     -1.322140      0.928994
     13.68306      9.01925     40.70841        -0.884609     -0.870540      0.094390
     13.53205     18.05697     40.51003        -1.676171     -1.423904      0.918165
      9.02897      4.51561     46.44552         0.011657      0.001753      0.046585
      9.02651     13.54701     46.44552        -0.003149      0.018604      0.041037
     18.05937      4.51561     46.44552         0.020373     -0.003726      0.046028
     18.05691     13.54701     46.44552         0.026311     -0.006900      0.058182
      4.51521      0.00002     46.44421         0.007713      0.008700      0.052179
      4.51275      9.03142     46.44421         0.001124      0.002292      0.046832
     13.54561      0.00002     46.44421        -0.000022      0.002741      0.051575
     13.54315      9.03142     46.44421        -0.017129     -0.019190      0.064737
     11.41172      8.47376     31.23659         0.114760     -0.555510     -0.012815
     12.58980      8.19560     30.48620        -0.515107      1.771298      0.044012
     10.89742      7.41217     32.02829         0.039226      1.035764     -0.376579
     13.21087      6.96723     30.57630         1.826396     -0.574564     -1.215253
     11.54052      6.18582     32.09364         0.119645     -0.391913      0.079693
     12.71184      5.94992     31.36511         0.066573     -1.292686      0.679915
     13.28323      9.68510     33.47947         2.022353      0.235669     -0.197771
     14.99585      8.65464     34.97548        -0.123929      1.430666     -0.201130
     14.18876     10.85659     35.52818        -0.378156      0.253835      0.177533
     12.54298      8.94124     35.69990        -0.222239      0.553232      0.992908
     12.04553     10.46384     33.37376        -1.767956      1.399667      0.690134
     11.66090     10.89905     31.96822         1.609962     -1.081115     -1.021255
     14.75002      7.28875     34.54767        -1.046794     -0.992591     -0.719609
     15.40081     11.41438     34.85810         0.713731      0.232100     -0.450726
     12.98596      8.46670     37.09516         0.562704      0.608035      0.221618
     10.75962      9.85063     31.28321        -0.518813      0.117532      0.134252
      0.78946      3.38891     35.50508         0.616672     -1.056893      1.284798
      0.73067     12.58027     35.27572         0.278680     -0.132008      1.132444
      9.99037      3.96963     35.28100         0.718109     -0.235610      0.479938
      9.61596     12.75221     35.39759        -0.266290      0.331731     -0.042174
      7.99596      5.14443     35.30591        -0.376072      1.073338      1.350559
      8.32585     14.71904     35.27457        -0.269317     -0.560962      1.518988
     17.63662      5.34416     35.10352        -0.371416      0.336228      1.102393
     17.49606     14.50097     35.31934        -0.072937      0.075118      0.960996
      3.73389      8.14287     35.40330        -0.619774     -0.350584     -2.223180
      3.50670     17.40328     35.41944        -0.685974      0.102409     -2.406445
     12.81175     17.13082     35.35231        -0.939948     -1.447907     -1.970195
      5.44769      0.62452     35.39304         1.318326      1.494318     -2.018855
      5.18408      9.95197     35.32832         0.835052      1.737465     -2.186443
     14.26010      0.87909     35.46206         1.136756      0.075564     -2.297141
      0.89086      3.65096     41.16579        -2.189769      2.005934      0.278448
      0.86561     12.81378     41.32870        -1.837244      2.147973     -1.516326
      9.81369      3.60516     41.18317        -1.356800      1.799356      0.921331
      9.70150     12.72704     41.21050         1.803544     -1.931164     -0.059125
      3.81218      8.16064     41.10297        -0.492876     -0.525545      1.348325
      3.62779     17.19886     41.09082         0.518987      0.493749     -0.000112
     12.82673      8.26882     41.38967         0.718410      1.078770      0.770982
     12.60323     17.31929     41.13529         0.584518      0.419203      0.214225
      8.18289      5.30665     41.20031        -0.326326      1.013616      2.191702
      8.12388     14.41604     41.14754        -0.266035      0.279702      1.839873
     17.22498      5.24324     41.19435        -1.609015      1.479123      0.921606
     17.28534     14.52170     41.24574         0.085548     -0.119990     -0.161353
      5.28053      0.80876     41.16678         0.337901      0.328502      1.649957
      5.31731      9.96430     41.14114        -0.512534     -0.698881      0.249953
     14.42827      0.73975     41.09158         0.455607      0.466571      1.496752
     14.42715      9.97406     41.18361         1.326593      1.213256     -1.194535
      0.82731      3.68697     47.03596         0.011391     -0.018493     -0.090934
      0.82485     12.71837     47.03596         0.004547     -0.014381     -0.092760
      9.85771      3.68697     47.03596         0.019469     -0.019271     -0.089005
      9.85525     12.71837     47.03596         0.034179     -0.029606     -0.090522
      3.68432      8.20234     47.03465        -0.014424     -0.010633     -0.067404
      3.68186     17.23373     47.03465        -0.016386     -0.015764     -0.068016
     12.71472      8.20234     47.03465         0.000657      0.001306     -0.090441
     12.71226     17.23373     47.03465        -0.006180     -0.016271     -0.069979
      8.20068      5.34457     47.03603        -0.018562      0.019317     -0.091860
      8.19822     14.37597     47.03603        -0.011039      0.008035     -0.094407
     17.23108      5.34457     47.03603        -0.022775      0.023906     -0.089877
     17.22862     14.37597     47.03603        -0.029853      0.020336     -0.095215
      5.34365      0.82909     47.03465         0.004990      0.003369     -0.069564
      5.34119      9.86049     47.03465         0.010559      0.009699     -0.069270
     14.37405      0.82909     47.03465         0.012003      0.007232     -0.072942
     14.37159      9.86049     47.03465         0.019251      0.022832     -0.081179
     13.70556      9.56034     34.92677         1.209152     -0.985341      0.145358
      8.96580      0.23934     34.48454        -0.040357     -0.010622      0.003793
      8.62535      9.37264     34.83781         0.029890     -0.158807     -0.080445
     18.03683     18.02864     34.50131         0.050327     -0.022820     -0.033174
      0.44267      8.69461     34.35724         0.016185      0.181286      0.068152
      4.54701      4.52911     34.46392        -0.036480     -0.051595      0.073329
      4.49640     13.57204     34.49174         0.028706     -0.017449      0.100983
     13.66218      4.07455     34.71003        -0.162409     -0.116926      0.021929
     13.22789     13.95459     34.23405        -0.288641      0.500947      0.007986
      0.09353      0.01645     40.88143        -0.100659     -0.007512      0.048911
      0.14444      9.13746     40.85905        -0.022652     -0.084797      0.037964
      9.10532      0.01660     40.91954        -0.144881     -0.015249     -0.150625
      9.01909      8.94996     40.99855         0.033461     -0.023528     -0.016473
      4.48694      4.50271     40.92436         0.045218     -0.011671     -0.172637
      4.42991     13.55956     40.86599         0.048067      0.017896      0.103676
     13.44267      4.51120     40.97147         0.009233      0.009250     -0.081834
     13.59113     13.68786     40.86009         0.009920     -0.040930      0.054473
      2.58933      1.88508     38.10450         0.063068      0.112344     -0.060198
      2.60238     10.90082     37.97683         0.052140      0.133932     -0.074770
     11.63795      1.83266     38.00055         0.018286      0.050863     -0.022111
     11.27111     11.32115     38.29751        -0.024439      0.082119     -0.022314
      6.37928      7.11803     38.04863        -0.061547     -0.149252     -0.066418
      6.39334     16.12693     38.05236         0.147797      0.024141     -0.100289
     15.91150      6.70399     38.32167        -0.024528     -0.016129     -0.242972
     15.43881     16.19434     37.95826         0.152095      0.007792     -0.041987
      1.94605      6.45401     37.96343         0.107363     -0.077622      0.045699
      1.96604     15.50874     38.03622        -0.036285     -0.010336     -0.096452
     10.55218      6.07226     38.00576         0.058657     -0.040869      0.050915
     10.96278     15.54514     38.09952         0.001279      0.068319     -0.063912
      7.04568      2.53231     37.97178        -0.008605     -0.039335      0.014510
      6.96424     11.54135     38.11481         0.044587     -0.011019     -0.006755
     16.15067      2.51598     38.04808        -0.103178      0.091151      0.051366
     16.48322     11.93174     38.33443        -0.243203     -0.184346     -0.184414
      0.00000      0.00000     47.17356        -0.003410     -0.002048      0.407444
     -0.00246      9.03140     47.17356        -0.006151      0.004636      0.362871
      9.03040      0.00000     47.17356         0.001556     -0.002903      0.485998
      9.02794      9.03140     47.17356         0.004953      0.002779      0.518384
      4.51398      4.51570     47.17425        -0.001804      0.000685      0.488014
      4.51152     13.54710     47.17425        -0.001173      0.000864      0.445841
     13.54438      4.51570     47.17425         0.001851      0.002821      0.480836
     13.54192     13.54710     47.17425         0.003177     -0.002849      0.308386
      2.45192      2.06295     44.04013         0.005182     -0.043703      0.022822
      2.44946     11.09435     44.04013         0.027042     -0.051771      0.058752
     11.48232      2.06295     44.04013         0.038446     -0.002912      0.019530
     11.47986     11.09435     44.04013         0.037509      0.028986     -0.069906
      6.57602      6.96845     44.04013         0.013035      0.016996     -0.010787
      6.57356     15.99985     44.04013        -0.014305      0.004252     -0.015052
     15.60642      6.96845     44.04013         0.034628     -0.005239     -0.048457
     15.60396     15.99985     44.04013        -0.038615      0.007798      0.023263
      2.06108      6.57881     44.04000        -0.004860      0.045882     -0.053537
      2.05862     15.61021     44.04000        -0.005711      0.028021     -0.008071
     11.09148      6.57881     44.04000        -0.040171     -0.031999      0.015174
     11.08902     15.61021     44.04000         0.036843     -0.037173     -0.013815
      6.96686      2.45259     44.04007        -0.020009     -0.022934     -0.029857
      6.96440     11.48399     44.04007         0.007916      0.013866     -0.017890
     15.99726      2.45259     44.04007        -0.015494     -0.027958     -0.071676
     15.99481     11.48399     44.04007        -0.005133      0.060082     -0.012505
      2.43163      2.08322     50.06849        -0.000935     -0.020299      0.022173
      2.42917     11.11462     50.06849        -0.000766     -0.018110      0.020832
     11.46203      2.08322     50.06849         0.013629     -0.008803      0.022460
     11.45957     11.11462     50.06849         0.030539      0.008619      0.019445
      6.59631      6.94818     50.06849        -0.009428      0.011548      0.022770
      6.59385     15.97958     50.06849        -0.013326      0.005632      0.022344
     15.62671      6.94818     50.06849        -0.000414      0.022014      0.020898
     15.62425     15.97958     50.06849        -0.019579     -0.000598      0.019121
      2.08113      6.59901     50.06905        -0.025856      0.004691      0.022533
      2.07867     15.63041     50.06905        -0.016789     -0.006479      0.021775
     11.11153      6.59901     50.06905        -0.004821     -0.011084      0.020768
     11.10907     15.63041     50.06905         0.009037     -0.028943      0.021021
      6.94681      2.43239     50.06905         0.011159      0.008206      0.023757
      6.94435     11.46379     50.06905         0.005877      0.015084      0.022549
     15.97721      2.43239     50.06905         0.015803      0.003318      0.021645
     15.97475     11.46379     50.06905         0.004396      0.015524      0.018309
      0.02181      0.02784     37.70107        -0.110966     -0.091469      0.038848
      0.05384      9.09332     37.70061         0.033089     -0.050089      0.048827
      9.00942      0.07707     37.60904         0.055606     -0.093228      0.146221
      8.93531      8.96945     37.89938         0.062377      0.098766     -0.236899
      4.53051      4.45749     37.61621        -0.189568      0.119073      0.063550
      4.50118     13.53549     37.62065        -0.056962     -0.043481     -0.058086
     13.48238      4.42929     37.84553         0.091739      0.028449     -0.231312
     13.51376     13.71020     37.77253        -0.010027     -0.102689     -0.112196
      0.00001      0.00001     44.04300         0.055233      0.021875      0.027037
     -0.00245      9.03141     44.04300         0.083162     -0.047036     -0.022638
      9.03041      0.00001     44.04300        -0.022996      0.040403     -0.000627
      9.02795      9.03141     44.04300        -0.075341     -0.015117      0.258011
      4.51397      4.51569     44.04275         0.016292     -0.024391      0.020745
      4.51151     13.54709     44.04275        -0.023334     -0.005916     -0.098417
     13.54437      4.51569     44.04275        -0.010889     -0.032786      0.221359
     13.54191     13.54709     44.04275        -0.058476      0.083983      0.090242
      0.00000      0.00000     50.44728         0.012659      0.012405     -0.625421
     -0.00246      9.03140     50.44728         0.011378     -0.014082     -0.611989
      9.03040      0.00000     50.44728        -0.010900      0.013935     -0.648377
      9.02794      9.03140     50.44728        -0.013626     -0.012158     -0.652860
      4.51397      4.51570     50.44728         0.013631     -0.001617     -0.649760
      4.51151     13.54710     50.44728         0.013295      0.003453     -0.637975
     13.54437      4.51570     50.44728        -0.013176     -0.004026     -0.644376
     13.54191     13.54710     50.44728        -0.013840      0.002357     -0.594510
 -----------------------------------------------------------------------------------
    total drift:                                0.021088      0.008073      0.108409


--------------------------------------------------------------------------------------------------------



  FREE ENERGIE OF THE ION-ELECTRON SYSTEM (eV)
  ---------------------------------------------------
  free  energy   TOTEN  =     -1571.10454460 eV

  energy  without entropy=    -1571.10454460  energy(sigma->0) =    -1571.10454460
 


--------------------------------------------------------------------------------------------------------


    POTLOK:  cpu time    0.4998: real time    0.5004


--------------------------------------------------------------------------------------------------------


     LOOP+:  cpu time  345.7185: real time  346.3858
 vacuum level on the upper side and lower side of the slab         2.335         1.527
    4ORBIT:  cpu time    0.0000: real time    0.0000

 total amount of memory used by VASP MPI-rank0  8653570. kBytes
=======================================================================

   base      :      30000. kBytes
   nonlr-proj:      53608. kBytes
   fftplans  :     249280. kBytes
   grid      :     701440. kBytes
   one-center:       2636. kBytes
   wavefun   :    7616606. kBytes
 
  
  
 General timing and accounting informations for this job:
 ========================================================
  
                  Total CPU time used (sec):      560.256
                            User time (sec):      447.051
                          System time (sec):      113.205
                         Elapsed time (sec):      561.396
  
                   Maximum memory used (kb):    10369036.
                   Average memory used (kb):          N/A
  
                          Minor page faults:      3880676
                          Major page faults:           11
                 Voluntary context switches:        11758
