<?xml version="1.0" encoding="ISO-8859-1"?>
<modeling>
 <generator>
  <i name="program" type="string">vasp </i>
  <i name="version" type="string">6.2.1  </i>
  <i name="subversion" type="string">16May21 (build Nov 15 2021 14:57:28) complex                          parallel </i>
  <i name="platform" type="string">LinuxPGI </i>
  <i name="date" type="string">2023 07 24 </i>
  <i name="time" type="string">21:39:40 </i>
 </generator>
 <incar>
  <i type="string" name="SYSTEM">PSC</i>
  <i type="int" name="ISTART">     1</i>
  <i type="string" name="PREC">Normal</i>
  <i name="BMIX">      0.01000000</i>
  <i name="AMIN">      0.01000000</i>
  <i type="int" name="ICHARG">     1</i>
  <i type="int" name="NELM">   600</i>
  <i type="int" name="ISYM">     0</i>
  <i name="ENCUT">    500.00000000</i>
  <i type="string" name="LREAL">Auto</i>
  <i type="int" name="ISMEAR">     0</i>
  <i name="SIGMA">      0.05000000</i>
  <i type="logical" name="LWAVE"> F  </i>
  <i type="logical" name="LVTOT"> T  </i>
  <i type="logical" name="GGA_COMPAT"> F  </i>
  <i type="logical" name="LDIPOL"> T  </i>
  <i type="int" name="IDIPOL">     3</i>
  <i type="int" name="IVDW">    12</i>
 </incar>
 <primitive_cell>
  <structure name="primitive_cell" >
   <crystal>
    <varray name="basis" >
     <v>      18.06080055       0.00000000       0.00000000 </v>
     <v>      -0.00491865      18.06279945       0.00000000 </v>
     <v>       0.00000000       0.00000000      62.48749924 </v>
    </varray>
    <i name="volume">  20385.21054034 </i>
    <varray name="rec_basis" >
     <v>       0.05536853       0.00001508      -0.00000000 </v>
     <v>       0.00000000       0.05536240       0.00000000 </v>
     <v>       0.00000000      -0.00000000       0.01600320 </v>
    </varray>
   </crystal>
   <varray name="positions" >
    <v>       0.44715780       0.30497149       0.58084683 </v>
    <v>       0.44344390       0.81447500       0.58063023 </v>
    <v>       0.96496047       0.31160483       0.57772255 </v>
    <v>       0.96909733       0.81152234       0.58184416 </v>
    <v>       0.31465911       0.02919950       0.58204482 </v>
    <v>       0.30161977       0.55104250       0.58096068 </v>
    <v>       0.77915044       0.06148215       0.58289399 </v>
    <v>       0.07289112       0.14209913       0.56180872 </v>
    <v>       0.06543437       0.65653801       0.55574897 </v>
    <v>       0.59057063       0.18645738       0.55645633 </v>
    <v>       0.56530071       0.66656804       0.55915939 </v>
    <v>       0.33905348       0.06711208       0.55698323 </v>
    <v>       0.31269306       0.59269825       0.55567126 </v>
    <v>       0.82624102       0.08437593       0.55909315 </v>
    <v>       0.03768657       0.18825670       0.58534974 </v>
    <v>       0.04810292       0.69275285       0.58119987 </v>
    <v>       0.56881192       0.23510574       0.58033965 </v>
    <v>       0.52046120       0.69620719       0.58227741 </v>
    <v>       0.21227463       0.44064617       0.58232991 </v>
    <v>       0.19620576       0.95013524       0.58245634 </v>
    <v>       0.69213260       0.94991184       0.58105134 </v>
    <v>       0.39539364       0.30052764       0.55758296 </v>
    <v>       0.44433959       0.85937649       0.55593120 </v>
    <v>       0.95829605       0.33417567       0.55101530 </v>
    <v>       0.93947502       0.84158577       0.55733437 </v>
    <v>       0.16978852       0.41625946       0.55790907 </v>
    <v>       0.14871048       0.94288529       0.55791115 </v>
    <v>       0.68804337       0.90408219       0.55601001 </v>
    <v>       0.48291360       0.22369331       0.53926936 </v>
    <v>       0.52036543       0.77128083       0.53946215 </v>
    <v>       0.02214195       0.23323256       0.53826837 </v>
    <v>       0.99776435       0.74548788       0.53798730 </v>
    <v>       0.22963925       0.50985305       0.53886071 </v>
    <v>       0.23617264       0.01670922       0.53961061 </v>
    <v>       0.77152688       0.98528990       0.53994283 </v>
    <v>       0.45574059       0.30709958       0.67578897 </v>
    <v>       0.44405511       0.80440922       0.67516025 </v>
    <v>       0.94613602       0.29713782       0.67591778 </v>
    <v>       0.94534184       0.80479475       0.67605142 </v>
    <v>       0.29615830       0.04943345       0.67559851 </v>
    <v>       0.29908952       0.55769010       0.67496819 </v>
    <v>       0.80494774       0.04798192       0.67429191 </v>
    <v>       0.80275105       0.57049935       0.67457688 </v>
    <v>       0.08212138       0.17222566       0.64956437 </v>
    <v>       0.08348929       0.67882677       0.65256473 </v>
    <v>       0.57064549       0.16284943       0.65013437 </v>
    <v>       0.57075251       0.66865387       0.65005311 </v>
    <v>       0.18027414       0.41694502       0.64873559 </v>
    <v>       0.16921224       0.91921298       0.64782134 </v>
    <v>       0.68160868       0.41848209       0.65497347 </v>
    <v>       0.66173969       0.92805571       0.64925358 </v>
    <v>       0.05248196       0.19874341       0.67508205 </v>
    <v>       0.04279400       0.70171051       0.67721858 </v>
    <v>       0.55594774       0.20341092       0.67519541 </v>
    <v>       0.54498841       0.69646421       0.67595075 </v>
    <v>       0.20530300       0.44550020       0.67446858 </v>
    <v>       0.19341773       0.94494848       0.67404473 </v>
    <v>       0.69962564       0.46196744       0.67856474 </v>
    <v>       0.69159751       0.95502694       0.67488682 </v>
    <v>       0.41637080       0.32410472       0.65083641 </v>
    <v>       0.41770895       0.83198937       0.64971754 </v>
    <v>       0.91786804       0.32378463       0.65004933 </v>
    <v>       0.92909840       0.83976605       0.65062665 </v>
    <v>       0.32625698       0.07881619       0.65050816 </v>
    <v>       0.32536385       0.58763690       0.64929619 </v>
    <v>       0.83547574       0.06969307       0.64859890 </v>
    <v>       0.83395682       0.58071338       0.64813745 </v>
    <v>       0.00095451       0.24764607       0.63205598 </v>
    <v>       0.01704413       0.76461702       0.63406249 </v>
    <v>       0.48228979       0.23418593       0.63302780 </v>
    <v>       0.49236034       0.75213142       0.63208266 </v>
    <v>       0.25044502       0.00063258       0.63129417 </v>
    <v>       0.25492796       0.50535026       0.63116854 </v>
    <v>       0.74724333       0.99483793       0.63106720 </v>
    <v>       0.76150756       0.48627756       0.63432316 </v>
    <v>       0.44874502       0.30128397       0.76888902 </v>
    <v>       0.44874501       0.80128391       0.76888902 </v>
    <v>       0.94874497       0.30128397       0.76888902 </v>
    <v>       0.94874501       0.80128391       0.76888902 </v>
    <v>       0.30127600       0.05129450       0.76887296 </v>
    <v>       0.30127601       0.55129450       0.76887296 </v>
    <v>       0.80127594       0.05129450       0.76887296 </v>
    <v>       0.80127598       0.55129450       0.76887296 </v>
    <v>       0.07877100       0.17118050       0.74344197 </v>
    <v>       0.07877101       0.67118045       0.74344197 </v>
    <v>       0.57877100       0.17118050       0.74344197 </v>
    <v>       0.57877099       0.67118045       0.74344197 </v>
    <v>       0.17119950       0.42117448       0.74342103 </v>
    <v>       0.17119950       0.92117451       0.74342103 </v>
    <v>       0.67119951       0.42117448       0.74342103 </v>
    <v>       0.67119950       0.92117451       0.74342103 </v>
    <v>       0.05125600       0.19871499       0.76888902 </v>
    <v>       0.05125600       0.69871493       0.76888902 </v>
    <v>       0.55125603       0.19871499       0.76888902 </v>
    <v>       0.55125602       0.69871493       0.76888902 </v>
    <v>       0.19872349       0.44870397       0.76887205 </v>
    <v>       0.19872349       0.94870397       0.76887205 </v>
    <v>       0.69872352       0.44870397       0.76887205 </v>
    <v>       0.69872351       0.94870397       0.76887205 </v>
    <v>       0.42123152       0.32881747       0.74344197 </v>
    <v>       0.42123151       0.82881744       0.74344197 </v>
    <v>       0.92123147       0.32881747       0.74344197 </v>
    <v>       0.92123151       0.82881744       0.74344197 </v>
    <v>       0.32880050       0.07882500       0.74342103 </v>
    <v>       0.32880049       0.57882496       0.74342103 </v>
    <v>       0.82880048       0.07882500       0.74342103 </v>
    <v>       0.82880052       0.57882496       0.74342103 </v>
    <v>       0.00000350       0.25000148       0.72582199 </v>
    <v>       0.00000350       0.75000145       0.72582199 </v>
    <v>       0.50000351       0.25000148       0.72582199 </v>
    <v>       0.50000350       0.75000145       0.72582199 </v>
    <v>       0.25000050       0.00000000       0.72580398 </v>
    <v>       0.25000052       0.50000000       0.72580398 </v>
    <v>       0.75000050       0.00000000       0.72580398 </v>
    <v>       0.75000049       0.50000000       0.72580398 </v>
    <v>       0.78300644       0.56546788       0.52741811 </v>
    <v>       0.73157375       0.47928778       0.52935710 </v>
    <v>       0.87206893       0.50582074       0.54929639 </v>
    <v>       0.84987103       0.48032816       0.57625887 </v>
    <v>       0.74043890       0.64045900       0.56776499 </v>
    <v>       0.79978197       0.59225501       0.58536641 </v>
    <v>       0.64857418       0.53746715       0.57242223 </v>
    <v>       0.67356317       0.44857562       0.56170616 </v>
    <v>       0.62216337       0.54614218       0.54102868 </v>
    <v>       0.67000368       0.63178571       0.54395474 </v>
    <v>       0.62320039       0.65866312       0.51109362 </v>
    <v>       0.70022311       0.60720795       0.50281401 </v>
    <v>       0.82704593       0.39316242       0.53597329 </v>
    <v>       0.75854665       0.39009102       0.55576686 </v>
    <v>       0.84771342       0.36356609       0.56191543 </v>
    <v>       0.85938972       0.69167662       0.56019121 </v>
    <v>       0.84882710       0.62705498       0.54062553 </v>
    <v>       0.90387899       0.60427715       0.56258939 </v>
    <v>       0.76640206       0.50426759       0.59989135 </v>
    <v>       0.73978149       0.41147193       0.59319726 </v>
    <v>       0.67404978       0.47134236       0.60577692 </v>
    <v>       0.54421328       0.54396048       0.51083191 </v>
    <v>       0.57930547       0.56337572       0.48422951 </v>
    <v>       0.72363730       0.49956315       0.47838978 </v>
    <v>       0.55419116       0.42185644       0.52211462 </v>
    <v>       0.78420303       0.37473650       0.47991383 </v>
    <v>       0.61712156       0.29964114       0.52411270 </v>
    <v>       0.73389800       0.27470489       0.50371076 </v>
    <v>       0.01538369       0.23775426       0.55558073 </v>
    <v>       0.00275928       0.74871446       0.55502275 </v>
    <v>       0.49176758       0.24359094       0.55549892 </v>
    <v>       0.50464696       0.76388197       0.55627593 </v>
    <v>       0.24140094       0.50497877       0.55611904 </v>
    <v>       0.24416507       0.00568970       0.55682573 </v>
    <v>       0.75697059       0.99366907       0.55692853 </v>
    <v>       0.00021713       0.24774649       0.64934026 </v>
    <v>       0.00584064       0.76057688       0.65097719 </v>
    <v>       0.49258744       0.24371486       0.65011025 </v>
    <v>       0.49437459       0.75040498       0.64939460 </v>
    <v>       0.25239806       0.50095046       0.64843200 </v>
    <v>       0.24862776       0.99989196       0.64854988 </v>
    <v>       0.75774701       0.49932730       0.65146483 </v>
    <v>       0.74952217       0.99967703       0.64829019 </v>
    <v>       0.49998898       0.24999498       0.74327702 </v>
    <v>       0.49998903       0.74999496       0.74327702 </v>
    <v>       0.99998898       0.24999498       0.74327702 </v>
    <v>       0.99998903       0.74999496       0.74327702 </v>
    <v>       0.25000050       0.00000100       0.74325596 </v>
    <v>       0.25000052       0.50000100       0.74325596 </v>
    <v>       0.75000050       0.00000100       0.74325596 </v>
    <v>       0.75000049       0.50000100       0.74325596 </v>
    <v>       0.63197779       0.46912749       0.49988548 </v>
    <v>       0.69720251       0.45372804       0.48787685 </v>
    <v>       0.60348610       0.41035557       0.51255509 </v>
    <v>       0.73157129       0.38572275       0.48931860 </v>
    <v>       0.63907500       0.34246190       0.51360102 </v>
    <v>       0.70392587       0.32940196       0.50194222 </v>
    <v>       0.73561869       0.53619019       0.53577861 </v>
    <v>       0.83042845       0.47914174       0.55971968 </v>
    <v>       0.78577448       0.60104699       0.56856459 </v>
    <v>       0.69462094       0.49500829       0.57131269 </v>
    <v>       0.66710114       0.57930331       0.53408693 </v>
    <v>       0.64581124       0.60339786       0.51159390 </v>
    <v>       0.81679673       0.40352292       0.55287334 </v>
    <v>       0.85289218       0.63192763       0.55784113 </v>
    <v>       0.71914108       0.46873674       0.59364132 </v>
    <v>       0.59589265       0.54535476       0.50063157 </v>
    <v>       0.04376240       0.18761835       0.56819494 </v>
    <v>       0.04064564       0.69647398       0.56452447 </v>
    <v>       0.55321201       0.21976822       0.56460890 </v>
    <v>       0.53261391       0.70599319       0.56647481 </v>
    <v>       0.44280222       0.28480792       0.56500760 </v>
    <v>       0.46121219       0.81488170       0.56450604 </v>
    <v>       0.97659419       0.29586565       0.56176867 </v>
    <v>       0.96894964       0.80280866       0.56522243 </v>
    <v>       0.20686281       0.45080896       0.56656614 </v>
    <v>       0.19442326       0.96348769       0.56682437 </v>
    <v>       0.70962627       0.94840312       0.56575006 </v>
    <v>       0.30164022       0.03457482       0.56640186 </v>
    <v>       0.28718477       0.55096509       0.56536625 </v>
    <v>       0.78957412       0.04866872       0.56750645 </v>
    <v>       0.04938089       0.20212617       0.65878441 </v>
    <v>       0.04812087       0.70940176       0.66139156 </v>
    <v>       0.54342402       0.19959017       0.65906261 </v>
    <v>       0.53734948       0.70459944       0.65949989 </v>
    <v>       0.21119774       0.45179274       0.65777915 </v>
    <v>       0.20112463       0.95216999       0.65758471 </v>
    <v>       0.71032181       0.45778195       0.66236722 </v>
    <v>       0.69808356       0.95883754       0.65829634 </v>
    <v>       0.45315482       0.29378896       0.65933689 </v>
    <v>       0.45002468       0.79810660       0.65849236 </v>
    <v>       0.95380078       0.29027839       0.65924141 </v>
    <v>       0.95728260       0.80395606       0.66006384 </v>
    <v>       0.29238765       0.04477477       0.65880023 </v>
    <v>       0.29456214       0.55164782       0.65838993 </v>
    <v>       0.79888324       0.04095431       0.65759686 </v>
    <v>       0.79896069       0.55218778       0.65906963 </v>
    <v>       0.04586250       0.20411950       0.75272599 </v>
    <v>       0.04586250       0.70411946       0.75272599 </v>
    <v>       0.54586251       0.20411950       0.75272599 </v>
    <v>       0.54586250       0.70411946       0.75272599 </v>
    <v>       0.20411900       0.45410100       0.75270499 </v>
    <v>       0.20411899       0.95410095       0.75270499 </v>
    <v>       0.70411898       0.45410100       0.75270499 </v>
    <v>       0.70411896       0.95410095       0.75270499 </v>
    <v>       0.45414002       0.29588849       0.75272697 </v>
    <v>       0.45414001       0.79588852       0.75272697 </v>
    <v>       0.95414002       0.29588849       0.75272697 </v>
    <v>       0.95414006       0.79588852       0.75272697 </v>
    <v>       0.29588249       0.04590050       0.75270499 </v>
    <v>       0.29588248       0.54590053       0.75270499 </v>
    <v>       0.79588244       0.04590050       0.75270499 </v>
    <v>       0.79588248       0.54590053       0.75270499 </v>
    <v>       0.75900101       0.52928335       0.55894016 </v>
    <v>       0.49642691       0.01325071       0.55186300 </v>
    <v>       0.47771449       0.51889213       0.55751654 </v>
    <v>       0.99894451       0.99810893       0.55213143 </v>
    <v>       0.02464124       0.48135476       0.54982585 </v>
    <v>       0.25182944       0.25074257       0.55153298 </v>
    <v>       0.24916382       0.75138079       0.55197820 </v>
    <v>       0.75651648       0.22557710       0.55547157 </v>
    <v>       0.73261924       0.77255964       0.54785439 </v>
    <v>       0.00517861       0.00091088       0.65423370 </v>
    <v>       0.00813531       0.50587153       0.65387553 </v>
    <v>       0.50414871       0.00091905       0.65484368 </v>
    <v>       0.49950859       0.49549118       0.65610804 </v>
    <v>       0.24850329       0.24928071       0.65492073 </v>
    <v>       0.24548230       0.75068993       0.65398664 </v>
    <v>       0.74436890       0.24975111       0.65567472 </v>
    <v>       0.75272703       0.75779276       0.65389226 </v>
    <v>       0.14339607       0.10436251       0.60979396 </v>
    <v>       0.14425428       0.60349554       0.60775089 </v>
    <v>       0.64440372       0.10146036       0.60813042 </v>
    <v>       0.62423569       0.62676602       0.61288272 </v>
    <v>       0.35331858       0.39407099       0.60889980 </v>
    <v>       0.35423324       0.89282573       0.60895951 </v>
    <v>       0.88109751       0.37114916       0.61326945 </v>
    <v>       0.85506826       0.89655758       0.60745371 </v>
    <v>       0.10784736       0.35730967       0.60753643 </v>
    <v>       0.10909049       0.85860136       0.60870134 </v>
    <v>       0.58435001       0.33617475       0.60821387 </v>
    <v>       0.60722762       0.86061623       0.60971424 </v>
    <v>       0.39014708       0.14019488       0.60766994 </v>
    <v>       0.38577397       0.63895674       0.60995897 </v>
    <v>       0.89427676       0.13929091       0.60889107 </v>
    <v>       0.91283143       0.66056980       0.61347353 </v>
    <v>       0.00000000       0.00000000       0.75492797 </v>
    <v>       0.00000000       0.50000000       0.75492797 </v>
    <v>       0.50000000       0.00000000       0.75492797 </v>
    <v>       0.49999999       0.50000000       0.75492797 </v>
    <v>       0.25000050       0.25000000       0.75493902 </v>
    <v>       0.25000051       0.74999997       0.75493902 </v>
    <v>       0.75000047       0.25000000       0.75493902 </v>
    <v>       0.75000046       0.74999997       0.75493902 </v>
    <v>       0.13579050       0.11421000       0.70478299 </v>
    <v>       0.13579050       0.61420998       0.70478299 </v>
    <v>       0.63579045       0.11421000       0.70478299 </v>
    <v>       0.63579049       0.61420998       0.70478299 </v>
    <v>       0.36420952       0.38578999       0.70478299 </v>
    <v>       0.36420950       0.88578996       0.70478299 </v>
    <v>       0.86420954       0.38578999       0.70478299 </v>
    <v>       0.86420953       0.88578996       0.70478299 </v>
    <v>       0.11421799       0.36421899       0.70478098 </v>
    <v>       0.11421799       0.86421899       0.70478098 </v>
    <v>       0.61421800       0.36421899       0.70478098 </v>
    <v>       0.61421799       0.86421899       0.70478098 </v>
    <v>       0.38578201       0.13578149       0.70478202 </v>
    <v>       0.38578200       0.63578149       0.70478202 </v>
    <v>       0.88578199       0.13578149       0.70478202 </v>
    <v>       0.88578203       0.63578149       0.70478202 </v>
    <v>       0.13466700       0.11533200       0.80125603 </v>
    <v>       0.13466699       0.61533199       0.80125603 </v>
    <v>       0.63466699       0.11533200       0.80125603 </v>
    <v>       0.63466698       0.61533199       0.80125603 </v>
    <v>       0.36533300       0.38466799       0.80125603 </v>
    <v>       0.36533299       0.88466796       0.80125603 </v>
    <v>       0.86533295       0.38466799       0.80125603 </v>
    <v>       0.86533294       0.88466796       0.80125603 </v>
    <v>       0.11532850       0.36533700       0.80126500 </v>
    <v>       0.11532850       0.86533698       0.80126500 </v>
    <v>       0.61532850       0.36533700       0.80126500 </v>
    <v>       0.61532849       0.86533698       0.80126500 </v>
    <v>       0.38467151       0.13466300       0.80126500 </v>
    <v>       0.38467150       0.63466297       0.80126500 </v>
    <v>       0.88467149       0.13466300       0.80126500 </v>
    <v>       0.88467153       0.63466297       0.80126500 </v>
    <v>       0.00120816       0.00154112       0.60333784 </v>
    <v>       0.00311788       0.50342789       0.60333039 </v>
    <v>       0.49883938       0.00426674       0.60186507 </v>
    <v>       0.49487040       0.49657026       0.60651145 </v>
    <v>       0.25091476       0.24677744       0.60197984 </v>
    <v>       0.24942768       0.74935748       0.60205084 </v>
    <v>       0.74656630       0.24521611       0.60564958 </v>
    <v>       0.74844373       0.75902954       0.60448138 </v>
    <v>       0.00000050       0.00000050       0.70482896 </v>
    <v>       0.00000050       0.50000048       0.70482896 </v>
    <v>       0.50000048       0.00000050       0.70482896 </v>
    <v>       0.50000046       0.50000048       0.70482896 </v>
    <v>       0.24999999       0.24999947       0.70482499 </v>
    <v>       0.25000001       0.74999950       0.70482499 </v>
    <v>       0.74999999       0.24999947       0.70482499 </v>
    <v>       0.74999998       0.74999950       0.70482499 </v>
    <v>       0.00000000       0.00000000       0.80731797 </v>
    <v>       0.00000000       0.50000000       0.80731797 </v>
    <v>       0.50000000       0.00000000       0.80731797 </v>
    <v>       0.49999999       0.50000000       0.80731797 </v>
    <v>       0.24999999       0.25000000       0.80731797 </v>
    <v>       0.25000001       0.74999997       0.80731797 </v>
    <v>       0.74999999       0.25000000       0.80731797 </v>
    <v>       0.74999998       0.74999997       0.80731797 </v>
   </varray>
  </structure>
  <varray name="primitive_index" >
   <v type="int" >        1 </v>
   <v type="int" >        2 </v>
   <v type="int" >        3 </v>
   <v type="int" >        4 </v>
   <v type="int" >        5 </v>
   <v type="int" >        6 </v>
   <v type="int" >        7 </v>
   <v type="int" >        8 </v>
   <v type="int" >        9 </v>
   <v type="int" >       10 </v>
   <v type="int" >       11 </v>
   <v type="int" >       12 </v>
   <v type="int" >       13 </v>
   <v type="int" >       14 </v>
   <v type="int" >       15 </v>
   <v type="int" >       16 </v>
   <v type="int" >       17 </v>
   <v type="int" >       18 </v>
   <v type="int" >       19 </v>
   <v type="int" >       20 </v>
   <v type="int" >       21 </v>
   <v type="int" >       22 </v>
   <v type="int" >       23 </v>
   <v type="int" >       24 </v>
   <v type="int" >       25 </v>
   <v type="int" >       26 </v>
   <v type="int" >       27 </v>
   <v type="int" >       28 </v>
   <v type="int" >       29 </v>
   <v type="int" >       30 </v>
   <v type="int" >       31 </v>
   <v type="int" >       32 </v>
   <v type="int" >       33 </v>
   <v type="int" >       34 </v>
   <v type="int" >       35 </v>
   <v type="int" >       36 </v>
   <v type="int" >       37 </v>
   <v type="int" >       38 </v>
   <v type="int" >       39 </v>
   <v type="int" >       40 </v>
   <v type="int" >       41 </v>
   <v type="int" >       42 </v>
   <v type="int" >       43 </v>
   <v type="int" >       44 </v>
   <v type="int" >       45 </v>
   <v type="int" >       46 </v>
   <v type="int" >       47 </v>
   <v type="int" >       48 </v>
   <v type="int" >       49 </v>
   <v type="int" >       50 </v>
   <v type="int" >       51 </v>
   <v type="int" >       52 </v>
   <v type="int" >       53 </v>
   <v type="int" >       54 </v>
   <v type="int" >       55 </v>
   <v type="int" >       56 </v>
   <v type="int" >       57 </v>
   <v type="int" >       58 </v>
   <v type="int" >       59 </v>
   <v type="int" >       60 </v>
   <v type="int" >       61 </v>
   <v type="int" >       62 </v>
   <v type="int" >       63 </v>
   <v type="int" >       64 </v>
   <v type="int" >       65 </v>
   <v type="int" >       66 </v>
   <v type="int" >       67 </v>
   <v type="int" >       68 </v>
   <v type="int" >       69 </v>
   <v type="int" >       70 </v>
   <v type="int" >       71 </v>
   <v type="int" >       72 </v>
   <v type="int" >       73 </v>
   <v type="int" >       74 </v>
   <v type="int" >       75 </v>
   <v type="int" >       76 </v>
   <v type="int" >       77 </v>
   <v type="int" >       78 </v>
   <v type="int" >       79 </v>
   <v type="int" >       80 </v>
   <v type="int" >       81 </v>
   <v type="int" >       82 </v>
   <v type="int" >       83 </v>
   <v type="int" >       84 </v>
   <v type="int" >       85 </v>
   <v type="int" >       86 </v>
   <v type="int" >       87 </v>
   <v type="int" >       88 </v>
   <v type="int" >       89 </v>
   <v type="int" >       90 </v>
   <v type="int" >       91 </v>
   <v type="int" >       92 </v>
   <v type="int" >       93 </v>
   <v type="int" >       94 </v>
   <v type="int" >       95 </v>
   <v type="int" >       96 </v>
   <v type="int" >       97 </v>
   <v type="int" >       98 </v>
   <v type="int" >       99 </v>
   <v type="int" >      100 </v>
   <v type="int" >      101 </v>
   <v type="int" >      102 </v>
   <v type="int" >      103 </v>
   <v type="int" >      104 </v>
   <v type="int" >      105 </v>
   <v type="int" >      106 </v>
   <v type="int" >      107 </v>
   <v type="int" >      108 </v>
   <v type="int" >      109 </v>
   <v type="int" >      110 </v>
   <v type="int" >      111 </v>
   <v type="int" >      112 </v>
   <v type="int" >      113 </v>
   <v type="int" >      114 </v>
   <v type="int" >      115 </v>
   <v type="int" >      116 </v>
   <v type="int" >      117 </v>
   <v type="int" >      118 </v>
   <v type="int" >      119 </v>
   <v type="int" >      120 </v>
   <v type="int" >      121 </v>
   <v type="int" >      122 </v>
   <v type="int" >      123 </v>
   <v type="int" >      124 </v>
   <v type="int" >      125 </v>
   <v type="int" >      126 </v>
   <v type="int" >      127 </v>
   <v type="int" >      128 </v>
   <v type="int" >      129 </v>
   <v type="int" >      130 </v>
   <v type="int" >      131 </v>
   <v type="int" >      132 </v>
   <v type="int" >      133 </v>
   <v type="int" >      134 </v>
   <v type="int" >      135 </v>
   <v type="int" >      136 </v>
   <v type="int" >      137 </v>
   <v type="int" >      138 </v>
   <v type="int" >      139 </v>
   <v type="int" >      140 </v>
   <v type="int" >      141 </v>
   <v type="int" >      142 </v>
   <v type="int" >      143 </v>
   <v type="int" >      144 </v>
   <v type="int" >      145 </v>
   <v type="int" >      146 </v>
   <v type="int" >      147 </v>
   <v type="int" >      148 </v>
   <v type="int" >      149 </v>
   <v type="int" >      150 </v>
   <v type="int" >      151 </v>
   <v type="int" >      152 </v>
   <v type="int" >      153 </v>
   <v type="int" >      154 </v>
   <v type="int" >      155 </v>
   <v type="int" >      156 </v>
   <v type="int" >      157 </v>
   <v type="int" >      158 </v>
   <v type="int" >      159 </v>
   <v type="int" >      160 </v>
   <v type="int" >      161 </v>
   <v type="int" >      162 </v>
   <v type="int" >      163 </v>
   <v type="int" >      164 </v>
   <v type="int" >      165 </v>
   <v type="int" >      166 </v>
   <v type="int" >      167 </v>
   <v type="int" >      168 </v>
   <v type="int" >      169 </v>
   <v type="int" >      170 </v>
   <v type="int" >      171 </v>
   <v type="int" >      172 </v>
   <v type="int" >      173 </v>
   <v type="int" >      174 </v>
   <v type="int" >      175 </v>
   <v type="int" >      176 </v>
   <v type="int" >      177 </v>
   <v type="int" >      178 </v>
   <v type="int" >      179 </v>
   <v type="int" >      180 </v>
   <v type="int" >      181 </v>
   <v type="int" >      182 </v>
   <v type="int" >      183 </v>
   <v type="int" >      184 </v>
   <v type="int" >      185 </v>
   <v type="int" >      186 </v>
   <v type="int" >      187 </v>
   <v type="int" >      188 </v>
   <v type="int" >      189 </v>
   <v type="int" >      190 </v>
   <v type="int" >      191 </v>
   <v type="int" >      192 </v>
   <v type="int" >      193 </v>
   <v type="int" >      194 </v>
   <v type="int" >      195 </v>
   <v type="int" >      196 </v>
   <v type="int" >      197 </v>
   <v type="int" >      198 </v>
   <v type="int" >      199 </v>
   <v type="int" >      200 </v>
   <v type="int" >      201 </v>
   <v type="int" >      202 </v>
   <v type="int" >      203 </v>
   <v type="int" >      204 </v>
   <v type="int" >      205 </v>
   <v type="int" >      206 </v>
   <v type="int" >      207 </v>
   <v type="int" >      208 </v>
   <v type="int" >      209 </v>
   <v type="int" >      210 </v>
   <v type="int" >      211 </v>
   <v type="int" >      212 </v>
   <v type="int" >      213 </v>
   <v type="int" >      214 </v>
   <v type="int" >      215 </v>
   <v type="int" >      216 </v>
   <v type="int" >      217 </v>
   <v type="int" >      218 </v>
   <v type="int" >      219 </v>
   <v type="int" >      220 </v>
   <v type="int" >      221 </v>
   <v type="int" >      222 </v>
   <v type="int" >      223 </v>
   <v type="int" >      224 </v>
   <v type="int" >      225 </v>
   <v type="int" >      226 </v>
   <v type="int" >      227 </v>
   <v type="int" >      228 </v>
   <v type="int" >      229 </v>
   <v type="int" >      230 </v>
   <v type="int" >      231 </v>
   <v type="int" >      232 </v>
   <v type="int" >      233 </v>
   <v type="int" >      234 </v>
   <v type="int" >      235 </v>
   <v type="int" >      236 </v>
   <v type="int" >      237 </v>
   <v type="int" >      238 </v>
   <v type="int" >      239 </v>
   <v type="int" >      240 </v>
   <v type="int" >      241 </v>
   <v type="int" >      242 </v>
   <v type="int" >      243 </v>
   <v type="int" >      244 </v>
   <v type="int" >      245 </v>
   <v type="int" >      246 </v>
   <v type="int" >      247 </v>
   <v type="int" >      248 </v>
   <v type="int" >      249 </v>
   <v type="int" >      250 </v>
   <v type="int" >      251 </v>
   <v type="int" >      252 </v>
   <v type="int" >      253 </v>
   <v type="int" >      254 </v>
   <v type="int" >      255 </v>
   <v type="int" >      256 </v>
   <v type="int" >      257 </v>
   <v type="int" >      258 </v>
   <v type="int" >      259 </v>
   <v type="int" >      260 </v>
   <v type="int" >      261 </v>
   <v type="int" >      262 </v>
   <v type="int" >      263 </v>
   <v type="int" >      264 </v>
   <v type="int" >      265 </v>
   <v type="int" >      266 </v>
   <v type="int" >      267 </v>
   <v type="int" >      268 </v>
   <v type="int" >      269 </v>
   <v type="int" >      270 </v>
   <v type="int" >      271 </v>
   <v type="int" >      272 </v>
   <v type="int" >      273 </v>
   <v type="int" >      274 </v>
   <v type="int" >      275 </v>
   <v type="int" >      276 </v>
   <v type="int" >      277 </v>
   <v type="int" >      278 </v>
   <v type="int" >      279 </v>
   <v type="int" >      280 </v>
   <v type="int" >      281 </v>
   <v type="int" >      282 </v>
   <v type="int" >      283 </v>
   <v type="int" >      284 </v>
   <v type="int" >      285 </v>
   <v type="int" >      286 </v>
   <v type="int" >      287 </v>
   <v type="int" >      288 </v>
   <v type="int" >      289 </v>
   <v type="int" >      290 </v>
   <v type="int" >      291 </v>
   <v type="int" >      292 </v>
   <v type="int" >      293 </v>
   <v type="int" >      294 </v>
   <v type="int" >      295 </v>
   <v type="int" >      296 </v>
   <v type="int" >      297 </v>
   <v type="int" >      298 </v>
   <v type="int" >      299 </v>
   <v type="int" >      300 </v>
   <v type="int" >      301 </v>
   <v type="int" >      302 </v>
   <v type="int" >      303 </v>
   <v type="int" >      304 </v>
   <v type="int" >      305 </v>
   <v type="int" >      306 </v>
   <v type="int" >      307 </v>
   <v type="int" >      308 </v>
   <v type="int" >      309 </v>
   <v type="int" >      310 </v>
   <v type="int" >      311 </v>
   <v type="int" >      312 </v>
   <v type="int" >      313 </v>
   <v type="int" >      314 </v>
   <v type="int" >      315 </v>
   <v type="int" >      316 </v>
   <v type="int" >      317 </v>
   <v type="int" >      318 </v>
   <v type="int" >      319 </v>
   <v type="int" >      320 </v>
   <v type="int" >      321 </v>
   <v type="int" >      322 </v>
   <v type="int" >      323 </v>
   <v type="int" >      324 </v>
   <v type="int" >      325 </v>
  </varray>
 </primitive_cell>
 <kpoints>
  <generation param="Gamma">
   <v type="int" name="divisions">       3        3        1 </v>
   <v name="usershift">      0.00000000       0.00000000       0.00000000 </v>
   <v name="genvec1">      0.33333333       0.00000000       0.00000000 </v>
   <v name="genvec2">      0.00000000       0.33333333       0.00000000 </v>
   <v name="genvec3">      0.00000000       0.00000000       1.00000000 </v>
   <v name="shift">      0.00000000       0.00000000       0.00000000 </v>
  </generation>
  <varray name="kpointlist" >
   <v>       0.00000000       0.00000000       0.00000000 </v>
   <v>       0.33333333       0.00000000       0.00000000 </v>
   <v>       0.00000000       0.33333333       0.00000000 </v>
   <v>       0.33333333       0.33333333       0.00000000 </v>
   <v>      -0.33333333       0.33333333       0.00000000 </v>
  </varray>
  <varray name="weights" >
   <v>       0.11111111 </v>
   <v>       0.22222222 </v>
   <v>       0.22222222 </v>
   <v>       0.22222222 </v>
   <v>       0.22222222 </v>
  </varray>
 </kpoints>
 <parameters>
  <separator name="general" >
   <i type="string" name="SYSTEM">PSC</i>
   <i type="logical" name="LCOMPAT"> F  </i>
  </separator>
  <separator name="electronic" >
   <i type="string" name="PREC">normal</i>
   <i name="ENMAX">    500.00000000</i>
   <i name="ENAUG">    644.87300000</i>
   <i name="EDIFF">      0.00010000</i>
   <i type="int" name="IALGO">    38</i>
   <i type="int" name="IWAVPR">    10</i>
   <i type="int" name="NBANDS">   732</i>
   <i type="int" name="NBANDSLOW">    -1</i>
   <i type="int" name="NBANDSHIGH">    -1</i>
   <i name="NELECT">   1134.00000000</i>
   <i type="int" name="TURBO">     0</i>
   <i type="int" name="IRESTART">     0</i>
   <i type="int" name="NREBOOT">     0</i>
   <i type="int" name="NMIN">     0</i>
   <i name="EREF">      0.00000000</i>
   <separator name="electronic smearing" >
    <i type="int" name="ISMEAR">     0</i>
    <i name="SIGMA">      0.05000000</i>
    <i name="KSPACING">      0.50000000</i>
    <i type="logical" name="KGAMMA"> T  </i>
    <i type="logical" name="KBLOWUP"> T  </i>
   </separator>
   <separator name="electronic projectors" >
    <i type="logical" name="LREAL"> T  </i>
    <v name="ROPT">     -0.00050000     -0.00050000     -0.00050000     -0.00050000     -0.00050000</v>
    <i type="int" name="LMAXPAW">  -100</i>
    <i type="int" name="LMAXMIX">     2</i>
    <i type="logical" name="NLSPLINE"> F  </i>
   </separator>
   <separator name="electronic startup" >
    <i type="int" name="ISTART">     0</i>
    <i type="int" name="ICHARG">     1</i>
    <i type="int" name="INIWAV">     1</i>
   </separator>
   <separator name="electronic spin" >
    <i type="int" name="ISPIN">     1</i>
    <i type="logical" name="LNONCOLLINEAR"> F  </i>
    <v name="MAGMOM">      1.00000000      1.00000000      1.00000000      1.00000000      1.00000000      1.00000000      1.00000000      1.00000000      1.00000000      1.00000000      1.00000000      1.00000000      1.00000000      1.00000000      1.00000000      1.00000000      1.00000000      1.00000000      1.00000000      1.00000000
      1.00000000      1.00000000      1.00000000      1.00000000      1.00000000      1.00000000      1.00000000      1.00000000      1.00000000      1.00000000      1.00000000      1.00000000      1.00000000      1.00000000      1.00000000      1.00000000      1.00000000      1.00000000      1.00000000      1.00000000
      1.00000000      1.00000000      1.00000000      1.00000000      1.00000000      1.00000000      1.00000000      1.00000000      1.00000000      1.00000000      1.00000000      1.00000000      1.00000000      1.00000000      1.00000000      1.00000000      1.00000000      1.00000000      1.00000000      1.00000000
      1.00000000      1.00000000      1.00000000      1.00000000      1.00000000      1.00000000      1.00000000      1.00000000      1.00000000      1.00000000      1.00000000      1.00000000      1.00000000      1.00000000      1.00000000      1.00000000      1.00000000      1.00000000      1.00000000      1.00000000
      1.00000000      1.00000000      1.00000000      1.00000000      1.00000000      1.00000000      1.00000000      1.00000000      1.00000000      1.00000000      1.00000000      1.00000000      1.00000000      1.00000000      1.00000000      1.00000000      1.00000000      1.00000000      1.00000000      1.00000000
      1.00000000      1.00000000      1.00000000      1.00000000      1.00000000      1.00000000      1.00000000      1.00000000      1.00000000      1.00000000      1.00000000      1.00000000      1.00000000      1.00000000      1.00000000      1.00000000      1.00000000      1.00000000      1.00000000      1.00000000
      1.00000000      1.00000000      1.00000000      1.00000000      1.00000000      1.00000000      1.00000000      1.00000000      1.00000000      1.00000000      1.00000000      1.00000000      1.00000000      1.00000000      1.00000000      1.00000000      1.00000000      1.00000000      1.00000000      1.00000000
      1.00000000      1.00000000      1.00000000      1.00000000      1.00000000      1.00000000      1.00000000      1.00000000      1.00000000      1.00000000      1.00000000      1.00000000      1.00000000      1.00000000      1.00000000      1.00000000      1.00000000      1.00000000      1.00000000      1.00000000
      1.00000000      1.00000000      1.00000000      1.00000000      1.00000000      1.00000000      1.00000000      1.00000000      1.00000000      1.00000000      1.00000000      1.00000000      1.00000000      1.00000000      1.00000000      1.00000000      1.00000000      1.00000000      1.00000000      1.00000000
      1.00000000      1.00000000      1.00000000      1.00000000      1.00000000      1.00000000      1.00000000      1.00000000      1.00000000      1.00000000      1.00000000      1.00000000      1.00000000      1.00000000      1.00000000      1.00000000      1.00000000      1.00000000      1.00000000      1.00000000
      1.00000000      1.00000000      1.00000000      1.00000000      1.00000000      1.00000000      1.00000000      1.00000000      1.00000000      1.00000000      1.00000000      1.00000000      1.00000000      1.00000000      1.00000000      1.00000000      1.00000000      1.00000000      1.00000000      1.00000000
      1.00000000      1.00000000      1.00000000      1.00000000      1.00000000      1.00000000      1.00000000      1.00000000      1.00000000      1.00000000      1.00000000      1.00000000      1.00000000      1.00000000      1.00000000      1.00000000      1.00000000      1.00000000      1.00000000      1.00000000
      1.00000000      1.00000000      1.00000000      1.00000000      1.00000000      1.00000000      1.00000000      1.00000000      1.00000000      1.00000000      1.00000000      1.00000000      1.00000000      1.00000000      1.00000000      1.00000000      1.00000000      1.00000000      1.00000000      1.00000000
      1.00000000      1.00000000      1.00000000      1.00000000      1.00000000      1.00000000      1.00000000      1.00000000      1.00000000      1.00000000      1.00000000      1.00000000      1.00000000      1.00000000      1.00000000      1.00000000      1.00000000      1.00000000      1.00000000      1.00000000
      1.00000000      1.00000000      1.00000000      1.00000000      1.00000000      1.00000000      1.00000000      1.00000000      1.00000000      1.00000000      1.00000000      1.00000000      1.00000000      1.00000000      1.00000000      1.00000000      1.00000000      1.00000000      1.00000000      1.00000000
      1.00000000      1.00000000      1.00000000      1.00000000      1.00000000      1.00000000      1.00000000      1.00000000      1.00000000      1.00000000      1.00000000      1.00000000      1.00000000      1.00000000      1.00000000      1.00000000      1.00000000      1.00000000      1.00000000      1.00000000
      1.00000000      1.00000000      1.00000000      1.00000000      1.00000000</v>
    <i name="NUPDOWN">     -1.00000000</i>
    <i type="logical" name="LSORBIT"> F  </i>
    <v name="SAXIS">      0.00000000      0.00000000      1.00000000</v>
    <i type="logical" name="LSPIRAL"> F  </i>
    <v name="QSPIRAL">      0.00000000      0.00000000      0.00000000</v>
    <i type="logical" name="LZEROZ"> F  </i>
   </separator>
   <separator name="electronic exchange-correlation" >
    <i type="logical" name="LASPH"> F  </i>
    <i type="logical" name="LMETAGGA"> F  </i>
   </separator>
   <separator name="electronic convergence" >
    <i type="int" name="NELM">   600</i>
    <i type="int" name="NELMDL">     0</i>
    <i type="int" name="NELMIN">     2</i>
    <i name="ENINI">    500.00000000</i>
    <separator name="electronic convergence detail" >
     <i type="logical" name="LDIAG"> T  </i>
     <i type="logical" name="LSUBROT"> F  </i>
     <i name="WEIMIN">      0.00000000</i>
     <i name="EBREAK">      0.00000003</i>
     <i name="DEPER">      0.30000000</i>
     <i type="int" name="NRMM">     4</i>
     <i name="TIME">      0.40000000</i>
    </separator>
   </separator>
   <separator name="electronic mixer" >
    <i name="AMIX">      0.40000000</i>
    <i name="BMIX">      0.01000000</i>
    <i name="AMIN">      0.01000000</i>
    <i name="AMIX_MAG">      1.60000000</i>
    <i name="BMIX_MAG">      0.01000000</i>
    <separator name="electronic mixer details" >
     <i type="int" name="IMIX">     4</i>
     <i type="logical" name="MIXFIRST"> F  </i>
     <i type="int" name="MAXMIX">   -45</i>
     <i name="WC">    100.00000000</i>
     <i type="int" name="INIMIX">     1</i>
     <i type="int" name="MIXPRE">     1</i>
     <i type="int" name="MREMOVE">     5</i>
    </separator>
   </separator>
   <separator name="electronic dipolcorrection" >
    <i type="logical" name="LDIPOL"> T  </i>
    <i type="logical" name="LMONO"> F  </i>
    <i type="int" name="IDIPOL">     3</i>
    <i name="EPSILON">      1.00000000</i>
    <v name="DIPOL">   -100.00000000   -100.00000000   -100.00000000</v>
    <i name="EFIELD">      0.00000000</i>
   </separator>
  </separator>
  <separator name="grids" >
   <i type="int" name="NGX">   100</i>
   <i type="int" name="NGY">   100</i>
   <i type="int" name="NGZ">   350</i>
   <i type="int" name="NGXF">   200</i>
   <i type="int" name="NGYF">   200</i>
   <i type="int" name="NGZF">   700</i>
   <i type="logical" name="ADDGRID"> F  </i>
  </separator>
  <separator name="ionic" >
   <i type="int" name="NSW">     0</i>
   <i type="int" name="IBRION">    -1</i>
   <i type="int" name="MDALGO">     0</i>
   <i type="int" name="ISIF">     2</i>
   <i name="PSTRESS">      0.00000000</i>
   <i name="EDIFFG">      0.00100000</i>
   <i type="int" name="NFREE">     0</i>
   <i name="POTIM">      0.50000000</i>
   <i name="SMASS">     -3.00000000</i>
   <i name="SCALEE">      1.00000000</i>
  </separator>
  <separator name="ionic md" >
   <i name="TEBEG">      0.00010000</i>
   <i name="TEEND">      0.00010000</i>
   <i type="int" name="NBLOCK">     1</i>
   <i type="int" name="KBLOCK">     1</i>
   <i type="int" name="NPACO">   256</i>
   <i name="APACO">     16.00000000</i>
  </separator>
  <separator name="symmetry" >
   <i type="int" name="ISYM">     0</i>
   <i name="SYMPREC">      0.00001000</i>
  </separator>
  <separator name="dos" >
   <i type="int" name="LORBIT">     0</i>
   <v name="RWIGS">     -1.00000000     -1.00000000     -1.00000000     -1.00000000     -1.00000000</v>
   <i type="int" name="NEDOS">   301</i>
   <i name="EMIN">     10.00000000</i>
   <i name="EMAX">    -10.00000000</i>
   <i name="EFERMI">      0.00000000</i>
  </separator>
  <separator name="writing" >
   <i type="int" name="NWRITE">     2</i>
   <i type="logical" name="LWAVE"> F  </i>
   <i type="logical" name="LDOWNSAMPLE"> F  </i>
   <i type="logical" name="LCHARG"> T  </i>
   <i type="logical" name="LPARD"> F  </i>
   <i type="logical" name="LVTOT"> T  </i>
   <i type="logical" name="LVHAR"> F  </i>
   <i type="logical" name="LELF"> F  </i>
   <i type="logical" name="LOPTICS"> F  </i>
   <v name="STM">      0.00000000      0.00000000      0.00000000      0.00000000      0.00000000      0.00000000      0.00000000</v>
  </separator>
  <separator name="performance" >
   <i type="int" name="NPAR">     4</i>
   <i type="int" name="NSIM">     4</i>
   <i type="int" name="NBLK">    -1</i>
   <i type="logical" name="LPLANE"> T  </i>
   <i type="logical" name="LSCALAPACK"> T  </i>
   <i type="logical" name="LSCAAWARE"> F  </i>
   <i type="logical" name="LSCALU"> F  </i>
   <i type="logical" name="LASYNC"> F  </i>
   <i type="logical" name="LORBITALREAL"> F  </i>
  </separator>
  <separator name="miscellaneous" >
   <i type="int" name="IDIOT">     3</i>
   <i type="int" name="PHON_NSTRUCT">    -1</i>
   <i type="logical" name="LMUSIC"> F  </i>
   <v name="POMASS">      1.00000000     12.01100000     14.00100000    126.90400000    207.20000000</v>
   <v name="DARWINR">      0.00000000      0.00000000      0.00000000      0.00000000      0.00000000</v>
   <v name="DARWINV">      1.00000000      1.00000000      1.00000000      1.00000000      1.00000000</v>
   <i type="logical" name="LCORR"> T  </i>
  </separator>
  <i type="logical" name="GGA_COMPAT"> F  </i>
  <i type="logical" name="LBERRY"> F  </i>
  <i type="int" name="ICORELEVEL">     0</i>
  <i type="logical" name="LDAU"> F  </i>
  <i type="int" name="I_CONSTRAINED_M">     0</i>
  <separator name="electronic exchange-correlation" >
   <i type="string" name="GGA">--</i>
   <i type="int" name="VOSKOWN">     0</i>
   <i type="logical" name="LHFCALC"> F  </i>
   <i type="string" name="PRECFOCK"></i>
   <i type="logical" name="LSYMGRAD"> F  </i>
   <i type="logical" name="LHFONE"> F  </i>
   <i type="logical" name="LRHFCALC"> F  </i>
   <i type="logical" name="LTHOMAS"> F  </i>
   <i type="logical" name="LMODELHF"> F  </i>
   <i type="logical" name="LFOCKACE"> F  </i>
   <i name="ENCUT4O">     -1.00000000</i>
   <i type="int" name="EXXOEP">     0</i>
   <i type="int" name="FOURORBIT">     0</i>
   <i name="AEXX">      0.00000000</i>
   <i name="HFALPHA">      0.00000000</i>
   <i name="MCALPHA">      0.00000000</i>
   <i name="ALDAX">      1.00000000</i>
   <i name="AGGAX">      1.00000000</i>
   <i name="ALDAC">      1.00000000</i>
   <i name="AGGAC">      1.00000000</i>
   <i type="int" name="NKREDX">     1</i>
   <i type="int" name="NKREDY">     1</i>
   <i type="int" name="NKREDZ">     1</i>
   <i type="logical" name="SHIFTRED"> F  </i>
   <i type="logical" name="ODDONLY"> F  </i>
   <i type="logical" name="EVENONLY"> F  </i>
   <i type="int" name="LMAXFOCK">     0</i>
   <i type="int" name="NMAXFOCKAE">     0</i>
   <i type="logical" name="LFOCKAEDFT"> F  </i>
   <i name="HFSCREEN">      0.00000000</i>
   <i name="HFSCREENC">      0.00000000</i>
   <i type="int" name="NBANDSGWLOW">     0</i>
  </separator>
  <separator name="vdW DFT" >
   <i type="logical" name="LUSE_VDW"> F  </i>
   <i name="Zab_VDW">     -0.84910000</i>
   <i name="PARAM1">      0.12340000</i>
   <i name="PARAM2">      1.00000000</i>
   <i name="PARAM3">      0.00000000</i>
  </separator>
  <separator name="model GW" >
   <i type="int" name="MODEL_GW">     0</i>
   <i name="MODEL_EPS0">     37.63423484</i>
   <i name="MODEL_ALPHA">      1.00000000</i>
  </separator>
  <separator name="linear response parameters" >
   <i type="logical" name="LEPSILON"> F  </i>
   <i type="logical" name="LRPA"> F  </i>
   <i type="logical" name="LNABLA"> F  </i>
   <i type="logical" name="LVEL"> F  </i>
   <i type="int" name="KINTER">     0</i>
   <i name="CSHIFT">      0.10000000</i>
   <i name="OMEGAMAX">     -1.00000000</i>
   <i name="DEG_THRESHOLD">      0.00200000</i>
   <i name="RTIME">     -0.10000000</i>
   <i name="WPLASMAI">      0.00000000</i>
   <v name="DFIELD">      0.00000000      0.00000000      0.00000000</v>
   <v name="WPLASMA">      0.00000000      0.00000000      0.00000000      0.00000000      0.00000000      0.00000000      0.00000000      0.00000000      0.00000000</v>
  </separator>
  <separator name="orbital magnetization" >
   <i type="logical" name="NUCIND"> F  </i>
   <v name="MAGPOS">      0.00000000      0.00000000      0.00000000</v>
   <i type="logical" name="LNICSALL"> T  </i>
   <i type="logical" name="ORBITALMAG"> F  </i>
   <i type="logical" name="LMAGBLOCH"> F  </i>
   <i type="logical" name="LCHIMAG"> F  </i>
   <i type="logical" name="LGAUGE"> T  </i>
   <i type="int" name="MAGATOM">     0</i>
   <v name="MAGDIPOL">      0.00000000      0.00000000      0.00000000</v>
   <v name="AVECCONST">      0.00000000      0.00000000      0.00000000</v>
  </separator>
  <separator name="response functions" >
   <i type="logical" name="LFINITE_TEMPERATURE"> F  </i>
   <i type="logical" name="LADDER"> F  </i>
   <i type="logical" name="LRPAFORCE"> F  </i>
   <i type="logical" name="LFXC"> F  </i>
   <i type="logical" name="LHARTREE"> T  </i>
   <i type="int" name="IBSE">     0</i>
   <v type="int" name="KPOINT">    -1     0     0     0</v>
   <i type="logical" name="LTCTC"> F  </i>
   <i type="logical" name="LTCTE"> F  </i>
   <i type="logical" name="LTETE"> F  </i>
   <i type="logical" name="LTRIPLET"> F  </i>
   <i type="logical" name="LFXCEPS"> F  </i>
   <i type="logical" name="LFXHEG"> F  </i>
   <i type="int" name="NATURALO">     2</i>
   <i type="logical" name="LHOLEGF"> F  </i>
   <i type="logical" name="L2ORDER"> F  </i>
   <i type="logical" name="LDMP1"> F  </i>
   <i type="logical" name="LMP2LT"> F  </i>
   <i type="logical" name="LSMP2LT"> F  </i>
   <i type="logical" name="LGWLF"> F  </i>
   <i name="ENCUTGW">     -2.00000000</i>
   <i name="ENCUTGWSOFT">     -2.00000000</i>
   <i name="ENCUTLF">     -1.00000000</i>
   <i type="logical" name="LESF_SPLINES"> F  </i>
   <i type="int" name="LMAXMP2">    -1</i>
   <i name="SCISSOR">      0.00000000</i>
   <i type="int" name="NOMEGA">     0</i>
   <i type="int" name="NOMEGAR">     0</i>
   <i type="int" name="NBANDSGW">    -1</i>
   <i type="int" name="NBANDSO">    -1</i>
   <i type="int" name="NBANDSV">    -1</i>
   <i type="int" name="NELM">   600</i>
   <i type="int" name="NELMHF">     1</i>
   <i type="int" name="DIM">     3</i>
   <i type="int" name="IESPILON">     4</i>
   <i type="int" name="ANTIRES">     0</i>
   <i name="OMEGAMAX">    -30.00000000</i>
   <i name="OMEGAMIN">    -30.00000000</i>
   <i name="OMEGATL">   -200.00000000</i>
   <i type="int" name="OMEGAGRID">     0</i>
   <i name="CSHIFT">     -0.10000000</i>
   <i type="logical" name="LSELFENERGY"> F  </i>
   <i type="logical" name="LSPECTRAL"> F  </i>
   <i type="logical" name="LSPECTRALGW"> F  </i>
   <i type="logical" name="LSINGLES"> F  </i>
   <i type="logical" name="LFERMIGW"> F  </i>
   <i type="logical" name="ODDONLYGW"> F  </i>
   <i type="logical" name="EVENONLYGW"> F  </i>
   <i type="int" name="NKREDLFX">     1</i>
   <i type="int" name="NKREDLFY">     1</i>
   <i type="int" name="NKREDLFZ">     1</i>
   <i type="int" name="MAXMEM">  2800</i>
   <i type="int" name="TELESCOPE">     0</i>
   <i type="int" name="NTAUPAR">    -1</i>
   <i type="int" name="NOMEGAPAR">    -1</i>
   <i name="DAMP_NEWTON">      0.80000001</i>
   <i name="LAMBDA">      1.00000000</i>
  </separator>
  <separator name="External order field" >
   <i name="OFIELD_KAPPA">      0.00000000</i>
   <v name="OFIELD_K">      0.00000000      0.00000000      0.00000000</v>
   <i name="OFIELD_Q6_NEAR">      0.00000000</i>
   <i name="OFIELD_Q6_FAR">      0.00000000</i>
   <i name="OFIELD_A">      0.00000000</i>
  </separator>
 </parameters>
 <atominfo>
  <atoms>     325 </atoms>
  <types>       5 </types>
  <array name="atoms" >
   <dimension dim="1">ion</dimension>
   <field type="string">element</field>
   <field type="int">atomtype</field>
   <set>
    <rc><c>H </c><c>   1</c></rc>
    <rc><c>H </c><c>   1</c></rc>
    <rc><c>H </c><c>   1</c></rc>
    <rc><c>H </c><c>   1</c></rc>
    <rc><c>H </c><c>   1</c></rc>
    <rc><c>H </c><c>   1</c></rc>
    <rc><c>H </c><c>   1</c></rc>
    <rc><c>H </c><c>   1</c></rc>
    <rc><c>H </c><c>   1</c></rc>
    <rc><c>H </c><c>   1</c></rc>
    <rc><c>H </c><c>   1</c></rc>
    <rc><c>H </c><c>   1</c></rc>
    <rc><c>H </c><c>   1</c></rc>
    <rc><c>H </c><c>   1</c></rc>
    <rc><c>H </c><c>   1</c></rc>
    <rc><c>H </c><c>   1</c></rc>
    <rc><c>H </c><c>   1</c></rc>
    <rc><c>H </c><c>   1</c></rc>
    <rc><c>H </c><c>   1</c></rc>
    <rc><c>H </c><c>   1</c></rc>
    <rc><c>H </c><c>   1</c></rc>
    <rc><c>H </c><c>   1</c></rc>
    <rc><c>H </c><c>   1</c></rc>
    <rc><c>H </c><c>   1</c></rc>
    <rc><c>H </c><c>   1</c></rc>
    <rc><c>H </c><c>   1</c></rc>
    <rc><c>H </c><c>   1</c></rc>
    <rc><c>H </c><c>   1</c></rc>
    <rc><c>H </c><c>   1</c></rc>
    <rc><c>H </c><c>   1</c></rc>
    <rc><c>H </c><c>   1</c></rc>
    <rc><c>H </c><c>   1</c></rc>
    <rc><c>H </c><c>   1</c></rc>
    <rc><c>H </c><c>   1</c></rc>
    <rc><c>H </c><c>   1</c></rc>
    <rc><c>H </c><c>   1</c></rc>
    <rc><c>H </c><c>   1</c></rc>
    <rc><c>H </c><c>   1</c></rc>
    <rc><c>H </c><c>   1</c></rc>
    <rc><c>H </c><c>   1</c></rc>
    <rc><c>H </c><c>   1</c></rc>
    <rc><c>H </c><c>   1</c></rc>
    <rc><c>H </c><c>   1</c></rc>
    <rc><c>H </c><c>   1</c></rc>
    <rc><c>H </c><c>   1</c></rc>
    <rc><c>H </c><c>   1</c></rc>
    <rc><c>H </c><c>   1</c></rc>
    <rc><c>H </c><c>   1</c></rc>
    <rc><c>H </c><c>   1</c></rc>
    <rc><c>H </c><c>   1</c></rc>
    <rc><c>H </c><c>   1</c></rc>
    <rc><c>H </c><c>   1</c></rc>
    <rc><c>H </c><c>   1</c></rc>
    <rc><c>H </c><c>   1</c></rc>
    <rc><c>H </c><c>   1</c></rc>
    <rc><c>H </c><c>   1</c></rc>
    <rc><c>H </c><c>   1</c></rc>
    <rc><c>H </c><c>   1</c></rc>
    <rc><c>H </c><c>   1</c></rc>
    <rc><c>H </c><c>   1</c></rc>
    <rc><c>H </c><c>   1</c></rc>
    <rc><c>H </c><c>   1</c></rc>
    <rc><c>H </c><c>   1</c></rc>
    <rc><c>H </c><c>   1</c></rc>
    <rc><c>H </c><c>   1</c></rc>
    <rc><c>H </c><c>   1</c></rc>
    <rc><c>H </c><c>   1</c></rc>
    <rc><c>H </c><c>   1</c></rc>
    <rc><c>H </c><c>   1</c></rc>
    <rc><c>H </c><c>   1</c></rc>
    <rc><c>H </c><c>   1</c></rc>
    <rc><c>H </c><c>   1</c></rc>
    <rc><c>H </c><c>   1</c></rc>
    <rc><c>H </c><c>   1</c></rc>
    <rc><c>H </c><c>   1</c></rc>
    <rc><c>H </c><c>   1</c></rc>
    <rc><c>H </c><c>   1</c></rc>
    <rc><c>H </c><c>   1</c></rc>
    <rc><c>H </c><c>   1</c></rc>
    <rc><c>H </c><c>   1</c></rc>
    <rc><c>H </c><c>   1</c></rc>
    <rc><c>H </c><c>   1</c></rc>
    <rc><c>H </c><c>   1</c></rc>
    <rc><c>H </c><c>   1</c></rc>
    <rc><c>H </c><c>   1</c></rc>
    <rc><c>H </c><c>   1</c></rc>
    <rc><c>H </c><c>   1</c></rc>
    <rc><c>H </c><c>   1</c></rc>
    <rc><c>H </c><c>   1</c></rc>
    <rc><c>H </c><c>   1</c></rc>
    <rc><c>H </c><c>   1</c></rc>
    <rc><c>H </c><c>   1</c></rc>
    <rc><c>H </c><c>   1</c></rc>
    <rc><c>H </c><c>   1</c></rc>
    <rc><c>H </c><c>   1</c></rc>
    <rc><c>H </c><c>   1</c></rc>
    <rc><c>H </c><c>   1</c></rc>
    <rc><c>H </c><c>   1</c></rc>
    <rc><c>H </c><c>   1</c></rc>
    <rc><c>H </c><c>   1</c></rc>
    <rc><c>H </c><c>   1</c></rc>
    <rc><c>H </c><c>   1</c></rc>
    <rc><c>H </c><c>   1</c></rc>
    <rc><c>H </c><c>   1</c></rc>
    <rc><c>H </c><c>   1</c></rc>
    <rc><c>H </c><c>   1</c></rc>
    <rc><c>H </c><c>   1</c></rc>
    <rc><c>H </c><c>   1</c></rc>
    <rc><c>H </c><c>   1</c></rc>
    <rc><c>H </c><c>   1</c></rc>
    <rc><c>H </c><c>   1</c></rc>
    <rc><c>H </c><c>   1</c></rc>
    <rc><c>H </c><c>   1</c></rc>
    <rc><c>H </c><c>   1</c></rc>
    <rc><c>H </c><c>   1</c></rc>
    <rc><c>H </c><c>   1</c></rc>
    <rc><c>H </c><c>   1</c></rc>
    <rc><c>H </c><c>   1</c></rc>
    <rc><c>H </c><c>   1</c></rc>
    <rc><c>H </c><c>   1</c></rc>
    <rc><c>H </c><c>   1</c></rc>
    <rc><c>H </c><c>   1</c></rc>
    <rc><c>H </c><c>   1</c></rc>
    <rc><c>H </c><c>   1</c></rc>
    <rc><c>H </c><c>   1</c></rc>
    <rc><c>H </c><c>   1</c></rc>
    <rc><c>H </c><c>   1</c></rc>
    <rc><c>H </c><c>   1</c></rc>
    <rc><c>H </c><c>   1</c></rc>
    <rc><c>H </c><c>   1</c></rc>
    <rc><c>H </c><c>   1</c></rc>
    <rc><c>H </c><c>   1</c></rc>
    <rc><c>H </c><c>   1</c></rc>
    <rc><c>H </c><c>   1</c></rc>
    <rc><c>H </c><c>   1</c></rc>
    <rc><c>H </c><c>   1</c></rc>
    <rc><c>H </c><c>   1</c></rc>
    <rc><c>H </c><c>   1</c></rc>
    <rc><c>H </c><c>   1</c></rc>
    <rc><c>H </c><c>   1</c></rc>
    <rc><c>H </c><c>   1</c></rc>
    <rc><c>H </c><c>   1</c></rc>
    <rc><c>H </c><c>   1</c></rc>
    <rc><c>C </c><c>   2</c></rc>
    <rc><c>C </c><c>   2</c></rc>
    <rc><c>C </c><c>   2</c></rc>
    <rc><c>C </c><c>   2</c></rc>
    <rc><c>C </c><c>   2</c></rc>
    <rc><c>C </c><c>   2</c></rc>
    <rc><c>C </c><c>   2</c></rc>
    <rc><c>C </c><c>   2</c></rc>
    <rc><c>C </c><c>   2</c></rc>
    <rc><c>C </c><c>   2</c></rc>
    <rc><c>C </c><c>   2</c></rc>
    <rc><c>C </c><c>   2</c></rc>
    <rc><c>C </c><c>   2</c></rc>
    <rc><c>C </c><c>   2</c></rc>
    <rc><c>C </c><c>   2</c></rc>
    <rc><c>C </c><c>   2</c></rc>
    <rc><c>C </c><c>   2</c></rc>
    <rc><c>C </c><c>   2</c></rc>
    <rc><c>C </c><c>   2</c></rc>
    <rc><c>C </c><c>   2</c></rc>
    <rc><c>C </c><c>   2</c></rc>
    <rc><c>C </c><c>   2</c></rc>
    <rc><c>C </c><c>   2</c></rc>
    <rc><c>C </c><c>   2</c></rc>
    <rc><c>C </c><c>   2</c></rc>
    <rc><c>C </c><c>   2</c></rc>
    <rc><c>C </c><c>   2</c></rc>
    <rc><c>C </c><c>   2</c></rc>
    <rc><c>C </c><c>   2</c></rc>
    <rc><c>C </c><c>   2</c></rc>
    <rc><c>C </c><c>   2</c></rc>
    <rc><c>C </c><c>   2</c></rc>
    <rc><c>C </c><c>   2</c></rc>
    <rc><c>C </c><c>   2</c></rc>
    <rc><c>C </c><c>   2</c></rc>
    <rc><c>C </c><c>   2</c></rc>
    <rc><c>C </c><c>   2</c></rc>
    <rc><c>C </c><c>   2</c></rc>
    <rc><c>C </c><c>   2</c></rc>
    <rc><c>N </c><c>   3</c></rc>
    <rc><c>N </c><c>   3</c></rc>
    <rc><c>N </c><c>   3</c></rc>
    <rc><c>N </c><c>   3</c></rc>
    <rc><c>N </c><c>   3</c></rc>
    <rc><c>N </c><c>   3</c></rc>
    <rc><c>N </c><c>   3</c></rc>
    <rc><c>N </c><c>   3</c></rc>
    <rc><c>N </c><c>   3</c></rc>
    <rc><c>N </c><c>   3</c></rc>
    <rc><c>N </c><c>   3</c></rc>
    <rc><c>N </c><c>   3</c></rc>
    <rc><c>N </c><c>   3</c></rc>
    <rc><c>N </c><c>   3</c></rc>
    <rc><c>N </c><c>   3</c></rc>
    <rc><c>N </c><c>   3</c></rc>
    <rc><c>N </c><c>   3</c></rc>
    <rc><c>N </c><c>   3</c></rc>
    <rc><c>N </c><c>   3</c></rc>
    <rc><c>N </c><c>   3</c></rc>
    <rc><c>N </c><c>   3</c></rc>
    <rc><c>N </c><c>   3</c></rc>
    <rc><c>N </c><c>   3</c></rc>
    <rc><c>N </c><c>   3</c></rc>
    <rc><c>N </c><c>   3</c></rc>
    <rc><c>N </c><c>   3</c></rc>
    <rc><c>N </c><c>   3</c></rc>
    <rc><c>N </c><c>   3</c></rc>
    <rc><c>N </c><c>   3</c></rc>
    <rc><c>N </c><c>   3</c></rc>
    <rc><c>N </c><c>   3</c></rc>
    <rc><c>N </c><c>   3</c></rc>
    <rc><c>N </c><c>   3</c></rc>
    <rc><c>N </c><c>   3</c></rc>
    <rc><c>N </c><c>   3</c></rc>
    <rc><c>N </c><c>   3</c></rc>
    <rc><c>N </c><c>   3</c></rc>
    <rc><c>N </c><c>   3</c></rc>
    <rc><c>N </c><c>   3</c></rc>
    <rc><c>N </c><c>   3</c></rc>
    <rc><c>N </c><c>   3</c></rc>
    <rc><c>N </c><c>   3</c></rc>
    <rc><c>N </c><c>   3</c></rc>
    <rc><c>N </c><c>   3</c></rc>
    <rc><c>N </c><c>   3</c></rc>
    <rc><c>N </c><c>   3</c></rc>
    <rc><c>N </c><c>   3</c></rc>
    <rc><c>I </c><c>   4</c></rc>
    <rc><c>I </c><c>   4</c></rc>
    <rc><c>I </c><c>   4</c></rc>
    <rc><c>I </c><c>   4</c></rc>
    <rc><c>I </c><c>   4</c></rc>
    <rc><c>I </c><c>   4</c></rc>
    <rc><c>I </c><c>   4</c></rc>
    <rc><c>I </c><c>   4</c></rc>
    <rc><c>I </c><c>   4</c></rc>
    <rc><c>I </c><c>   4</c></rc>
    <rc><c>I </c><c>   4</c></rc>
    <rc><c>I </c><c>   4</c></rc>
    <rc><c>I </c><c>   4</c></rc>
    <rc><c>I </c><c>   4</c></rc>
    <rc><c>I </c><c>   4</c></rc>
    <rc><c>I </c><c>   4</c></rc>
    <rc><c>I </c><c>   4</c></rc>
    <rc><c>I </c><c>   4</c></rc>
    <rc><c>I </c><c>   4</c></rc>
    <rc><c>I </c><c>   4</c></rc>
    <rc><c>I </c><c>   4</c></rc>
    <rc><c>I </c><c>   4</c></rc>
    <rc><c>I </c><c>   4</c></rc>
    <rc><c>I </c><c>   4</c></rc>
    <rc><c>I </c><c>   4</c></rc>
    <rc><c>I </c><c>   4</c></rc>
    <rc><c>I </c><c>   4</c></rc>
    <rc><c>I </c><c>   4</c></rc>
    <rc><c>I </c><c>   4</c></rc>
    <rc><c>I </c><c>   4</c></rc>
    <rc><c>I </c><c>   4</c></rc>
    <rc><c>I </c><c>   4</c></rc>
    <rc><c>I </c><c>   4</c></rc>
    <rc><c>I </c><c>   4</c></rc>
    <rc><c>I </c><c>   4</c></rc>
    <rc><c>I </c><c>   4</c></rc>
    <rc><c>I </c><c>   4</c></rc>
    <rc><c>I </c><c>   4</c></rc>
    <rc><c>I </c><c>   4</c></rc>
    <rc><c>I </c><c>   4</c></rc>
    <rc><c>I </c><c>   4</c></rc>
    <rc><c>I </c><c>   4</c></rc>
    <rc><c>I </c><c>   4</c></rc>
    <rc><c>I </c><c>   4</c></rc>
    <rc><c>I </c><c>   4</c></rc>
    <rc><c>I </c><c>   4</c></rc>
    <rc><c>I </c><c>   4</c></rc>
    <rc><c>I </c><c>   4</c></rc>
    <rc><c>I </c><c>   4</c></rc>
    <rc><c>I </c><c>   4</c></rc>
    <rc><c>I </c><c>   4</c></rc>
    <rc><c>I </c><c>   4</c></rc>
    <rc><c>I </c><c>   4</c></rc>
    <rc><c>I </c><c>   4</c></rc>
    <rc><c>I </c><c>   4</c></rc>
    <rc><c>I </c><c>   4</c></rc>
    <rc><c>I </c><c>   4</c></rc>
    <rc><c>I </c><c>   4</c></rc>
    <rc><c>I </c><c>   4</c></rc>
    <rc><c>I </c><c>   4</c></rc>
    <rc><c>I </c><c>   4</c></rc>
    <rc><c>I </c><c>   4</c></rc>
    <rc><c>I </c><c>   4</c></rc>
    <rc><c>I </c><c>   4</c></rc>
    <rc><c>I </c><c>   4</c></rc>
    <rc><c>I </c><c>   4</c></rc>
    <rc><c>I </c><c>   4</c></rc>
    <rc><c>I </c><c>   4</c></rc>
    <rc><c>I </c><c>   4</c></rc>
    <rc><c>I </c><c>   4</c></rc>
    <rc><c>I </c><c>   4</c></rc>
    <rc><c>I </c><c>   4</c></rc>
    <rc><c>Pb</c><c>   5</c></rc>
    <rc><c>Pb</c><c>   5</c></rc>
    <rc><c>Pb</c><c>   5</c></rc>
    <rc><c>Pb</c><c>   5</c></rc>
    <rc><c>Pb</c><c>   5</c></rc>
    <rc><c>Pb</c><c>   5</c></rc>
    <rc><c>Pb</c><c>   5</c></rc>
    <rc><c>Pb</c><c>   5</c></rc>
    <rc><c>Pb</c><c>   5</c></rc>
    <rc><c>Pb</c><c>   5</c></rc>
    <rc><c>Pb</c><c>   5</c></rc>
    <rc><c>Pb</c><c>   5</c></rc>
    <rc><c>Pb</c><c>   5</c></rc>
    <rc><c>Pb</c><c>   5</c></rc>
    <rc><c>Pb</c><c>   5</c></rc>
    <rc><c>Pb</c><c>   5</c></rc>
    <rc><c>Pb</c><c>   5</c></rc>
    <rc><c>Pb</c><c>   5</c></rc>
    <rc><c>Pb</c><c>   5</c></rc>
    <rc><c>Pb</c><c>   5</c></rc>
    <rc><c>Pb</c><c>   5</c></rc>
    <rc><c>Pb</c><c>   5</c></rc>
    <rc><c>Pb</c><c>   5</c></rc>
    <rc><c>Pb</c><c>   5</c></rc>
   </set>
  </array>
  <array name="atomtypes" >
   <dimension dim="1">type</dimension>
   <field type="int">atomspertype</field>
   <field type="string">element</field>
   <field>mass</field>
   <field>valence</field>
   <field type="string">pseudopotential</field>
   <set>
    <rc><c> 143</c><c>H </c><c>      1.00000000</c><c>      1.00000000</c><c>  PAW_PBE H 15Jun2001                   </c></rc>
    <rc><c>  39</c><c>C </c><c>     12.01100000</c><c>      4.00000000</c><c>  PAW_PBE C 08Apr2002                   </c></rc>
    <rc><c>  47</c><c>N </c><c>     14.00100000</c><c>      5.00000000</c><c>  PAW_PBE N 08Apr2002                   </c></rc>
    <rc><c>  72</c><c>I </c><c>    126.90400000</c><c>      7.00000000</c><c>  PAW_PBE I 08Apr2002                   </c></rc>
    <rc><c>  24</c><c>Pb</c><c>    207.20000000</c><c>      4.00000000</c><c>  PAW_PBE Pb 08Apr2002                  </c></rc>
   </set>
  </array>
 </atominfo>
 <structure name="initialpos" >
  <crystal>
   <varray name="basis" >
    <v>      18.06080055       0.00000000       0.00000000 </v>
    <v>      -0.00491865      18.06279945       0.00000000 </v>
    <v>       0.00000000       0.00000000      62.48749924 </v>
   </varray>
   <i name="volume">  20385.21054034 </i>
   <varray name="rec_basis" >
    <v>       0.05536853       0.00001508      -0.00000000 </v>
    <v>       0.00000000       0.05536240       0.00000000 </v>
    <v>       0.00000000      -0.00000000       0.01600320 </v>
   </varray>
  </crystal>
  <varray name="positions" >
   <v>       0.44715780       0.30497149       0.58084683 </v>
   <v>       0.44344390       0.81447500       0.58063023 </v>
   <v>       0.96496047       0.31160483       0.57772255 </v>
   <v>       0.96909733       0.81152234       0.58184416 </v>
   <v>       0.31465911       0.02919950       0.58204482 </v>
   <v>       0.30161977       0.55104250       0.58096068 </v>
   <v>       0.77915044       0.06148215       0.58289399 </v>
   <v>       0.07289112       0.14209913       0.56180872 </v>
   <v>       0.06543437       0.65653801       0.55574897 </v>
   <v>       0.59057063       0.18645738       0.55645633 </v>
   <v>       0.56530071       0.66656804       0.55915939 </v>
   <v>       0.33905348       0.06711208       0.55698323 </v>
   <v>       0.31269306       0.59269825       0.55567126 </v>
   <v>       0.82624102       0.08437593       0.55909315 </v>
   <v>       0.03768657       0.18825670       0.58534974 </v>
   <v>       0.04810292       0.69275285       0.58119987 </v>
   <v>       0.56881192       0.23510574       0.58033965 </v>
   <v>       0.52046120       0.69620719       0.58227741 </v>
   <v>       0.21227463       0.44064617       0.58232991 </v>
   <v>       0.19620576       0.95013524       0.58245634 </v>
   <v>       0.69213260       0.94991184       0.58105134 </v>
   <v>       0.39539364       0.30052764       0.55758296 </v>
   <v>       0.44433959       0.85937649       0.55593120 </v>
   <v>       0.95829605       0.33417567       0.55101530 </v>
   <v>       0.93947502       0.84158577       0.55733437 </v>
   <v>       0.16978852       0.41625946       0.55790907 </v>
   <v>       0.14871048       0.94288529       0.55791115 </v>
   <v>       0.68804337       0.90408219       0.55601001 </v>
   <v>       0.48291360       0.22369331       0.53926936 </v>
   <v>       0.52036543       0.77128083       0.53946215 </v>
   <v>       0.02214195       0.23323256       0.53826837 </v>
   <v>       0.99776435       0.74548788       0.53798730 </v>
   <v>       0.22963925       0.50985305       0.53886071 </v>
   <v>       0.23617264       0.01670922       0.53961061 </v>
   <v>       0.77152688       0.98528990       0.53994283 </v>
   <v>       0.45574059       0.30709958       0.67578897 </v>
   <v>       0.44405511       0.80440922       0.67516025 </v>
   <v>       0.94613602       0.29713782       0.67591778 </v>
   <v>       0.94534184       0.80479475       0.67605142 </v>
   <v>       0.29615830       0.04943345       0.67559851 </v>
   <v>       0.29908952       0.55769010       0.67496819 </v>
   <v>       0.80494774       0.04798192       0.67429191 </v>
   <v>       0.80275105       0.57049935       0.67457688 </v>
   <v>       0.08212138       0.17222566       0.64956437 </v>
   <v>       0.08348929       0.67882677       0.65256473 </v>
   <v>       0.57064549       0.16284943       0.65013437 </v>
   <v>       0.57075251       0.66865387       0.65005311 </v>
   <v>       0.18027414       0.41694502       0.64873559 </v>
   <v>       0.16921224       0.91921298       0.64782134 </v>
   <v>       0.68160868       0.41848209       0.65497347 </v>
   <v>       0.66173969       0.92805571       0.64925358 </v>
   <v>       0.05248196       0.19874341       0.67508205 </v>
   <v>       0.04279400       0.70171051       0.67721858 </v>
   <v>       0.55594774       0.20341092       0.67519541 </v>
   <v>       0.54498841       0.69646421       0.67595075 </v>
   <v>       0.20530300       0.44550020       0.67446858 </v>
   <v>       0.19341773       0.94494848       0.67404473 </v>
   <v>       0.69962564       0.46196744       0.67856474 </v>
   <v>       0.69159751       0.95502694       0.67488682 </v>
   <v>       0.41637080       0.32410472       0.65083641 </v>
   <v>       0.41770895       0.83198937       0.64971754 </v>
   <v>       0.91786804       0.32378463       0.65004933 </v>
   <v>       0.92909840       0.83976605       0.65062665 </v>
   <v>       0.32625698       0.07881619       0.65050816 </v>
   <v>       0.32536385       0.58763690       0.64929619 </v>
   <v>       0.83547574       0.06969307       0.64859890 </v>
   <v>       0.83395682       0.58071338       0.64813745 </v>
   <v>       0.00095451       0.24764607       0.63205598 </v>
   <v>       0.01704413       0.76461702       0.63406249 </v>
   <v>       0.48228979       0.23418593       0.63302780 </v>
   <v>       0.49236034       0.75213142       0.63208266 </v>
   <v>       0.25044502       0.00063258       0.63129417 </v>
   <v>       0.25492796       0.50535026       0.63116854 </v>
   <v>       0.74724333       0.99483793       0.63106720 </v>
   <v>       0.76150756       0.48627756       0.63432316 </v>
   <v>       0.44874502       0.30128397       0.76888902 </v>
   <v>       0.44874501       0.80128391       0.76888902 </v>
   <v>       0.94874497       0.30128397       0.76888902 </v>
   <v>       0.94874501       0.80128391       0.76888902 </v>
   <v>       0.30127600       0.05129450       0.76887296 </v>
   <v>       0.30127601       0.55129450       0.76887296 </v>
   <v>       0.80127594       0.05129450       0.76887296 </v>
   <v>       0.80127598       0.55129450       0.76887296 </v>
   <v>       0.07877100       0.17118050       0.74344197 </v>
   <v>       0.07877101       0.67118045       0.74344197 </v>
   <v>       0.57877100       0.17118050       0.74344197 </v>
   <v>       0.57877099       0.67118045       0.74344197 </v>
   <v>       0.17119950       0.42117448       0.74342103 </v>
   <v>       0.17119950       0.92117451       0.74342103 </v>
   <v>       0.67119951       0.42117448       0.74342103 </v>
   <v>       0.67119950       0.92117451       0.74342103 </v>
   <v>       0.05125600       0.19871499       0.76888902 </v>
   <v>       0.05125600       0.69871493       0.76888902 </v>
   <v>       0.55125603       0.19871499       0.76888902 </v>
   <v>       0.55125602       0.69871493       0.76888902 </v>
   <v>       0.19872349       0.44870397       0.76887205 </v>
   <v>       0.19872349       0.94870397       0.76887205 </v>
   <v>       0.69872352       0.44870397       0.76887205 </v>
   <v>       0.69872351       0.94870397       0.76887205 </v>
   <v>       0.42123152       0.32881747       0.74344197 </v>
   <v>       0.42123151       0.82881744       0.74344197 </v>
   <v>       0.92123147       0.32881747       0.74344197 </v>
   <v>       0.92123151       0.82881744       0.74344197 </v>
   <v>       0.32880050       0.07882500       0.74342103 </v>
   <v>       0.32880049       0.57882496       0.74342103 </v>
   <v>       0.82880048       0.07882500       0.74342103 </v>
   <v>       0.82880052       0.57882496       0.74342103 </v>
   <v>       0.00000350       0.25000148       0.72582199 </v>
   <v>       0.00000350       0.75000145       0.72582199 </v>
   <v>       0.50000351       0.25000148       0.72582199 </v>
   <v>       0.50000350       0.75000145       0.72582199 </v>
   <v>       0.25000050       0.00000000       0.72580398 </v>
   <v>       0.25000052       0.50000000       0.72580398 </v>
   <v>       0.75000050       0.00000000       0.72580398 </v>
   <v>       0.75000049       0.50000000       0.72580398 </v>
   <v>       0.78300644       0.56546788       0.52741811 </v>
   <v>       0.73157375       0.47928778       0.52935710 </v>
   <v>       0.87206893       0.50582074       0.54929639 </v>
   <v>       0.84987103       0.48032816       0.57625887 </v>
   <v>       0.74043890       0.64045900       0.56776499 </v>
   <v>       0.79978197       0.59225501       0.58536641 </v>
   <v>       0.64857418       0.53746715       0.57242223 </v>
   <v>       0.67356317       0.44857562       0.56170616 </v>
   <v>       0.62216337       0.54614218       0.54102868 </v>
   <v>       0.67000368       0.63178571       0.54395474 </v>
   <v>       0.62320039       0.65866312       0.51109362 </v>
   <v>       0.70022311       0.60720795       0.50281401 </v>
   <v>       0.82704593       0.39316242       0.53597329 </v>
   <v>       0.75854665       0.39009102       0.55576686 </v>
   <v>       0.84771342       0.36356609       0.56191543 </v>
   <v>       0.85938972       0.69167662       0.56019121 </v>
   <v>       0.84882710       0.62705498       0.54062553 </v>
   <v>       0.90387899       0.60427715       0.56258939 </v>
   <v>       0.76640206       0.50426759       0.59989135 </v>
   <v>       0.73978149       0.41147193       0.59319726 </v>
   <v>       0.67404978       0.47134236       0.60577692 </v>
   <v>       0.54421328       0.54396048       0.51083191 </v>
   <v>       0.57930547       0.56337572       0.48422951 </v>
   <v>       0.72363730       0.49956315       0.47838978 </v>
   <v>       0.55419116       0.42185644       0.52211462 </v>
   <v>       0.78420303       0.37473650       0.47991383 </v>
   <v>       0.61712156       0.29964114       0.52411270 </v>
   <v>       0.73389800       0.27470489       0.50371076 </v>
   <v>       0.01538369       0.23775426       0.55558073 </v>
   <v>       0.00275928       0.74871446       0.55502275 </v>
   <v>       0.49176758       0.24359094       0.55549892 </v>
   <v>       0.50464696       0.76388197       0.55627593 </v>
   <v>       0.24140094       0.50497877       0.55611904 </v>
   <v>       0.24416507       0.00568970       0.55682573 </v>
   <v>       0.75697059       0.99366907       0.55692853 </v>
   <v>       0.00021713       0.24774649       0.64934026 </v>
   <v>       0.00584064       0.76057688       0.65097719 </v>
   <v>       0.49258744       0.24371486       0.65011025 </v>
   <v>       0.49437459       0.75040498       0.64939460 </v>
   <v>       0.25239806       0.50095046       0.64843200 </v>
   <v>       0.24862776       0.99989196       0.64854988 </v>
   <v>       0.75774701       0.49932730       0.65146483 </v>
   <v>       0.74952217       0.99967703       0.64829019 </v>
   <v>       0.49998898       0.24999498       0.74327702 </v>
   <v>       0.49998903       0.74999496       0.74327702 </v>
   <v>       0.99998898       0.24999498       0.74327702 </v>
   <v>       0.99998903       0.74999496       0.74327702 </v>
   <v>       0.25000050       0.00000100       0.74325596 </v>
   <v>       0.25000052       0.50000100       0.74325596 </v>
   <v>       0.75000050       0.00000100       0.74325596 </v>
   <v>       0.75000049       0.50000100       0.74325596 </v>
   <v>       0.63197779       0.46912749       0.49988548 </v>
   <v>       0.69720251       0.45372804       0.48787685 </v>
   <v>       0.60348610       0.41035557       0.51255509 </v>
   <v>       0.73157129       0.38572275       0.48931860 </v>
   <v>       0.63907500       0.34246190       0.51360102 </v>
   <v>       0.70392587       0.32940196       0.50194222 </v>
   <v>       0.73561869       0.53619019       0.53577861 </v>
   <v>       0.83042845       0.47914174       0.55971968 </v>
   <v>       0.78577448       0.60104699       0.56856459 </v>
   <v>       0.69462094       0.49500829       0.57131269 </v>
   <v>       0.66710114       0.57930331       0.53408693 </v>
   <v>       0.64581124       0.60339786       0.51159390 </v>
   <v>       0.81679673       0.40352292       0.55287334 </v>
   <v>       0.85289218       0.63192763       0.55784113 </v>
   <v>       0.71914108       0.46873674       0.59364132 </v>
   <v>       0.59589265       0.54535476       0.50063157 </v>
   <v>       0.04376240       0.18761835       0.56819494 </v>
   <v>       0.04064564       0.69647398       0.56452447 </v>
   <v>       0.55321201       0.21976822       0.56460890 </v>
   <v>       0.53261391       0.70599319       0.56647481 </v>
   <v>       0.44280222       0.28480792       0.56500760 </v>
   <v>       0.46121219       0.81488170       0.56450604 </v>
   <v>       0.97659419       0.29586565       0.56176867 </v>
   <v>       0.96894964       0.80280866       0.56522243 </v>
   <v>       0.20686281       0.45080896       0.56656614 </v>
   <v>       0.19442326       0.96348769       0.56682437 </v>
   <v>       0.70962627       0.94840312       0.56575006 </v>
   <v>       0.30164022       0.03457482       0.56640186 </v>
   <v>       0.28718477       0.55096509       0.56536625 </v>
   <v>       0.78957412       0.04866872       0.56750645 </v>
   <v>       0.04938089       0.20212617       0.65878441 </v>
   <v>       0.04812087       0.70940176       0.66139156 </v>
   <v>       0.54342402       0.19959017       0.65906261 </v>
   <v>       0.53734948       0.70459944       0.65949989 </v>
   <v>       0.21119774       0.45179274       0.65777915 </v>
   <v>       0.20112463       0.95216999       0.65758471 </v>
   <v>       0.71032181       0.45778195       0.66236722 </v>
   <v>       0.69808356       0.95883754       0.65829634 </v>
   <v>       0.45315482       0.29378896       0.65933689 </v>
   <v>       0.45002468       0.79810660       0.65849236 </v>
   <v>       0.95380078       0.29027839       0.65924141 </v>
   <v>       0.95728260       0.80395606       0.66006384 </v>
   <v>       0.29238765       0.04477477       0.65880023 </v>
   <v>       0.29456214       0.55164782       0.65838993 </v>
   <v>       0.79888324       0.04095431       0.65759686 </v>
   <v>       0.79896069       0.55218778       0.65906963 </v>
   <v>       0.04586250       0.20411950       0.75272599 </v>
   <v>       0.04586250       0.70411946       0.75272599 </v>
   <v>       0.54586251       0.20411950       0.75272599 </v>
   <v>       0.54586250       0.70411946       0.75272599 </v>
   <v>       0.20411900       0.45410100       0.75270499 </v>
   <v>       0.20411899       0.95410095       0.75270499 </v>
   <v>       0.70411898       0.45410100       0.75270499 </v>
   <v>       0.70411896       0.95410095       0.75270499 </v>
   <v>       0.45414002       0.29588849       0.75272697 </v>
   <v>       0.45414001       0.79588852       0.75272697 </v>
   <v>       0.95414002       0.29588849       0.75272697 </v>
[...]
   <v>       0.59057063       0.18645738       0.55645633 </v>
   <v>       0.56530071       0.66656804       0.55915939 </v>
   <v>       0.33905348       0.06711208       0.55698323 </v>
   <v>       0.31269306       0.59269825       0.55567126 </v>
   <v>       0.82624102       0.08437593       0.55909315 </v>
   <v>       0.03768657       0.18825670       0.58534974 </v>
   <v>       0.04810292       0.69275285       0.58119987 </v>
   <v>       0.56881192       0.23510574       0.58033965 </v>
   <v>       0.52046120       0.69620719       0.58227741 </v>
   <v>       0.21227463       0.44064617       0.58232991 </v>
   <v>       0.19620576       0.95013524       0.58245634 </v>
   <v>       0.69213260       0.94991184       0.58105134 </v>
   <v>       0.39539364       0.30052764       0.55758296 </v>
   <v>       0.44433959       0.85937649       0.55593120 </v>
   <v>       0.95829605       0.33417567       0.55101530 </v>
   <v>       0.93947502       0.84158577       0.55733437 </v>
   <v>       0.16978852       0.41625946       0.55790907 </v>
   <v>       0.14871048       0.94288529       0.55791115 </v>
   <v>       0.68804337       0.90408219       0.55601001 </v>
   <v>       0.48291360       0.22369331       0.53926936 </v>
   <v>       0.52036543       0.77128083       0.53946215 </v>
   <v>       0.02214195       0.23323256       0.53826837 </v>
   <v>       0.99776435       0.74548788       0.53798730 </v>
   <v>       0.22963925       0.50985305       0.53886071 </v>
   <v>       0.23617264       0.01670922       0.53961061 </v>
   <v>       0.77152688       0.98528990       0.53994283 </v>
   <v>       0.45574059       0.30709958       0.67578897 </v>
   <v>       0.44405511       0.80440922       0.67516025 </v>
   <v>       0.94613602       0.29713782       0.67591778 </v>
   <v>       0.94534184       0.80479475       0.67605142 </v>
   <v>       0.29615830       0.04943345       0.67559851 </v>
   <v>       0.29908952       0.55769010       0.67496819 </v>
   <v>       0.80494774       0.04798192       0.67429191 </v>
   <v>       0.80275105       0.57049935       0.67457688 </v>
   <v>       0.08212138       0.17222566       0.64956437 </v>
   <v>       0.08348929       0.67882677       0.65256473 </v>
   <v>       0.57064549       0.16284943       0.65013437 </v>
   <v>       0.57075251       0.66865387       0.65005311 </v>
   <v>       0.18027414       0.41694502       0.64873559 </v>
   <v>       0.16921224       0.91921298       0.64782134 </v>
   <v>       0.68160868       0.41848209       0.65497347 </v>
   <v>       0.66173969       0.92805571       0.64925358 </v>
   <v>       0.05248196       0.19874341       0.67508205 </v>
   <v>       0.04279400       0.70171051       0.67721858 </v>
   <v>       0.55594774       0.20341092       0.67519541 </v>
   <v>       0.54498841       0.69646421       0.67595075 </v>
   <v>       0.20530300       0.44550020       0.67446858 </v>
   <v>       0.19341773       0.94494848       0.67404473 </v>
   <v>       0.69962564       0.46196744       0.67856474 </v>
   <v>       0.69159751       0.95502694       0.67488682 </v>
   <v>       0.41637080       0.32410472       0.65083641 </v>
   <v>       0.41770895       0.83198937       0.64971754 </v>
   <v>       0.91786804       0.32378463       0.65004933 </v>
   <v>       0.92909840       0.83976605       0.65062665 </v>
   <v>       0.32625698       0.07881619       0.65050816 </v>
   <v>       0.32536385       0.58763690       0.64929619 </v>
   <v>       0.83547574       0.06969307       0.64859890 </v>
   <v>       0.83395682       0.58071338       0.64813745 </v>
   <v>       0.00095451       0.24764607       0.63205598 </v>
   <v>       0.01704413       0.76461702       0.63406249 </v>
   <v>       0.48228979       0.23418593       0.63302780 </v>
   <v>       0.49236034       0.75213142       0.63208266 </v>
   <v>       0.25044502       0.00063258       0.63129417 </v>
   <v>       0.25492796       0.50535026       0.63116854 </v>
   <v>       0.74724333       0.99483793       0.63106720 </v>
   <v>       0.76150756       0.48627756       0.63432316 </v>
   <v>       0.44874502       0.30128397       0.76888902 </v>
   <v>       0.44874501       0.80128391       0.76888902 </v>
   <v>       0.94874497       0.30128397       0.76888902 </v>
   <v>       0.94874501       0.80128391       0.76888902 </v>
   <v>       0.30127600       0.05129450       0.76887296 </v>
   <v>       0.30127601       0.55129450       0.76887296 </v>
   <v>       0.80127594       0.05129450       0.76887296 </v>
   <v>       0.80127598       0.55129450       0.76887296 </v>
   <v>       0.07877100       0.17118050       0.74344197 </v>
   <v>       0.07877101       0.67118045       0.74344197 </v>
   <v>       0.57877100       0.17118050       0.74344197 </v>
   <v>       0.57877099       0.67118045       0.74344197 </v>
   <v>       0.17119950       0.42117448       0.74342103 </v>
   <v>       0.17119950       0.92117451       0.74342103 </v>
   <v>       0.67119951       0.42117448       0.74342103 </v>
   <v>       0.67119950       0.92117451       0.74342103 </v>
   <v>       0.05125600       0.19871499       0.76888902 </v>
   <v>       0.05125600       0.69871493       0.76888902 </v>
   <v>       0.55125603       0.19871499       0.76888902 </v>
   <v>       0.55125602       0.69871493       0.76888902 </v>
   <v>       0.19872349       0.44870397       0.76887205 </v>
   <v>       0.19872349       0.94870397       0.76887205 </v>
   <v>       0.69872352       0.44870397       0.76887205 </v>
   <v>       0.69872351       0.94870397       0.76887205 </v>
   <v>       0.42123152       0.32881747       0.74344197 </v>
   <v>       0.42123151       0.82881744       0.74344197 </v>
   <v>       0.92123147       0.32881747       0.74344197 </v>
   <v>       0.92123151       0.82881744       0.74344197 </v>
   <v>       0.32880050       0.07882500       0.74342103 </v>
   <v>       0.32880049       0.57882496       0.74342103 </v>
   <v>       0.82880048       0.07882500       0.74342103 </v>
   <v>       0.82880052       0.57882496       0.74342103 </v>
   <v>       0.00000350       0.25000148       0.72582199 </v>
   <v>       0.00000350       0.75000145       0.72582199 </v>
   <v>       0.50000351       0.25000148       0.72582199 </v>
   <v>       0.50000350       0.75000145       0.72582199 </v>
   <v>       0.25000050       0.00000000       0.72580398 </v>
   <v>       0.25000052       0.50000000       0.72580398 </v>
   <v>       0.75000050       0.00000000       0.72580398 </v>
   <v>       0.75000049       0.50000000       0.72580398 </v>
   <v>       0.78300644       0.56546788       0.52741811 </v>
   <v>       0.73157375       0.47928778       0.52935710 </v>
   <v>       0.87206893       0.50582074       0.54929639 </v>
   <v>       0.84987103       0.48032816       0.57625887 </v>
   <v>       0.74043890       0.64045900       0.56776499 </v>
   <v>       0.79978197       0.59225501       0.58536641 </v>
   <v>       0.64857418       0.53746715       0.57242223 </v>
   <v>       0.67356317       0.44857562       0.56170616 </v>
   <v>       0.62216337       0.54614218       0.54102868 </v>
   <v>       0.67000368       0.63178571       0.54395474 </v>
   <v>       0.62320039       0.65866312       0.51109362 </v>
   <v>       0.70022311       0.60720795       0.50281401 </v>
   <v>       0.82704593       0.39316242       0.53597329 </v>
   <v>       0.75854665       0.39009102       0.55576686 </v>
   <v>       0.84771342       0.36356609       0.56191543 </v>
   <v>       0.85938972       0.69167662       0.56019121 </v>
   <v>       0.84882710       0.62705498       0.54062553 </v>
   <v>       0.90387899       0.60427715       0.56258939 </v>
   <v>       0.76640206       0.50426759       0.59989135 </v>
   <v>       0.73978149       0.41147193       0.59319726 </v>
   <v>       0.67404978       0.47134236       0.60577692 </v>
   <v>       0.54421328       0.54396048       0.51083191 </v>
   <v>       0.57930547       0.56337572       0.48422951 </v>
   <v>       0.72363730       0.49956315       0.47838978 </v>
   <v>       0.55419116       0.42185644       0.52211462 </v>
   <v>       0.78420303       0.37473650       0.47991383 </v>
   <v>       0.61712156       0.29964114       0.52411270 </v>
   <v>       0.73389800       0.27470489       0.50371076 </v>
   <v>       0.01538369       0.23775426       0.55558073 </v>
   <v>       0.00275928       0.74871446       0.55502275 </v>
   <v>       0.49176758       0.24359094       0.55549892 </v>
   <v>       0.50464696       0.76388197       0.55627593 </v>
   <v>       0.24140094       0.50497877       0.55611904 </v>
   <v>       0.24416507       0.00568970       0.55682573 </v>
   <v>       0.75697059       0.99366907       0.55692853 </v>
   <v>       0.00021713       0.24774649       0.64934026 </v>
   <v>       0.00584064       0.76057688       0.65097719 </v>
   <v>       0.49258744       0.24371486       0.65011025 </v>
   <v>       0.49437459       0.75040498       0.64939460 </v>
   <v>       0.25239806       0.50095046       0.64843200 </v>
   <v>       0.24862776       0.99989196       0.64854988 </v>
   <v>       0.75774701       0.49932730       0.65146483 </v>
   <v>       0.74952217       0.99967703       0.64829019 </v>
   <v>       0.49998898       0.24999498       0.74327702 </v>
   <v>       0.49998903       0.74999496       0.74327702 </v>
   <v>       0.99998898       0.24999498       0.74327702 </v>
   <v>       0.99998903       0.74999496       0.74327702 </v>
   <v>       0.25000050       0.00000100       0.74325596 </v>
   <v>       0.25000052       0.50000100       0.74325596 </v>
   <v>       0.75000050       0.00000100       0.74325596 </v>
   <v>       0.75000049       0.50000100       0.74325596 </v>
   <v>       0.63197779       0.46912749       0.49988548 </v>
   <v>       0.69720251       0.45372804       0.48787685 </v>
   <v>       0.60348610       0.41035557       0.51255509 </v>
   <v>       0.73157129       0.38572275       0.48931860 </v>
   <v>       0.63907500       0.34246190       0.51360102 </v>
   <v>       0.70392587       0.32940196       0.50194222 </v>
   <v>       0.73561869       0.53619019       0.53577861 </v>
   <v>       0.83042845       0.47914174       0.55971968 </v>
   <v>       0.78577448       0.60104699       0.56856459 </v>
   <v>       0.69462094       0.49500829       0.57131269 </v>
   <v>       0.66710114       0.57930331       0.53408693 </v>
   <v>       0.64581124       0.60339786       0.51159390 </v>
   <v>       0.81679673       0.40352292       0.55287334 </v>
   <v>       0.85289218       0.63192763       0.55784113 </v>
   <v>       0.71914108       0.46873674       0.59364132 </v>
   <v>       0.59589265       0.54535476       0.50063157 </v>
   <v>       0.04376240       0.18761835       0.56819494 </v>
   <v>       0.04064564       0.69647398       0.56452447 </v>
   <v>       0.55321201       0.21976822       0.56460890 </v>
   <v>       0.53261391       0.70599319       0.56647481 </v>
   <v>       0.44280222       0.28480792       0.56500760 </v>
   <v>       0.46121219       0.81488170       0.56450604 </v>
   <v>       0.97659419       0.29586565       0.56176867 </v>
   <v>       0.96894964       0.80280866       0.56522243 </v>
   <v>       0.20686281       0.45080896       0.56656614 </v>
   <v>       0.19442326       0.96348769       0.56682437 </v>
   <v>       0.70962627       0.94840312       0.56575006 </v>
   <v>       0.30164022       0.03457482       0.56640186 </v>
   <v>       0.28718477       0.55096509       0.56536625 </v>
   <v>       0.78957412       0.04866872       0.56750645 </v>
   <v>       0.04938089       0.20212617       0.65878441 </v>
   <v>       0.04812087       0.70940176       0.66139156 </v>
   <v>       0.54342402       0.19959017       0.65906261 </v>
   <v>       0.53734948       0.70459944       0.65949989 </v>
   <v>       0.21119774       0.45179274       0.65777915 </v>
   <v>       0.20112463       0.95216999       0.65758471 </v>
   <v>       0.71032181       0.45778195       0.66236722 </v>
   <v>       0.69808356       0.95883754       0.65829634 </v>
   <v>       0.45315482       0.29378896       0.65933689 </v>
   <v>       0.45002468       0.79810660       0.65849236 </v>
   <v>       0.95380078       0.29027839       0.65924141 </v>
   <v>       0.95728260       0.80395606       0.66006384 </v>
   <v>       0.29238765       0.04477477       0.65880023 </v>
   <v>       0.29456214       0.55164782       0.65838993 </v>
   <v>       0.79888324       0.04095431       0.65759686 </v>
   <v>       0.79896069       0.55218778       0.65906963 </v>
   <v>       0.04586250       0.20411950       0.75272599 </v>
   <v>       0.04586250       0.70411946       0.75272599 </v>
   <v>       0.54586251       0.20411950       0.75272599 </v>
   <v>       0.54586250       0.70411946       0.75272599 </v>
   <v>       0.20411900       0.45410100       0.75270499 </v>
   <v>       0.20411899       0.95410095       0.75270499 </v>
   <v>       0.70411898       0.45410100       0.75270499 </v>
   <v>       0.70411896       0.95410095       0.75270499 </v>
   <v>       0.45414002       0.29588849       0.75272697 </v>
   <v>       0.45414001       0.79588852       0.75272697 </v>
   <v>       0.95414002       0.29588849       0.75272697 </v>
   <v>       0.95414006       0.79588852       0.75272697 </v>
   <v>       0.29588249       0.04590050       0.75270499 </v>
   <v>       0.29588248       0.54590053       0.75270499 </v>
   <v>       0.79588244       0.04590050       0.75270499 </v>
   <v>       0.79588248       0.54590053       0.75270499 </v>
   <v>       0.75900101       0.52928335       0.55894016 </v>
   <v>       0.49642691       0.01325071       0.55186300 </v>
   <v>       0.47771449       0.51889213       0.55751654 </v>
   <v>       0.99894451       0.99810893       0.55213143 </v>
   <v>       0.02464124       0.48135476       0.54982585 </v>
   <v>       0.25182944       0.25074257       0.55153298 </v>
   <v>       0.24916382       0.75138079       0.55197820 </v>
   <v>       0.75651648       0.22557710       0.55547157 </v>
   <v>       0.73261924       0.77255964       0.54785439 </v>
   <v>       0.00517861       0.00091088       0.65423370 </v>
   <v>       0.00813531       0.50587153       0.65387553 </v>
   <v>       0.50414871       0.00091905       0.65484368 </v>
   <v>       0.49950859       0.49549118       0.65610804 </v>
   <v>       0.24850329       0.24928071       0.65492073 </v>
   <v>       0.24548230       0.75068993       0.65398664 </v>
   <v>       0.74436890       0.24975111       0.65567472 </v>
   <v>       0.75272703       0.75779276       0.65389226 </v>
   <v>       0.14339607       0.10436251       0.60979396 </v>
   <v>       0.14425428       0.60349554       0.60775089 </v>
   <v>       0.64440372       0.10146036       0.60813042 </v>
   <v>       0.62423569       0.62676602       0.61288272 </v>
   <v>       0.35331858       0.39407099       0.60889980 </v>
   <v>       0.35423324       0.89282573       0.60895951 </v>
   <v>       0.88109751       0.37114916       0.61326945 </v>
   <v>       0.85506826       0.89655758       0.60745371 </v>
   <v>       0.10784736       0.35730967       0.60753643 </v>
   <v>       0.10909049       0.85860136       0.60870134 </v>
   <v>       0.58435001       0.33617475       0.60821387 </v>
   <v>       0.60722762       0.86061623       0.60971424 </v>
   <v>       0.39014708       0.14019488       0.60766994 </v>
   <v>       0.38577397       0.63895674       0.60995897 </v>
   <v>       0.89427676       0.13929091       0.60889107 </v>
   <v>       0.91283143       0.66056980       0.61347353 </v>
   <v>       0.00000000       0.00000000       0.75492797 </v>
   <v>       0.00000000       0.50000000       0.75492797 </v>
   <v>       0.50000000       0.00000000       0.75492797 </v>
   <v>       0.49999999       0.50000000       0.75492797 </v>
   <v>       0.25000050       0.25000000       0.75493902 </v>
   <v>       0.25000051       0.74999997       0.75493902 </v>
   <v>       0.75000047       0.25000000       0.75493902 </v>
   <v>       0.75000046       0.74999997       0.75493902 </v>
   <v>       0.13579050       0.11421000       0.70478299 </v>
   <v>       0.13579050       0.61420998       0.70478299 </v>
   <v>       0.63579045       0.11421000       0.70478299 </v>
   <v>       0.63579049       0.61420998       0.70478299 </v>
   <v>       0.36420952       0.38578999       0.70478299 </v>
   <v>       0.36420950       0.88578996       0.70478299 </v>
   <v>       0.86420954       0.38578999       0.70478299 </v>
   <v>       0.86420953       0.88578996       0.70478299 </v>
   <v>       0.11421799       0.36421899       0.70478098 </v>
   <v>       0.11421799       0.86421899       0.70478098 </v>
   <v>       0.61421800       0.36421899       0.70478098 </v>
   <v>       0.61421799       0.86421899       0.70478098 </v>
   <v>       0.38578201       0.13578149       0.70478202 </v>
   <v>       0.38578200       0.63578149       0.70478202 </v>
   <v>       0.88578199       0.13578149       0.70478202 </v>
   <v>       0.88578203       0.63578149       0.70478202 </v>
   <v>       0.13466700       0.11533200       0.80125603 </v>
   <v>       0.13466699       0.61533199       0.80125603 </v>
   <v>       0.63466699       0.11533200       0.80125603 </v>
   <v>       0.63466698       0.61533199       0.80125603 </v>
   <v>       0.36533300       0.38466799       0.80125603 </v>
   <v>       0.36533299       0.88466796       0.80125603 </v>
   <v>       0.86533295       0.38466799       0.80125603 </v>
   <v>       0.86533294       0.88466796       0.80125603 </v>
   <v>       0.11532850       0.36533700       0.80126500 </v>
   <v>       0.11532850       0.86533698       0.80126500 </v>
   <v>       0.61532850       0.36533700       0.80126500 </v>
   <v>       0.61532849       0.86533698       0.80126500 </v>
   <v>       0.38467151       0.13466300       0.80126500 </v>
   <v>       0.38467150       0.63466297       0.80126500 </v>
   <v>       0.88467149       0.13466300       0.80126500 </v>
   <v>       0.88467153       0.63466297       0.80126500 </v>
   <v>       0.00120816       0.00154112       0.60333784 </v>
   <v>       0.00311788       0.50342789       0.60333039 </v>
   <v>       0.49883938       0.00426674       0.60186507 </v>
   <v>       0.49487040       0.49657026       0.60651145 </v>
   <v>       0.25091476       0.24677744       0.60197984 </v>
   <v>       0.24942768       0.74935748       0.60205084 </v>
   <v>       0.74656630       0.24521611       0.60564958 </v>
   <v>       0.74844373       0.75902954       0.60448138 </v>
   <v>       0.00000050       0.00000050       0.70482896 </v>
   <v>       0.00000050       0.50000048       0.70482896 </v>
   <v>       0.50000048       0.00000050       0.70482896 </v>
   <v>       0.50000046       0.50000048       0.70482896 </v>
   <v>       0.24999999       0.24999947       0.70482499 </v>
   <v>       0.25000001       0.74999950       0.70482499 </v>
   <v>       0.74999999       0.24999947       0.70482499 </v>
   <v>       0.74999998       0.74999950       0.70482499 </v>
   <v>       0.00000000       0.00000000       0.80731797 </v>
   <v>       0.00000000       0.50000000       0.80731797 </v>
   <v>       0.50000000       0.00000000       0.80731797 </v>
   <v>       0.49999999       0.50000000       0.80731797 </v>
   <v>       0.24999999       0.25000000       0.80731797 </v>
   <v>       0.25000001       0.74999997       0.80731797 </v>
   <v>       0.74999999       0.25000000       0.80731797 </v>
   <v>       0.74999998       0.74999997       0.80731797 </v>
  </varray>
 </structure>
</modeling>
