<?xml version="1.0" encoding="ISO-8859-1"?>
<modeling>
 <generator>
  <i name="program" type="string">vasp </i>
  <i name="version" type="string">6.2.1  </i>
  <i name="subversion" type="string">16May21 (build Nov 15 2021 14:57:28) complex                          parallel </i>
  <i name="platform" type="string">LinuxPGI </i>
  <i name="date" type="string">2023 07 30 </i>
  <i name="time" type="string">12:31:19 </i>
 </generator>
 <incar>
  <i type="string" name="SYSTEM">PSC</i>
  <i type="int" name="ISTART">     1</i>
  <i type="string" name="PREC">Normal</i>
  <i name="BMIX">      0.01000000</i>
  <i name="AMIN">      0.01000000</i>
  <i type="int" name="ICHARG">     1</i>
  <i type="int" name="NELM">   600</i>
  <i type="int" name="ISYM">     0</i>
  <i name="ENCUT">    500.00000000</i>
  <i type="string" name="LREAL">Auto</i>
  <i type="int" name="ISMEAR">     0</i>
  <i name="SIGMA">      0.05000000</i>
  <i type="logical" name="LWAVE"> F  </i>
  <i type="logical" name="LVTOT"> T  </i>
  <i type="logical" name="GGA_COMPAT"> F  </i>
  <i type="logical" name="LDIPOL"> T  </i>
  <i type="int" name="IDIPOL">     3</i>
  <i type="int" name="IVDW">    12</i>
 </incar>
 <primitive_cell>
  <structure name="primitive_cell" >
   <crystal>
    <varray name="basis" >
     <v>      18.06080055       0.00000000       0.00000000 </v>
     <v>      -0.00491865      18.06279945       0.00000000 </v>
     <v>       0.00000000       0.00000000      62.48749924 </v>
    </varray>
    <i name="volume">  20385.21054034 </i>
    <varray name="rec_basis" >
     <v>       0.05536853       0.00001508      -0.00000000 </v>
     <v>       0.00000000       0.05536240       0.00000000 </v>
     <v>       0.00000000      -0.00000000       0.01600320 </v>
    </varray>
   </crystal>
   <varray name="positions" >
    <v>       0.41788012       0.26266231       0.57232663 </v>
    <v>       0.40943664       0.71507324       0.57395098 </v>
    <v>       0.92273289       0.28075886       0.58120298 </v>
    <v>       0.93589846       0.81341382       0.57500008 </v>
    <v>       0.32194805       0.08270022       0.57038966 </v>
    <v>       0.31295057       0.57975167       0.57091668 </v>
    <v>       0.79935320       0.08596500       0.57451793 </v>
    <v>       0.10846873       0.23615599       0.56438944 </v>
    <v>       0.08239811       0.67695314       0.56923995 </v>
    <v>       0.60424174       0.19616649       0.56597984 </v>
    <v>       0.60120358       0.73616090       0.55994635 </v>
    <v>       0.37802259       0.01567523       0.55803123 </v>
    <v>       0.25245126       0.62213159       0.55296924 </v>
    <v>       0.87244608       0.03592694       0.56267895 </v>
    <v>       0.06026488       0.28416178       0.58359323 </v>
    <v>       0.99798708       0.69082932       0.58206765 </v>
    <v>       0.51782516       0.17181266       0.57621468 </v>
    <v>       0.54392382       0.68434951       0.57644672 </v>
    <v>       0.29973166       0.44319083       0.57632102 </v>
    <v>       0.18475795       0.05729813       0.57038801 </v>
    <v>       0.67404495       0.02647770       0.57248566 </v>
    <v>       0.44303517       0.34843121       0.56055358 </v>
    <v>       0.38210983       0.78546245       0.55666462 </v>
    <v>       0.88327948       0.22870867       0.56090705 </v>
    <v>       0.98262673       0.87343762       0.55808049 </v>
    <v>       0.22711076       0.40052865       0.56272437 </v>
    <v>       0.15475350       0.98204596       0.55558689 </v>
    <v>       0.67222517       0.93763676       0.56063423 </v>
    <v>       0.56146373       0.30918055       0.55326477 </v>
    <v>       0.50632716       0.80689135       0.54584227 </v>
    <v>       0.00088400       0.19413689       0.54685529 </v>
    <v>       0.07934911       0.79049470       0.55167522 </v>
    <v>       0.18721037       0.50998674       0.54669241 </v>
    <v>       0.27538205       0.94373695       0.54731845 </v>
    <v>       0.79622601       0.93742329       0.55280600 </v>
    <v>       0.45360996       0.28516203       0.67656122 </v>
    <v>       0.43326797       0.81824650       0.67119608 </v>
    <v>       0.96764136       0.27923287       0.68018310 </v>
    <v>       0.92403948       0.75862828       0.67199818 </v>
    <v>       0.29875504       0.04640313       0.67439136 </v>
    <v>       0.31246644       0.55134350       0.67281688 </v>
    <v>       0.79326004       0.05823447       0.67514053 </v>
    <v>       0.81865121       0.52707049       0.67366031 </v>
    <v>       0.08692934       0.16708529       0.64603742 </v>
    <v>       0.09981419       0.68843299       0.65188045 </v>
    <v>       0.57714050       0.17260785       0.64358209 </v>
    <v>       0.56743460       0.67620932       0.65550025 </v>
    <v>       0.18091781       0.41148906       0.65373397 </v>
    <v>       0.16366147       0.92480600       0.64758778 </v>
    <v>       0.65283390       0.44691529       0.64986155 </v>
    <v>       0.67313420       0.91849627       0.65071041 </v>
    <v>       0.06796038       0.18272733       0.67306132 </v>
    <v>       0.02923856       0.66607275       0.66965512 </v>
    <v>       0.54562696       0.18029121       0.66993667 </v>
    <v>       0.52887951       0.71634323       0.67836670 </v>
    <v>       0.21984212       0.44390582       0.67752498 </v>
    <v>       0.18729609       0.95312221       0.67344708 </v>
    <v>       0.70563902       0.44279921       0.67320319 </v>
    <v>       0.69641757       0.95325463       0.67590753 </v>
    <v>       0.43508511       0.34102150       0.65460243 </v>
    <v>       0.41577287       0.83535675       0.64395277 </v>
    <v>       0.92898488       0.31982776       0.65750791 </v>
    <v>       0.93228158       0.83634597       0.65578723 </v>
    <v>       0.33809777       0.06395658       0.64953012 </v>
    <v>       0.32224145       0.58299255       0.64639534 </v>
    <v>       0.82582712       0.08081435       0.64942445 </v>
    <v>       0.83244789       0.58007574       0.65082500 </v>
    <v>       0.00037509       0.25288885       0.63430967 </v>
    <v>       0.04338415       0.79696886       0.64079815 </v>
    <v>       0.51229207       0.27469481       0.63163604 </v>
    <v>       0.49931818       0.74795971       0.63203663 </v>
    <v>       0.25684440       0.98907597       0.63084059 </v>
    <v>       0.24149551       0.49673863       0.63238546 </v>
    <v>       0.75408092       0.99486956       0.63228564 </v>
    <v>       0.72642217       0.53507552       0.63397348 </v>
    <v>       0.44874502       0.30128397       0.76888902 </v>
    <v>       0.44874501       0.80128391       0.76888902 </v>
    <v>       0.94874497       0.30128397       0.76888902 </v>
    <v>       0.94874501       0.80128391       0.76888902 </v>
    <v>       0.30127600       0.05129450       0.76887296 </v>
    <v>       0.30127601       0.55129450       0.76887296 </v>
    <v>       0.80127594       0.05129450       0.76887296 </v>
    <v>       0.80127598       0.55129450       0.76887296 </v>
    <v>       0.07877100       0.17118050       0.74344197 </v>
    <v>       0.07877101       0.67118045       0.74344197 </v>
    <v>       0.57877100       0.17118050       0.74344197 </v>
    <v>       0.57877099       0.67118045       0.74344197 </v>
    <v>       0.17119950       0.42117448       0.74342103 </v>
    <v>       0.17119950       0.92117451       0.74342103 </v>
    <v>       0.67119951       0.42117448       0.74342103 </v>
    <v>       0.67119950       0.92117451       0.74342103 </v>
    <v>       0.05125600       0.19871499       0.76888902 </v>
    <v>       0.05125600       0.69871493       0.76888902 </v>
    <v>       0.55125603       0.19871499       0.76888902 </v>
    <v>       0.55125602       0.69871493       0.76888902 </v>
    <v>       0.19872349       0.44870397       0.76887205 </v>
    <v>       0.19872349       0.94870397       0.76887205 </v>
    <v>       0.69872352       0.44870397       0.76887205 </v>
    <v>       0.69872351       0.94870397       0.76887205 </v>
    <v>       0.42123152       0.32881747       0.74344197 </v>
    <v>       0.42123151       0.82881744       0.74344197 </v>
    <v>       0.92123147       0.32881747       0.74344197 </v>
    <v>       0.92123151       0.82881744       0.74344197 </v>
    <v>       0.32880050       0.07882500       0.74342103 </v>
    <v>       0.32880049       0.57882496       0.74342103 </v>
    <v>       0.82880048       0.07882500       0.74342103 </v>
    <v>       0.82880052       0.57882496       0.74342103 </v>
    <v>       0.00000350       0.25000148       0.72582199 </v>
    <v>       0.00000350       0.75000145       0.72582199 </v>
    <v>       0.50000351       0.25000148       0.72582199 </v>
    <v>       0.50000350       0.75000145       0.72582199 </v>
    <v>       0.25000050       0.00000000       0.72580398 </v>
    <v>       0.25000052       0.50000000       0.72580398 </v>
    <v>       0.75000050       0.00000000       0.72580398 </v>
    <v>       0.75000049       0.50000000       0.72580398 </v>
    <v>       0.79656587       0.51101392       0.51599005 </v>
    <v>       0.87691457       0.50277014       0.53255824 </v>
    <v>       0.76051214       0.62717932       0.53473757 </v>
    <v>       0.76757219       0.62833765       0.56285580 </v>
    <v>       0.68435416       0.45130362       0.55279392 </v>
    <v>       0.67109659       0.54484574       0.56070907 </v>
    <v>       0.80025807       0.42769777       0.56858772 </v>
    <v>       0.86750987       0.50038637       0.56991440 </v>
    <v>       0.86043047       0.37735210       0.53994094 </v>
    <v>       0.76392390       0.37673368       0.53516197 </v>
    <v>       0.77820653       0.38083828       0.49696039 </v>
    <v>       0.87023067       0.41211962       0.49828808 </v>
    <v>       0.89780039       0.61644755       0.53110708 </v>
    <v>       0.90946724       0.60715748       0.55917031 </v>
    <v>       0.87287278       0.69067135       0.54811421 </v>
    <v>       0.59885470       0.51874018       0.52877080 </v>
    <v>       0.67653026       0.48870789       0.51401016 </v>
    <v>       0.66795180       0.58469406       0.52109794 </v>
    <v>       0.71499074       0.49828165       0.59190147 </v>
    <v>       0.77487863       0.57760164       0.59196374 </v>
    <v>       0.80381771       0.49438111       0.60354222 </v>
    <v>       0.82450944       0.25871233       0.51420478 </v>
    <v>       0.84504043       0.27487725       0.48691584 </v>
    <v>       0.92824157       0.16404043       0.49857613 </v>
    <v>       0.97095434       0.39045710       0.51671865 </v>
    <v>       0.06187301       0.13507075       0.50229471 </v>
    <v>       0.10391585       0.36123000       0.52037282 </v>
    <v>       0.15142850       0.23448468       0.51244808 </v>
    <v>       0.99663486       0.22967613       0.56105619 </v>
    <v>       0.03257826       0.77422916       0.56198508 </v>
    <v>       0.52327368       0.27139347       0.56127126 </v>
    <v>       0.49329870       0.76215876       0.55700594 </v>
    <v>       0.23596838       0.51059365       0.55713347 </v>
    <v>       0.26738944       0.99531228       0.55604499 </v>
    <v>       0.77242464       0.98586276       0.56070407 </v>
    <v>       0.00817557       0.24297590       0.65135831 </v>
    <v>       0.01647245       0.76194355       0.65300317 </v>
    <v>       0.50636243       0.25701143       0.64860531 </v>
    <v>       0.49223360       0.75617836       0.64951779 </v>
    <v>       0.25150571       0.49640955       0.64981765 </v>
    <v>       0.25026217       0.99418177       0.64840355 </v>
    <v>       0.74178951       0.51385158       0.64965887 </v>
    <v>       0.74955851       0.99892647       0.64989482 </v>
    <v>       0.49998898       0.24999498       0.74327702 </v>
    <v>       0.49998903       0.74999496       0.74327702 </v>
    <v>       0.99998898       0.24999498       0.74327702 </v>
    <v>       0.99998903       0.74999496       0.74327702 </v>
    <v>       0.25000050       0.00000100       0.74325596 </v>
    <v>       0.25000052       0.50000100       0.74325596 </v>
    <v>       0.75000050       0.00000100       0.74325596 </v>
    <v>       0.75000049       0.50000100       0.74325596 </v>
    <v>       0.94000403       0.27862979       0.50702796 </v>
    <v>       0.96626300       0.20720073       0.50332131 </v>
    <v>       0.99078783       0.33402995       0.51330970 </v>
    <v>       0.04184112       0.19082998       0.50564768 </v>
    <v>       0.06609158       0.31767668       0.51536461 </v>
    <v>       0.09210079       0.24623991       0.51128577 </v>
    <v>       0.81923742       0.48516231       0.53054600 </v>
    <v>       0.79292703       0.60548680       0.54828343 </v>
    <v>       0.69438095       0.50958384       0.54806464 </v>
    <v>       0.80775985       0.48833049       0.56993754 </v>
    <v>       0.81699843       0.39977713       0.52933769 </v>
    <v>       0.83057220       0.37492504       0.50591702 </v>
    <v>       0.87322654       0.62990257       0.54663143 </v>
    <v>       0.65896927       0.52727698       0.52659831 </v>
    <v>       0.77155433       0.51712171       0.59010979 </v>
    <v>       0.85775628       0.29433093       0.50333007 </v>
    <v>       0.05825678       0.24896804       0.57062628 </v>
    <v>       0.03599900       0.70838340       0.57084660 </v>
    <v>       0.54859431       0.20667873       0.56724511 </v>
    <v>       0.54793222       0.72110955       0.56407803 </v>
    <v>       0.45477301       0.29409720       0.56408115 </v>
    <v>       0.42358511       0.75375014       0.56290556 </v>
    <v>       0.93044732       0.25143620       0.56727240 </v>
    <v>       0.97605115       0.82012330       0.56362225 </v>
    <v>       0.25519673       0.44793011       0.56612855 </v>
    <v>       0.19893169       0.01316411       0.56056891 </v>
    <v>       0.70104632       0.98540629       0.56403377 </v>
    <v>       0.32509458       0.03516196       0.56110087 </v>
    <v>       0.27011587       0.57398848       0.56016575 </v>
    <v>       0.81669060       0.03999437       0.56609443 </v>
    <v>       0.05725322       0.19450979       0.65737025 </v>
    <v>       0.04970686       0.70143427       0.65855500 </v>
    <v>       0.54447678       0.19926843       0.65457123 </v>
    <v>       0.53249254       0.71442583       0.66233957 </v>
    <v>       0.21609220       0.44802277       0.66144174 </v>
    <v>       0.19734936       0.95600375       0.65745853 </v>
    <v>       0.69735269       0.46404709       0.65822266 </v>
    <v>       0.70410447       0.95470396       0.65987509 </v>
    <v>       0.46215827       0.29659471       0.66099207 </v>
    <v>       0.44424813       0.80682672       0.65555012 </v>
    <v>       0.96614535       0.28270535       0.66387436 </v>
    <v>       0.95311916       0.78662722       0.66064514 </v>
    <v>       0.29759506       0.03675226       0.65838394 </v>
    <v>       0.29880134       0.54682264       0.65710567 </v>
    <v>       0.79254438       0.04946172       0.65911389 </v>
    <v>       0.80188885       0.54074510       0.65856684 </v>
    <v>       0.04586250       0.20411950       0.75272599 </v>
    <v>       0.04586250       0.70411946       0.75272599 </v>
    <v>       0.54586251       0.20411950       0.75272599 </v>
    <v>       0.54586250       0.70411946       0.75272599 </v>
    <v>       0.20411900       0.45410100       0.75270499 </v>
    <v>       0.20411899       0.95410095       0.75270499 </v>
    <v>       0.70411898       0.45410100       0.75270499 </v>
    <v>       0.70411896       0.95410095       0.75270499 </v>
    <v>       0.45414002       0.29588849       0.75272697 </v>
    <v>       0.45414001       0.79588852       0.75272697 </v>
    <v>       0.95414002       0.29588849       0.75272697 </v>
    <v>       0.95414006       0.79588852       0.75272697 </v>
    <v>       0.29588249       0.04590050       0.75270499 </v>
    <v>       0.29588248       0.54590053       0.75270499 </v>
    <v>       0.79588244       0.04590050       0.75270499 </v>
    <v>       0.79588248       0.54590053       0.75270499 </v>
    <v>       0.77825692       0.52183692       0.54903407 </v>
    <v>       0.50916353       0.97828558       0.55427450 </v>
    <v>       0.45815419       0.49034832       0.55446203 </v>
    <v>       0.00575814       0.01243102       0.55237855 </v>
    <v>       0.03678676       0.49535861       0.55507348 </v>
    <v>       0.25291243       0.24419719       0.55543018 </v>
    <v>       0.23524668       0.77369141       0.55114619 </v>
    <v>       0.74054206       0.22119232       0.55550289 </v>
    <v>       0.71843360       0.79651618       0.55135265 </v>
    <v>       0.99449889       0.98754227       0.65458503 </v>
    <v>       0.00359913       0.50128393       0.65560232 </v>
    <v>       0.49745409       0.00488479       0.65501456 </v>
    <v>       0.49629581       0.50266755       0.65501608 </v>
    <v>       0.26073218       0.23653109       0.65566746 </v>
    <v>       0.24777038       0.75233363       0.65399677 </v>
    <v>       0.74135596       0.25528273       0.65557058 </v>
    <v>       0.75273457       0.74784377       0.65373995 </v>
    <v>       0.14335723       0.11275340       0.60910211 </v>
    <v>       0.14326448       0.61118425       0.60976320 </v>
    <v>       0.64364641       0.10822436       0.60887715 </v>
    <v>       0.61321297       0.63443209       0.61173741 </v>
    <v>       0.36653465       0.38581203       0.61192824 </v>
    <v>       0.36502434       0.88625970       0.60730219 </v>
    <v>       0.88968915       0.36095738       0.61478709 </v>
    <v>       0.86624530       0.88725695       0.60700691 </v>
    <v>       0.12250735       0.36729538       0.61291776 </v>
    <v>       0.11846247       0.87570993       0.60653434 </v>
    <v>       0.61883543       0.37204640       0.60468448 </v>
    <v>       0.62085199       0.86741483       0.61199252 </v>
    <v>       0.40059923       0.14456811       0.60455775 </v>
    <v>       0.37586107       0.63310121       0.60694146 </v>
    <v>       0.88452382       0.13611290       0.61326512 </v>
    <v>       0.90824324       0.65635834       0.61260776 </v>
    <v>       0.00000000       0.00000000       0.75492797 </v>
    <v>       0.00000000       0.50000000       0.75492797 </v>
    <v>       0.50000000       0.00000000       0.75492797 </v>
    <v>       0.49999999       0.50000000       0.75492797 </v>
    <v>       0.25000050       0.25000000       0.75493902 </v>
    <v>       0.25000051       0.74999997       0.75493902 </v>
    <v>       0.75000047       0.25000000       0.75493902 </v>
    <v>       0.75000046       0.74999997       0.75493902 </v>
    <v>       0.13579050       0.11421000       0.70478299 </v>
    <v>       0.13579050       0.61420998       0.70478299 </v>
    <v>       0.63579045       0.11421000       0.70478299 </v>
    <v>       0.63579049       0.61420998       0.70478299 </v>
    <v>       0.36420952       0.38578999       0.70478299 </v>
    <v>       0.36420950       0.88578996       0.70478299 </v>
    <v>       0.86420954       0.38578999       0.70478299 </v>
    <v>       0.86420953       0.88578996       0.70478299 </v>
    <v>       0.11421799       0.36421899       0.70478098 </v>
    <v>       0.11421799       0.86421899       0.70478098 </v>
    <v>       0.61421800       0.36421899       0.70478098 </v>
    <v>       0.61421799       0.86421899       0.70478098 </v>
    <v>       0.38578201       0.13578149       0.70478202 </v>
    <v>       0.38578200       0.63578149       0.70478202 </v>
    <v>       0.88578199       0.13578149       0.70478202 </v>
    <v>       0.88578203       0.63578149       0.70478202 </v>
    <v>       0.13466700       0.11533200       0.80125603 </v>
    <v>       0.13466699       0.61533199       0.80125603 </v>
    <v>       0.63466699       0.11533200       0.80125603 </v>
    <v>       0.63466698       0.61533199       0.80125603 </v>
    <v>       0.36533300       0.38466799       0.80125603 </v>
    <v>       0.36533299       0.88466796       0.80125603 </v>
    <v>       0.86533295       0.38466799       0.80125603 </v>
    <v>       0.86533294       0.88466796       0.80125603 </v>
    <v>       0.11532850       0.36533700       0.80126500 </v>
    <v>       0.11532850       0.86533698       0.80126500 </v>
    <v>       0.61532850       0.36533700       0.80126500 </v>
    <v>       0.61532849       0.86533698       0.80126500 </v>
    <v>       0.38467151       0.13466300       0.80126500 </v>
    <v>       0.38467150       0.63466297       0.80126500 </v>
    <v>       0.88467149       0.13466300       0.80126500 </v>
    <v>       0.88467153       0.63466297       0.80126500 </v>
    <v>       0.99985482       0.00735599       0.60506224 </v>
    <v>       0.00754664       0.50321216       0.60516096 </v>
    <v>       0.50166258       0.99419531       0.60431685 </v>
    <v>       0.49626324       0.49923100       0.60368599 </v>
    <v>       0.25323548       0.25174842       0.60580092 </v>
    <v>       0.24338748       0.75690502       0.60381761 </v>
    <v>       0.75021199       0.25171350       0.60644539 </v>
    <v>       0.74931527       0.75771092       0.60309188 </v>
    <v>       0.00000050       0.00000050       0.70482896 </v>
    <v>       0.00000050       0.50000048       0.70482896 </v>
    <v>       0.50000048       0.00000050       0.70482896 </v>
    <v>       0.50000046       0.50000048       0.70482896 </v>
    <v>       0.24999999       0.24999947       0.70482499 </v>
    <v>       0.25000001       0.74999950       0.70482499 </v>
    <v>       0.74999999       0.24999947       0.70482499 </v>
    <v>       0.74999998       0.74999950       0.70482499 </v>
    <v>       0.00000000       0.00000000       0.80731797 </v>
    <v>       0.00000000       0.50000000       0.80731797 </v>
    <v>       0.50000000       0.00000000       0.80731797 </v>
    <v>       0.49999999       0.50000000       0.80731797 </v>
    <v>       0.24999999       0.25000000       0.80731797 </v>
    <v>       0.25000001       0.74999997       0.80731797 </v>
    <v>       0.74999999       0.25000000       0.80731797 </v>
    <v>       0.74999998       0.74999997       0.80731797 </v>
   </varray>
  </structure>
  <varray name="primitive_index" >
   <v type="int" >        1 </v>
   <v type="int" >        2 </v>
   <v type="int" >        3 </v>
   <v type="int" >        4 </v>
   <v type="int" >        5 </v>
   <v type="int" >        6 </v>
   <v type="int" >        7 </v>
   <v type="int" >        8 </v>
   <v type="int" >        9 </v>
   <v type="int" >       10 </v>
   <v type="int" >       11 </v>
   <v type="int" >       12 </v>
   <v type="int" >       13 </v>
   <v type="int" >       14 </v>
   <v type="int" >       15 </v>
   <v type="int" >       16 </v>
   <v type="int" >       17 </v>
   <v type="int" >       18 </v>
   <v type="int" >       19 </v>
   <v type="int" >       20 </v>
   <v type="int" >       21 </v>
   <v type="int" >       22 </v>
   <v type="int" >       23 </v>
   <v type="int" >       24 </v>
   <v type="int" >       25 </v>
   <v type="int" >       26 </v>
   <v type="int" >       27 </v>
   <v type="int" >       28 </v>
   <v type="int" >       29 </v>
   <v type="int" >       30 </v>
   <v type="int" >       31 </v>
   <v type="int" >       32 </v>
   <v type="int" >       33 </v>
   <v type="int" >       34 </v>
   <v type="int" >       35 </v>
   <v type="int" >       36 </v>
   <v type="int" >       37 </v>
   <v type="int" >       38 </v>
   <v type="int" >       39 </v>
   <v type="int" >       40 </v>
   <v type="int" >       41 </v>
   <v type="int" >       42 </v>
   <v type="int" >       43 </v>
   <v type="int" >       44 </v>
   <v type="int" >       45 </v>
   <v type="int" >       46 </v>
   <v type="int" >       47 </v>
   <v type="int" >       48 </v>
   <v type="int" >       49 </v>
   <v type="int" >       50 </v>
   <v type="int" >       51 </v>
   <v type="int" >       52 </v>
   <v type="int" >       53 </v>
   <v type="int" >       54 </v>
   <v type="int" >       55 </v>
   <v type="int" >       56 </v>
   <v type="int" >       57 </v>
   <v type="int" >       58 </v>
   <v type="int" >       59 </v>
   <v type="int" >       60 </v>
   <v type="int" >       61 </v>
   <v type="int" >       62 </v>
   <v type="int" >       63 </v>
   <v type="int" >       64 </v>
   <v type="int" >       65 </v>
   <v type="int" >       66 </v>
   <v type="int" >       67 </v>
   <v type="int" >       68 </v>
   <v type="int" >       69 </v>
   <v type="int" >       70 </v>
   <v type="int" >       71 </v>
   <v type="int" >       72 </v>
   <v type="int" >       73 </v>
   <v type="int" >       74 </v>
   <v type="int" >       75 </v>
   <v type="int" >       76 </v>
   <v type="int" >       77 </v>
   <v type="int" >       78 </v>
   <v type="int" >       79 </v>
   <v type="int" >       80 </v>
   <v type="int" >       81 </v>
   <v type="int" >       82 </v>
   <v type="int" >       83 </v>
   <v type="int" >       84 </v>
   <v type="int" >       85 </v>
   <v type="int" >       86 </v>
   <v type="int" >       87 </v>
   <v type="int" >       88 </v>
   <v type="int" >       89 </v>
   <v type="int" >       90 </v>
   <v type="int" >       91 </v>
   <v type="int" >       92 </v>
   <v type="int" >       93 </v>
   <v type="int" >       94 </v>
   <v type="int" >       95 </v>
   <v type="int" >       96 </v>
   <v type="int" >       97 </v>
   <v type="int" >       98 </v>
   <v type="int" >       99 </v>
   <v type="int" >      100 </v>
   <v type="int" >      101 </v>
   <v type="int" >      102 </v>
   <v type="int" >      103 </v>
   <v type="int" >      104 </v>
   <v type="int" >      105 </v>
   <v type="int" >      106 </v>
   <v type="int" >      107 </v>
   <v type="int" >      108 </v>
   <v type="int" >      109 </v>
   <v type="int" >      110 </v>
   <v type="int" >      111 </v>
   <v type="int" >      112 </v>
   <v type="int" >      113 </v>
   <v type="int" >      114 </v>
   <v type="int" >      115 </v>
   <v type="int" >      116 </v>
   <v type="int" >      117 </v>
   <v type="int" >      118 </v>
   <v type="int" >      119 </v>
   <v type="int" >      120 </v>
   <v type="int" >      121 </v>
   <v type="int" >      122 </v>
   <v type="int" >      123 </v>
   <v type="int" >      124 </v>
   <v type="int" >      125 </v>
   <v type="int" >      126 </v>
   <v type="int" >      127 </v>
   <v type="int" >      128 </v>
   <v type="int" >      129 </v>
   <v type="int" >      130 </v>
   <v type="int" >      131 </v>
   <v type="int" >      132 </v>
   <v type="int" >      133 </v>
   <v type="int" >      134 </v>
   <v type="int" >      135 </v>
   <v type="int" >      136 </v>
   <v type="int" >      137 </v>
   <v type="int" >      138 </v>
   <v type="int" >      139 </v>
   <v type="int" >      140 </v>
   <v type="int" >      141 </v>
   <v type="int" >      142 </v>
   <v type="int" >      143 </v>
   <v type="int" >      144 </v>
   <v type="int" >      145 </v>
   <v type="int" >      146 </v>
   <v type="int" >      147 </v>
   <v type="int" >      148 </v>
   <v type="int" >      149 </v>
   <v type="int" >      150 </v>
   <v type="int" >      151 </v>
   <v type="int" >      152 </v>
   <v type="int" >      153 </v>
   <v type="int" >      154 </v>
   <v type="int" >      155 </v>
   <v type="int" >      156 </v>
   <v type="int" >      157 </v>
   <v type="int" >      158 </v>
   <v type="int" >      159 </v>
   <v type="int" >      160 </v>
   <v type="int" >      161 </v>
   <v type="int" >      162 </v>
   <v type="int" >      163 </v>
   <v type="int" >      164 </v>
   <v type="int" >      165 </v>
   <v type="int" >      166 </v>
   <v type="int" >      167 </v>
   <v type="int" >      168 </v>
   <v type="int" >      169 </v>
   <v type="int" >      170 </v>
   <v type="int" >      171 </v>
   <v type="int" >      172 </v>
   <v type="int" >      173 </v>
   <v type="int" >      174 </v>
   <v type="int" >      175 </v>
   <v type="int" >      176 </v>
   <v type="int" >      177 </v>
   <v type="int" >      178 </v>
   <v type="int" >      179 </v>
   <v type="int" >      180 </v>
   <v type="int" >      181 </v>
   <v type="int" >      182 </v>
   <v type="int" >      183 </v>
   <v type="int" >      184 </v>
   <v type="int" >      185 </v>
   <v type="int" >      186 </v>
   <v type="int" >      187 </v>
   <v type="int" >      188 </v>
   <v type="int" >      189 </v>
   <v type="int" >      190 </v>
   <v type="int" >      191 </v>
   <v type="int" >      192 </v>
   <v type="int" >      193 </v>
   <v type="int" >      194 </v>
   <v type="int" >      195 </v>
   <v type="int" >      196 </v>
   <v type="int" >      197 </v>
   <v type="int" >      198 </v>
   <v type="int" >      199 </v>
   <v type="int" >      200 </v>
   <v type="int" >      201 </v>
   <v type="int" >      202 </v>
   <v type="int" >      203 </v>
   <v type="int" >      204 </v>
   <v type="int" >      205 </v>
   <v type="int" >      206 </v>
   <v type="int" >      207 </v>
   <v type="int" >      208 </v>
   <v type="int" >      209 </v>
   <v type="int" >      210 </v>
   <v type="int" >      211 </v>
   <v type="int" >      212 </v>
   <v type="int" >      213 </v>
   <v type="int" >      214 </v>
   <v type="int" >      215 </v>
   <v type="int" >      216 </v>
   <v type="int" >      217 </v>
   <v type="int" >      218 </v>
   <v type="int" >      219 </v>
   <v type="int" >      220 </v>
   <v type="int" >      221 </v>
   <v type="int" >      222 </v>
   <v type="int" >      223 </v>
   <v type="int" >      224 </v>
   <v type="int" >      225 </v>
   <v type="int" >      226 </v>
   <v type="int" >      227 </v>
   <v type="int" >      228 </v>
   <v type="int" >      229 </v>
   <v type="int" >      230 </v>
   <v type="int" >      231 </v>
   <v type="int" >      232 </v>
   <v type="int" >      233 </v>
   <v type="int" >      234 </v>
   <v type="int" >      235 </v>
   <v type="int" >      236 </v>
   <v type="int" >      237 </v>
   <v type="int" >      238 </v>
   <v type="int" >      239 </v>
   <v type="int" >      240 </v>
   <v type="int" >      241 </v>
   <v type="int" >      242 </v>
   <v type="int" >      243 </v>
   <v type="int" >      244 </v>
   <v type="int" >      245 </v>
   <v type="int" >      246 </v>
   <v type="int" >      247 </v>
   <v type="int" >      248 </v>
   <v type="int" >      249 </v>
   <v type="int" >      250 </v>
   <v type="int" >      251 </v>
   <v type="int" >      252 </v>
   <v type="int" >      253 </v>
   <v type="int" >      254 </v>
   <v type="int" >      255 </v>
   <v type="int" >      256 </v>
   <v type="int" >      257 </v>
   <v type="int" >      258 </v>
   <v type="int" >      259 </v>
   <v type="int" >      260 </v>
   <v type="int" >      261 </v>
   <v type="int" >      262 </v>
   <v type="int" >      263 </v>
   <v type="int" >      264 </v>
   <v type="int" >      265 </v>
   <v type="int" >      266 </v>
   <v type="int" >      267 </v>
   <v type="int" >      268 </v>
   <v type="int" >      269 </v>
   <v type="int" >      270 </v>
   <v type="int" >      271 </v>
   <v type="int" >      272 </v>
   <v type="int" >      273 </v>
   <v type="int" >      274 </v>
   <v type="int" >      275 </v>
   <v type="int" >      276 </v>
   <v type="int" >      277 </v>
   <v type="int" >      278 </v>
   <v type="int" >      279 </v>
   <v type="int" >      280 </v>
   <v type="int" >      281 </v>
   <v type="int" >      282 </v>
   <v type="int" >      283 </v>
   <v type="int" >      284 </v>
   <v type="int" >      285 </v>
   <v type="int" >      286 </v>
   <v type="int" >      287 </v>
   <v type="int" >      288 </v>
   <v type="int" >      289 </v>
   <v type="int" >      290 </v>
   <v type="int" >      291 </v>
   <v type="int" >      292 </v>
   <v type="int" >      293 </v>
   <v type="int" >      294 </v>
   <v type="int" >      295 </v>
   <v type="int" >      296 </v>
   <v type="int" >      297 </v>
   <v type="int" >      298 </v>
   <v type="int" >      299 </v>
   <v type="int" >      300 </v>
   <v type="int" >      301 </v>
   <v type="int" >      302 </v>
   <v type="int" >      303 </v>
   <v type="int" >      304 </v>
   <v type="int" >      305 </v>
   <v type="int" >      306 </v>
   <v type="int" >      307 </v>
   <v type="int" >      308 </v>
   <v type="int" >      309 </v>
   <v type="int" >      310 </v>
   <v type="int" >      311 </v>
   <v type="int" >      312 </v>
   <v type="int" >      313 </v>
   <v type="int" >      314 </v>
   <v type="int" >      315 </v>
   <v type="int" >      316 </v>
   <v type="int" >      317 </v>
   <v type="int" >      318 </v>
   <v type="int" >      319 </v>
   <v type="int" >      320 </v>
   <v type="int" >      321 </v>
   <v type="int" >      322 </v>
   <v type="int" >      323 </v>
   <v type="int" >      324 </v>
   <v type="int" >      325 </v>
  </varray>
 </primitive_cell>
 <kpoints>
  <generation param="Gamma">
   <v type="int" name="divisions">       3        3        1 </v>
   <v name="usershift">      0.00000000       0.00000000       0.00000000 </v>
   <v name="genvec1">      0.33333333       0.00000000       0.00000000 </v>
   <v name="genvec2">      0.00000000       0.33333333       0.00000000 </v>
   <v name="genvec3">      0.00000000       0.00000000       1.00000000 </v>
   <v name="shift">      0.00000000       0.00000000       0.00000000 </v>
  </generation>
  <varray name="kpointlist" >
   <v>       0.00000000       0.00000000       0.00000000 </v>
   <v>       0.33333333       0.00000000       0.00000000 </v>
   <v>       0.00000000       0.33333333       0.00000000 </v>
   <v>       0.33333333       0.33333333       0.00000000 </v>
   <v>      -0.33333333       0.33333333       0.00000000 </v>
  </varray>
  <varray name="weights" >
   <v>       0.11111111 </v>
   <v>       0.22222222 </v>
   <v>       0.22222222 </v>
   <v>       0.22222222 </v>
   <v>       0.22222222 </v>
  </varray>
 </kpoints>
 <parameters>
  <separator name="general" >
   <i type="string" name="SYSTEM">PSC</i>
   <i type="logical" name="LCOMPAT"> F  </i>
  </separator>
  <separator name="electronic" >
   <i type="string" name="PREC">normal</i>
   <i name="ENMAX">    500.00000000</i>
   <i name="ENAUG">    644.87300000</i>
   <i name="EDIFF">      0.00010000</i>
   <i type="int" name="IALGO">    38</i>
   <i type="int" name="IWAVPR">    10</i>
   <i type="int" name="NBANDS">   732</i>
   <i type="int" name="NBANDSLOW">    -1</i>
   <i type="int" name="NBANDSHIGH">    -1</i>
   <i name="NELECT">   1134.00000000</i>
   <i type="int" name="TURBO">     0</i>
   <i type="int" name="IRESTART">     0</i>
   <i type="int" name="NREBOOT">     0</i>
   <i type="int" name="NMIN">     0</i>
   <i name="EREF">      0.00000000</i>
   <separator name="electronic smearing" >
    <i type="int" name="ISMEAR">     0</i>
    <i name="SIGMA">      0.05000000</i>
    <i name="KSPACING">      0.50000000</i>
    <i type="logical" name="KGAMMA"> T  </i>
    <i type="logical" name="KBLOWUP"> T  </i>
   </separator>
   <separator name="electronic projectors" >
    <i type="logical" name="LREAL"> T  </i>
    <v name="ROPT">     -0.00050000     -0.00050000     -0.00050000     -0.00050000     -0.00050000</v>
    <i type="int" name="LMAXPAW">  -100</i>
    <i type="int" name="LMAXMIX">     2</i>
    <i type="logical" name="NLSPLINE"> F  </i>
   </separator>
   <separator name="electronic startup" >
    <i type="int" name="ISTART">     0</i>
    <i type="int" name="ICHARG">     1</i>
    <i type="int" name="INIWAV">     1</i>
   </separator>
   <separator name="electronic spin" >
    <i type="int" name="ISPIN">     1</i>
    <i type="logical" name="LNONCOLLINEAR"> F  </i>
    <v name="MAGMOM">      1.00000000      1.00000000      1.00000000      1.00000000      1.00000000      1.00000000      1.00000000      1.00000000      1.00000000      1.00000000      1.00000000      1.00000000      1.00000000      1.00000000      1.00000000      1.00000000      1.00000000      1.00000000      1.00000000      1.00000000
      1.00000000      1.00000000      1.00000000      1.00000000      1.00000000      1.00000000      1.00000000      1.00000000      1.00000000      1.00000000      1.00000000      1.00000000      1.00000000      1.00000000      1.00000000      1.00000000      1.00000000      1.00000000      1.00000000      1.00000000
      1.00000000      1.00000000      1.00000000      1.00000000      1.00000000      1.00000000      1.00000000      1.00000000      1.00000000      1.00000000      1.00000000      1.00000000      1.00000000      1.00000000      1.00000000      1.00000000      1.00000000      1.00000000      1.00000000      1.00000000
      1.00000000      1.00000000      1.00000000      1.00000000      1.00000000      1.00000000      1.00000000      1.00000000      1.00000000      1.00000000      1.00000000      1.00000000      1.00000000      1.00000000      1.00000000      1.00000000      1.00000000      1.00000000      1.00000000      1.00000000
      1.00000000      1.00000000      1.00000000      1.00000000      1.00000000      1.00000000      1.00000000      1.00000000      1.00000000      1.00000000      1.00000000      1.00000000      1.00000000      1.00000000      1.00000000      1.00000000      1.00000000      1.00000000      1.00000000      1.00000000
      1.00000000      1.00000000      1.00000000      1.00000000      1.00000000      1.00000000      1.00000000      1.00000000      1.00000000      1.00000000      1.00000000      1.00000000      1.00000000      1.00000000      1.00000000      1.00000000      1.00000000      1.00000000      1.00000000      1.00000000
      1.00000000      1.00000000      1.00000000      1.00000000      1.00000000      1.00000000      1.00000000      1.00000000      1.00000000      1.00000000      1.00000000      1.00000000      1.00000000      1.00000000      1.00000000      1.00000000      1.00000000      1.00000000      1.00000000      1.00000000
      1.00000000      1.00000000      1.00000000      1.00000000      1.00000000      1.00000000      1.00000000      1.00000000      1.00000000      1.00000000      1.00000000      1.00000000      1.00000000      1.00000000      1.00000000      1.00000000      1.00000000      1.00000000      1.00000000      1.00000000
      1.00000000      1.00000000      1.00000000      1.00000000      1.00000000      1.00000000      1.00000000      1.00000000      1.00000000      1.00000000      1.00000000      1.00000000      1.00000000      1.00000000      1.00000000      1.00000000      1.00000000      1.00000000      1.00000000      1.00000000
      1.00000000      1.00000000      1.00000000      1.00000000      1.00000000      1.00000000      1.00000000      1.00000000      1.00000000      1.00000000      1.00000000      1.00000000      1.00000000      1.00000000      1.00000000      1.00000000      1.00000000      1.00000000      1.00000000      1.00000000
      1.00000000      1.00000000      1.00000000      1.00000000      1.00000000      1.00000000      1.00000000      1.00000000      1.00000000      1.00000000      1.00000000      1.00000000      1.00000000      1.00000000      1.00000000      1.00000000      1.00000000      1.00000000      1.00000000      1.00000000
      1.00000000      1.00000000      1.00000000      1.00000000      1.00000000      1.00000000      1.00000000      1.00000000      1.00000000      1.00000000      1.00000000      1.00000000      1.00000000      1.00000000      1.00000000      1.00000000      1.00000000      1.00000000      1.00000000      1.00000000
      1.00000000      1.00000000      1.00000000      1.00000000      1.00000000      1.00000000      1.00000000      1.00000000      1.00000000      1.00000000      1.00000000      1.00000000      1.00000000      1.00000000      1.00000000      1.00000000      1.00000000      1.00000000      1.00000000      1.00000000
      1.00000000      1.00000000      1.00000000      1.00000000      1.00000000      1.00000000      1.00000000      1.00000000      1.00000000      1.00000000      1.00000000      1.00000000      1.00000000      1.00000000      1.00000000      1.00000000      1.00000000      1.00000000      1.00000000      1.00000000
      1.00000000      1.00000000      1.00000000      1.00000000      1.00000000      1.00000000      1.00000000      1.00000000      1.00000000      1.00000000      1.00000000      1.00000000      1.00000000      1.00000000      1.00000000      1.00000000      1.00000000      1.00000000      1.00000000      1.00000000
      1.00000000      1.00000000      1.00000000      1.00000000      1.00000000      1.00000000      1.00000000      1.00000000      1.00000000      1.00000000      1.00000000      1.00000000      1.00000000      1.00000000      1.00000000      1.00000000      1.00000000      1.00000000      1.00000000      1.00000000
      1.00000000      1.00000000      1.00000000      1.00000000      1.00000000</v>
    <i name="NUPDOWN">     -1.00000000</i>
    <i type="logical" name="LSORBIT"> F  </i>
    <v name="SAXIS">      0.00000000      0.00000000      1.00000000</v>
    <i type="logical" name="LSPIRAL"> F  </i>
    <v name="QSPIRAL">      0.00000000      0.00000000      0.00000000</v>
    <i type="logical" name="LZEROZ"> F  </i>
   </separator>
   <separator name="electronic exchange-correlation" >
    <i type="logical" name="LASPH"> F  </i>
    <i type="logical" name="LMETAGGA"> F  </i>
   </separator>
   <separator name="electronic convergence" >
    <i type="int" name="NELM">   600</i>
    <i type="int" name="NELMDL">     0</i>
    <i type="int" name="NELMIN">     2</i>
    <i name="ENINI">    500.00000000</i>
    <separator name="electronic convergence detail" >
     <i type="logical" name="LDIAG"> T  </i>
     <i type="logical" name="LSUBROT"> F  </i>
     <i name="WEIMIN">      0.00000000</i>
     <i name="EBREAK">      0.00000003</i>
     <i name="DEPER">      0.30000000</i>
     <i type="int" name="NRMM">     4</i>
     <i name="TIME">      0.40000000</i>
    </separator>
   </separator>
   <separator name="electronic mixer" >
    <i name="AMIX">      0.40000000</i>
    <i name="BMIX">      0.01000000</i>
    <i name="AMIN">      0.01000000</i>
    <i name="AMIX_MAG">      1.60000000</i>
    <i name="BMIX_MAG">      0.01000000</i>
    <separator name="electronic mixer details" >
     <i type="int" name="IMIX">     4</i>
     <i type="logical" name="MIXFIRST"> F  </i>
     <i type="int" name="MAXMIX">   -45</i>
     <i name="WC">    100.00000000</i>
     <i type="int" name="INIMIX">     1</i>
     <i type="int" name="MIXPRE">     1</i>
     <i type="int" name="MREMOVE">     5</i>
    </separator>
   </separator>
   <separator name="electronic dipolcorrection" >
    <i type="logical" name="LDIPOL"> T  </i>
    <i type="logical" name="LMONO"> F  </i>
    <i type="int" name="IDIPOL">     3</i>
    <i name="EPSILON">      1.00000000</i>
    <v name="DIPOL">   -100.00000000   -100.00000000   -100.00000000</v>
    <i name="EFIELD">      0.00000000</i>
   </separator>
  </separator>
  <separator name="grids" >
   <i type="int" name="NGX">   100</i>
   <i type="int" name="NGY">   100</i>
   <i type="int" name="NGZ">   350</i>
   <i type="int" name="NGXF">   200</i>
   <i type="int" name="NGYF">   200</i>
   <i type="int" name="NGZF">   700</i>
   <i type="logical" name="ADDGRID"> F  </i>
  </separator>
  <separator name="ionic" >
   <i type="int" name="NSW">     0</i>
   <i type="int" name="IBRION">    -1</i>
   <i type="int" name="MDALGO">     0</i>
   <i type="int" name="ISIF">     2</i>
   <i name="PSTRESS">      0.00000000</i>
   <i name="EDIFFG">      0.00100000</i>
   <i type="int" name="NFREE">     0</i>
   <i name="POTIM">      0.50000000</i>
   <i name="SMASS">     -3.00000000</i>
   <i name="SCALEE">      1.00000000</i>
  </separator>
  <separator name="ionic md" >
   <i name="TEBEG">      0.00010000</i>
   <i name="TEEND">      0.00010000</i>
   <i type="int" name="NBLOCK">     1</i>
   <i type="int" name="KBLOCK">     1</i>
   <i type="int" name="NPACO">   256</i>
   <i name="APACO">     16.00000000</i>
  </separator>
  <separator name="symmetry" >
   <i type="int" name="ISYM">     0</i>
   <i name="SYMPREC">      0.00001000</i>
  </separator>
  <separator name="dos" >
   <i type="int" name="LORBIT">     0</i>
   <v name="RWIGS">     -1.00000000     -1.00000000     -1.00000000     -1.00000000     -1.00000000</v>
   <i type="int" name="NEDOS">   301</i>
   <i name="EMIN">     10.00000000</i>
   <i name="EMAX">    -10.00000000</i>
   <i name="EFERMI">      0.00000000</i>
  </separator>
  <separator name="writing" >
   <i type="int" name="NWRITE">     2</i>
   <i type="logical" name="LWAVE"> F  </i>
   <i type="logical" name="LDOWNSAMPLE"> F  </i>
   <i type="logical" name="LCHARG"> T  </i>
   <i type="logical" name="LPARD"> F  </i>
   <i type="logical" name="LVTOT"> T  </i>
   <i type="logical" name="LVHAR"> F  </i>
   <i type="logical" name="LELF"> F  </i>
   <i type="logical" name="LOPTICS"> F  </i>
   <v name="STM">      0.00000000      0.00000000      0.00000000      0.00000000      0.00000000      0.00000000      0.00000000</v>
  </separator>
  <separator name="performance" >
   <i type="int" name="NPAR">     4</i>
   <i type="int" name="NSIM">     4</i>
   <i type="int" name="NBLK">    -1</i>
   <i type="logical" name="LPLANE"> T  </i>
   <i type="logical" name="LSCALAPACK"> T  </i>
   <i type="logical" name="LSCAAWARE"> F  </i>
   <i type="logical" name="LSCALU"> F  </i>
   <i type="logical" name="LASYNC"> F  </i>
   <i type="logical" name="LORBITALREAL"> F  </i>
  </separator>
  <separator name="miscellaneous" >
   <i type="int" name="IDIOT">     3</i>
   <i type="int" name="PHON_NSTRUCT">    -1</i>
   <i type="logical" name="LMUSIC"> F  </i>
   <v name="POMASS">      1.00000000     12.01100000     14.00100000    126.90400000    207.20000000</v>
   <v name="DARWINR">      0.00000000      0.00000000      0.00000000      0.00000000      0.00000000</v>
   <v name="DARWINV">      1.00000000      1.00000000      1.00000000      1.00000000      1.00000000</v>
   <i type="logical" name="LCORR"> T  </i>
  </separator>
  <i type="logical" name="GGA_COMPAT"> F  </i>
  <i type="logical" name="LBERRY"> F  </i>
  <i type="int" name="ICORELEVEL">     0</i>
  <i type="logical" name="LDAU"> F  </i>
  <i type="int" name="I_CONSTRAINED_M">     0</i>
  <separator name="electronic exchange-correlation" >
   <i type="string" name="GGA">--</i>
   <i type="int" name="VOSKOWN">     0</i>
   <i type="logical" name="LHFCALC"> F  </i>
   <i type="string" name="PRECFOCK"></i>
   <i type="logical" name="LSYMGRAD"> F  </i>
   <i type="logical" name="LHFONE"> F  </i>
   <i type="logical" name="LRHFCALC"> F  </i>
   <i type="logical" name="LTHOMAS"> F  </i>
   <i type="logical" name="LMODELHF"> F  </i>
   <i type="logical" name="LFOCKACE"> F  </i>
   <i name="ENCUT4O">     -1.00000000</i>
   <i type="int" name="EXXOEP">     0</i>
   <i type="int" name="FOURORBIT">     0</i>
   <i name="AEXX">      0.00000000</i>
   <i name="HFALPHA">      0.00000000</i>
   <i name="MCALPHA">      0.00000000</i>
   <i name="ALDAX">      1.00000000</i>
   <i name="AGGAX">      1.00000000</i>
   <i name="ALDAC">      1.00000000</i>
   <i name="AGGAC">      1.00000000</i>
   <i type="int" name="NKREDX">     1</i>
   <i type="int" name="NKREDY">     1</i>
   <i type="int" name="NKREDZ">     1</i>
   <i type="logical" name="SHIFTRED"> F  </i>
   <i type="logical" name="ODDONLY"> F  </i>
   <i type="logical" name="EVENONLY"> F  </i>
   <i type="int" name="LMAXFOCK">     0</i>
   <i type="int" name="NMAXFOCKAE">     0</i>
   <i type="logical" name="LFOCKAEDFT"> F  </i>
   <i name="HFSCREEN">      0.00000000</i>
   <i name="HFSCREENC">      0.00000000</i>
   <i type="int" name="NBANDSGWLOW">     0</i>
  </separator>
  <separator name="vdW DFT" >
   <i type="logical" name="LUSE_VDW"> F  </i>
   <i name="Zab_VDW">     -0.84910000</i>
   <i name="PARAM1">      0.12340000</i>
   <i name="PARAM2">      1.00000000</i>
   <i name="PARAM3">      0.00000000</i>
  </separator>
  <separator name="model GW" >
   <i type="int" name="MODEL_GW">     0</i>
   <i name="MODEL_EPS0">     37.63423484</i>
   <i name="MODEL_ALPHA">      1.00000000</i>
  </separator>
  <separator name="linear response parameters" >
   <i type="logical" name="LEPSILON"> F  </i>
   <i type="logical" name="LRPA"> F  </i>
   <i type="logical" name="LNABLA"> F  </i>
   <i type="logical" name="LVEL"> F  </i>
   <i type="int" name="KINTER">     0</i>
   <i name="CSHIFT">      0.10000000</i>
   <i name="OMEGAMAX">     -1.00000000</i>
   <i name="DEG_THRESHOLD">      0.00200000</i>
   <i name="RTIME">     -0.10000000</i>
   <i name="WPLASMAI">      0.00000000</i>
   <v name="DFIELD">      0.00000000      0.00000000      0.00000000</v>
   <v name="WPLASMA">      0.00000000      0.00000000      0.00000000      0.00000000      0.00000000      0.00000000      0.00000000      0.00000000      0.00000000</v>
  </separator>
  <separator name="orbital magnetization" >
   <i type="logical" name="NUCIND"> F  </i>
   <v name="MAGPOS">      0.00000000      0.00000000      0.00000000</v>
   <i type="logical" name="LNICSALL"> T  </i>
   <i type="logical" name="ORBITALMAG"> F  </i>
   <i type="logical" name="LMAGBLOCH"> F  </i>
   <i type="logical" name="LCHIMAG"> F  </i>
   <i type="logical" name="LGAUGE"> T  </i>
   <i type="int" name="MAGATOM">     0</i>
   <v name="MAGDIPOL">      0.00000000      0.00000000      0.00000000</v>
   <v name="AVECCONST">      0.00000000      0.00000000      0.00000000</v>
  </separator>
  <separator name="response functions" >
   <i type="logical" name="LFINITE_TEMPERATURE"> F  </i>
   <i type="logical" name="LADDER"> F  </i>
   <i type="logical" name="LRPAFORCE"> F  </i>
   <i type="logical" name="LFXC"> F  </i>
   <i type="logical" name="LHARTREE"> T  </i>
   <i type="int" name="IBSE">     0</i>
   <v type="int" name="KPOINT">    -1     0     0     0</v>
   <i type="logical" name="LTCTC"> F  </i>
   <i type="logical" name="LTCTE"> F  </i>
   <i type="logical" name="LTETE"> F  </i>
   <i type="logical" name="LTRIPLET"> F  </i>
   <i type="logical" name="LFXCEPS"> F  </i>
   <i type="logical" name="LFXHEG"> F  </i>
   <i type="int" name="NATURALO">     2</i>
   <i type="logical" name="LHOLEGF"> F  </i>
   <i type="logical" name="L2ORDER"> F  </i>
   <i type="logical" name="LDMP1"> F  </i>
   <i type="logical" name="LMP2LT"> F  </i>
   <i type="logical" name="LSMP2LT"> F  </i>
   <i type="logical" name="LGWLF"> F  </i>
   <i name="ENCUTGW">     -2.00000000</i>
   <i name="ENCUTGWSOFT">     -2.00000000</i>
   <i name="ENCUTLF">     -1.00000000</i>
   <i type="logical" name="LESF_SPLINES"> F  </i>
   <i type="int" name="LMAXMP2">    -1</i>
   <i name="SCISSOR">      0.00000000</i>
   <i type="int" name="NOMEGA">     0</i>
   <i type="int" name="NOMEGAR">     0</i>
   <i type="int" name="NBANDSGW">    -1</i>
   <i type="int" name="NBANDSO">    -1</i>
   <i type="int" name="NBANDSV">    -1</i>
   <i type="int" name="NELM">   600</i>
   <i type="int" name="NELMHF">     1</i>
   <i type="int" name="DIM">     3</i>
   <i type="int" name="IESPILON">     4</i>
   <i type="int" name="ANTIRES">     0</i>
   <i name="OMEGAMAX">    -30.00000000</i>
   <i name="OMEGAMIN">    -30.00000000</i>
   <i name="OMEGATL">   -200.00000000</i>
   <i type="int" name="OMEGAGRID">     0</i>
   <i name="CSHIFT">     -0.10000000</i>
   <i type="logical" name="LSELFENERGY"> F  </i>
   <i type="logical" name="LSPECTRAL"> F  </i>
   <i type="logical" name="LSPECTRALGW"> F  </i>
   <i type="logical" name="LSINGLES"> F  </i>
   <i type="logical" name="LFERMIGW"> F  </i>
   <i type="logical" name="ODDONLYGW"> F  </i>
   <i type="logical" name="EVENONLYGW"> F  </i>
   <i type="int" name="NKREDLFX">     1</i>
   <i type="int" name="NKREDLFY">     1</i>
   <i type="int" name="NKREDLFZ">     1</i>
   <i type="int" name="MAXMEM">  2800</i>
   <i type="int" name="TELESCOPE">     0</i>
   <i type="int" name="NTAUPAR">    -1</i>
   <i type="int" name="NOMEGAPAR">    -1</i>
   <i name="DAMP_NEWTON">      0.80000001</i>
   <i name="LAMBDA">      1.00000000</i>
  </separator>
  <separator name="External order field" >
   <i name="OFIELD_KAPPA">      0.00000000</i>
   <v name="OFIELD_K">      0.00000000      0.00000000      0.00000000</v>
   <i name="OFIELD_Q6_NEAR">      0.00000000</i>
   <i name="OFIELD_Q6_FAR">      0.00000000</i>
   <i name="OFIELD_A">      0.00000000</i>
  </separator>
 </parameters>
 <atominfo>
  <atoms>     325 </atoms>
  <types>       5 </types>
  <array name="atoms" >
   <dimension dim="1">ion</dimension>
   <field type="string">element</field>
   <field type="int">atomtype</field>
   <set>
    <rc><c>H </c><c>   1</c></rc>
    <rc><c>H </c><c>   1</c></rc>
    <rc><c>H </c><c>   1</c></rc>
    <rc><c>H </c><c>   1</c></rc>
    <rc><c>H </c><c>   1</c></rc>
    <rc><c>H </c><c>   1</c></rc>
    <rc><c>H </c><c>   1</c></rc>
    <rc><c>H </c><c>   1</c></rc>
    <rc><c>H </c><c>   1</c></rc>
    <rc><c>H </c><c>   1</c></rc>
    <rc><c>H </c><c>   1</c></rc>
    <rc><c>H </c><c>   1</c></rc>
    <rc><c>H </c><c>   1</c></rc>
    <rc><c>H </c><c>   1</c></rc>
    <rc><c>H </c><c>   1</c></rc>
    <rc><c>H </c><c>   1</c></rc>
    <rc><c>H </c><c>   1</c></rc>
    <rc><c>H </c><c>   1</c></rc>
    <rc><c>H </c><c>   1</c></rc>
    <rc><c>H </c><c>   1</c></rc>
    <rc><c>H </c><c>   1</c></rc>
    <rc><c>H </c><c>   1</c></rc>
    <rc><c>H </c><c>   1</c></rc>
    <rc><c>H </c><c>   1</c></rc>
    <rc><c>H </c><c>   1</c></rc>
    <rc><c>H </c><c>   1</c></rc>
    <rc><c>H </c><c>   1</c></rc>
    <rc><c>H </c><c>   1</c></rc>
    <rc><c>H </c><c>   1</c></rc>
    <rc><c>H </c><c>   1</c></rc>
    <rc><c>H </c><c>   1</c></rc>
    <rc><c>H </c><c>   1</c></rc>
    <rc><c>H </c><c>   1</c></rc>
    <rc><c>H </c><c>   1</c></rc>
    <rc><c>H </c><c>   1</c></rc>
    <rc><c>H </c><c>   1</c></rc>
    <rc><c>H </c><c>   1</c></rc>
    <rc><c>H </c><c>   1</c></rc>
    <rc><c>H </c><c>   1</c></rc>
    <rc><c>H </c><c>   1</c></rc>
    <rc><c>H </c><c>   1</c></rc>
    <rc><c>H </c><c>   1</c></rc>
    <rc><c>H </c><c>   1</c></rc>
    <rc><c>H </c><c>   1</c></rc>
    <rc><c>H </c><c>   1</c></rc>
    <rc><c>H </c><c>   1</c></rc>
    <rc><c>H </c><c>   1</c></rc>
    <rc><c>H </c><c>   1</c></rc>
    <rc><c>H </c><c>   1</c></rc>
    <rc><c>H </c><c>   1</c></rc>
    <rc><c>H </c><c>   1</c></rc>
    <rc><c>H </c><c>   1</c></rc>
    <rc><c>H </c><c>   1</c></rc>
    <rc><c>H </c><c>   1</c></rc>
    <rc><c>H </c><c>   1</c></rc>
    <rc><c>H </c><c>   1</c></rc>
    <rc><c>H </c><c>   1</c></rc>
    <rc><c>H </c><c>   1</c></rc>
    <rc><c>H </c><c>   1</c></rc>
    <rc><c>H </c><c>   1</c></rc>
    <rc><c>H </c><c>   1</c></rc>
    <rc><c>H </c><c>   1</c></rc>
    <rc><c>H </c><c>   1</c></rc>
    <rc><c>H </c><c>   1</c></rc>
    <rc><c>H </c><c>   1</c></rc>
    <rc><c>H </c><c>   1</c></rc>
    <rc><c>H </c><c>   1</c></rc>
    <rc><c>H </c><c>   1</c></rc>
    <rc><c>H </c><c>   1</c></rc>
    <rc><c>H </c><c>   1</c></rc>
    <rc><c>H </c><c>   1</c></rc>
    <rc><c>H </c><c>   1</c></rc>
    <rc><c>H </c><c>   1</c></rc>
    <rc><c>H </c><c>   1</c></rc>
    <rc><c>H </c><c>   1</c></rc>
    <rc><c>H </c><c>   1</c></rc>
    <rc><c>H </c><c>   1</c></rc>
    <rc><c>H </c><c>   1</c></rc>
    <rc><c>H </c><c>   1</c></rc>
    <rc><c>H </c><c>   1</c></rc>
    <rc><c>H </c><c>   1</c></rc>
    <rc><c>H </c><c>   1</c></rc>
    <rc><c>H </c><c>   1</c></rc>
    <rc><c>H </c><c>   1</c></rc>
    <rc><c>H </c><c>   1</c></rc>
    <rc><c>H </c><c>   1</c></rc>
    <rc><c>H </c><c>   1</c></rc>
    <rc><c>H </c><c>   1</c></rc>
    <rc><c>H </c><c>   1</c></rc>
    <rc><c>H </c><c>   1</c></rc>
    <rc><c>H </c><c>   1</c></rc>
    <rc><c>H </c><c>   1</c></rc>
    <rc><c>H </c><c>   1</c></rc>
    <rc><c>H </c><c>   1</c></rc>
    <rc><c>H </c><c>   1</c></rc>
    <rc><c>H </c><c>   1</c></rc>
    <rc><c>H </c><c>   1</c></rc>
    <rc><c>H </c><c>   1</c></rc>
    <rc><c>H </c><c>   1</c></rc>
    <rc><c>H </c><c>   1</c></rc>
    <rc><c>H </c><c>   1</c></rc>
    <rc><c>H </c><c>   1</c></rc>
    <rc><c>H </c><c>   1</c></rc>
    <rc><c>H </c><c>   1</c></rc>
    <rc><c>H </c><c>   1</c></rc>
    <rc><c>H </c><c>   1</c></rc>
    <rc><c>H </c><c>   1</c></rc>
    <rc><c>H </c><c>   1</c></rc>
    <rc><c>H </c><c>   1</c></rc>
    <rc><c>H </c><c>   1</c></rc>
    <rc><c>H </c><c>   1</c></rc>
    <rc><c>H </c><c>   1</c></rc>
    <rc><c>H </c><c>   1</c></rc>
    <rc><c>H </c><c>   1</c></rc>
    <rc><c>H </c><c>   1</c></rc>
    <rc><c>H </c><c>   1</c></rc>
    <rc><c>H </c><c>   1</c></rc>
    <rc><c>H </c><c>   1</c></rc>
    <rc><c>H </c><c>   1</c></rc>
    <rc><c>H </c><c>   1</c></rc>
    <rc><c>H </c><c>   1</c></rc>
    <rc><c>H </c><c>   1</c></rc>
    <rc><c>H </c><c>   1</c></rc>
    <rc><c>H </c><c>   1</c></rc>
    <rc><c>H </c><c>   1</c></rc>
    <rc><c>H </c><c>   1</c></rc>
    <rc><c>H </c><c>   1</c></rc>
    <rc><c>H </c><c>   1</c></rc>
    <rc><c>H </c><c>   1</c></rc>
    <rc><c>H </c><c>   1</c></rc>
    <rc><c>H </c><c>   1</c></rc>
    <rc><c>H </c><c>   1</c></rc>
    <rc><c>H </c><c>   1</c></rc>
    <rc><c>H </c><c>   1</c></rc>
    <rc><c>H </c><c>   1</c></rc>
    <rc><c>H </c><c>   1</c></rc>
    <rc><c>H </c><c>   1</c></rc>
    <rc><c>H </c><c>   1</c></rc>
    <rc><c>H </c><c>   1</c></rc>
    <rc><c>H </c><c>   1</c></rc>
    <rc><c>H </c><c>   1</c></rc>
    <rc><c>H </c><c>   1</c></rc>
    <rc><c>H </c><c>   1</c></rc>
    <rc><c>C </c><c>   2</c></rc>
    <rc><c>C </c><c>   2</c></rc>
    <rc><c>C </c><c>   2</c></rc>
    <rc><c>C </c><c>   2</c></rc>
    <rc><c>C </c><c>   2</c></rc>
    <rc><c>C </c><c>   2</c></rc>
    <rc><c>C </c><c>   2</c></rc>
    <rc><c>C </c><c>   2</c></rc>
    <rc><c>C </c><c>   2</c></rc>
    <rc><c>C </c><c>   2</c></rc>
    <rc><c>C </c><c>   2</c></rc>
    <rc><c>C </c><c>   2</c></rc>
    <rc><c>C </c><c>   2</c></rc>
    <rc><c>C </c><c>   2</c></rc>
    <rc><c>C </c><c>   2</c></rc>
    <rc><c>C </c><c>   2</c></rc>
    <rc><c>C </c><c>   2</c></rc>
    <rc><c>C </c><c>   2</c></rc>
    <rc><c>C </c><c>   2</c></rc>
    <rc><c>C </c><c>   2</c></rc>
    <rc><c>C </c><c>   2</c></rc>
    <rc><c>C </c><c>   2</c></rc>
    <rc><c>C </c><c>   2</c></rc>
    <rc><c>C </c><c>   2</c></rc>
    <rc><c>C </c><c>   2</c></rc>
    <rc><c>C </c><c>   2</c></rc>
    <rc><c>C </c><c>   2</c></rc>
    <rc><c>C </c><c>   2</c></rc>
    <rc><c>C </c><c>   2</c></rc>
    <rc><c>C </c><c>   2</c></rc>
    <rc><c>C </c><c>   2</c></rc>
    <rc><c>C </c><c>   2</c></rc>
    <rc><c>C </c><c>   2</c></rc>
    <rc><c>C </c><c>   2</c></rc>
    <rc><c>C </c><c>   2</c></rc>
    <rc><c>C </c><c>   2</c></rc>
    <rc><c>C </c><c>   2</c></rc>
    <rc><c>C </c><c>   2</c></rc>
    <rc><c>C </c><c>   2</c></rc>
    <rc><c>N </c><c>   3</c></rc>
    <rc><c>N </c><c>   3</c></rc>
    <rc><c>N </c><c>   3</c></rc>
    <rc><c>N </c><c>   3</c></rc>
    <rc><c>N </c><c>   3</c></rc>
    <rc><c>N </c><c>   3</c></rc>
    <rc><c>N </c><c>   3</c></rc>
    <rc><c>N </c><c>   3</c></rc>
    <rc><c>N </c><c>   3</c></rc>
    <rc><c>N </c><c>   3</c></rc>
    <rc><c>N </c><c>   3</c></rc>
    <rc><c>N </c><c>   3</c></rc>
    <rc><c>N </c><c>   3</c></rc>
    <rc><c>N </c><c>   3</c></rc>
    <rc><c>N </c><c>   3</c></rc>
    <rc><c>N </c><c>   3</c></rc>
    <rc><c>N </c><c>   3</c></rc>
    <rc><c>N </c><c>   3</c></rc>
    <rc><c>N </c><c>   3</c></rc>
    <rc><c>N </c><c>   3</c></rc>
    <rc><c>N </c><c>   3</c></rc>
    <rc><c>N </c><c>   3</c></rc>
    <rc><c>N </c><c>   3</c></rc>
    <rc><c>N </c><c>   3</c></rc>
    <rc><c>N </c><c>   3</c></rc>
    <rc><c>N </c><c>   3</c></rc>
    <rc><c>N </c><c>   3</c></rc>
    <rc><c>N </c><c>   3</c></rc>
    <rc><c>N </c><c>   3</c></rc>
    <rc><c>N </c><c>   3</c></rc>
    <rc><c>N </c><c>   3</c></rc>
    <rc><c>N </c><c>   3</c></rc>
    <rc><c>N </c><c>   3</c></rc>
    <rc><c>N </c><c>   3</c></rc>
    <rc><c>N </c><c>   3</c></rc>
    <rc><c>N </c><c>   3</c></rc>
    <rc><c>N </c><c>   3</c></rc>
    <rc><c>N </c><c>   3</c></rc>
    <rc><c>N </c><c>   3</c></rc>
    <rc><c>N </c><c>   3</c></rc>
    <rc><c>N </c><c>   3</c></rc>
    <rc><c>N </c><c>   3</c></rc>
    <rc><c>N </c><c>   3</c></rc>
    <rc><c>N </c><c>   3</c></rc>
    <rc><c>N </c><c>   3</c></rc>
    <rc><c>N </c><c>   3</c></rc>
    <rc><c>N </c><c>   3</c></rc>
    <rc><c>I </c><c>   4</c></rc>
    <rc><c>I </c><c>   4</c></rc>
    <rc><c>I </c><c>   4</c></rc>
    <rc><c>I </c><c>   4</c></rc>
    <rc><c>I </c><c>   4</c></rc>
    <rc><c>I </c><c>   4</c></rc>
    <rc><c>I </c><c>   4</c></rc>
    <rc><c>I </c><c>   4</c></rc>
    <rc><c>I </c><c>   4</c></rc>
    <rc><c>I </c><c>   4</c></rc>
    <rc><c>I </c><c>   4</c></rc>
    <rc><c>I </c><c>   4</c></rc>
    <rc><c>I </c><c>   4</c></rc>
    <rc><c>I </c><c>   4</c></rc>
    <rc><c>I </c><c>   4</c></rc>
    <rc><c>I </c><c>   4</c></rc>
    <rc><c>I </c><c>   4</c></rc>
    <rc><c>I </c><c>   4</c></rc>
    <rc><c>I </c><c>   4</c></rc>
    <rc><c>I </c><c>   4</c></rc>
    <rc><c>I </c><c>   4</c></rc>
    <rc><c>I </c><c>   4</c></rc>
    <rc><c>I </c><c>   4</c></rc>
    <rc><c>I </c><c>   4</c></rc>
    <rc><c>I </c><c>   4</c></rc>
    <rc><c>I </c><c>   4</c></rc>
    <rc><c>I </c><c>   4</c></rc>
    <rc><c>I </c><c>   4</c></rc>
    <rc><c>I </c><c>   4</c></rc>
    <rc><c>I </c><c>   4</c></rc>
    <rc><c>I </c><c>   4</c></rc>
    <rc><c>I </c><c>   4</c></rc>
    <rc><c>I </c><c>   4</c></rc>
    <rc><c>I </c><c>   4</c></rc>
    <rc><c>I </c><c>   4</c></rc>
    <rc><c>I </c><c>   4</c></rc>
    <rc><c>I </c><c>   4</c></rc>
    <rc><c>I </c><c>   4</c></rc>
    <rc><c>I </c><c>   4</c></rc>
    <rc><c>I </c><c>   4</c></rc>
    <rc><c>I </c><c>   4</c></rc>
    <rc><c>I </c><c>   4</c></rc>
    <rc><c>I </c><c>   4</c></rc>
    <rc><c>I </c><c>   4</c></rc>
    <rc><c>I </c><c>   4</c></rc>
    <rc><c>I </c><c>   4</c></rc>
    <rc><c>I </c><c>   4</c></rc>
    <rc><c>I </c><c>   4</c></rc>
    <rc><c>I </c><c>   4</c></rc>
    <rc><c>I </c><c>   4</c></rc>
    <rc><c>I </c><c>   4</c></rc>
    <rc><c>I </c><c>   4</c></rc>
    <rc><c>I </c><c>   4</c></rc>
    <rc><c>I </c><c>   4</c></rc>
    <rc><c>I </c><c>   4</c></rc>
    <rc><c>I </c><c>   4</c></rc>
    <rc><c>I </c><c>   4</c></rc>
    <rc><c>I </c><c>   4</c></rc>
    <rc><c>I </c><c>   4</c></rc>
    <rc><c>I </c><c>   4</c></rc>
    <rc><c>I </c><c>   4</c></rc>
    <rc><c>I </c><c>   4</c></rc>
    <rc><c>I </c><c>   4</c></rc>
    <rc><c>I </c><c>   4</c></rc>
    <rc><c>I </c><c>   4</c></rc>
    <rc><c>I </c><c>   4</c></rc>
    <rc><c>I </c><c>   4</c></rc>
    <rc><c>I </c><c>   4</c></rc>
    <rc><c>I </c><c>   4</c></rc>
    <rc><c>I </c><c>   4</c></rc>
    <rc><c>I </c><c>   4</c></rc>
    <rc><c>I </c><c>   4</c></rc>
    <rc><c>Pb</c><c>   5</c></rc>
    <rc><c>Pb</c><c>   5</c></rc>
    <rc><c>Pb</c><c>   5</c></rc>
    <rc><c>Pb</c><c>   5</c></rc>
    <rc><c>Pb</c><c>   5</c></rc>
    <rc><c>Pb</c><c>   5</c></rc>
    <rc><c>Pb</c><c>   5</c></rc>
    <rc><c>Pb</c><c>   5</c></rc>
    <rc><c>Pb</c><c>   5</c></rc>
    <rc><c>Pb</c><c>   5</c></rc>
    <rc><c>Pb</c><c>   5</c></rc>
    <rc><c>Pb</c><c>   5</c></rc>
    <rc><c>Pb</c><c>   5</c></rc>
    <rc><c>Pb</c><c>   5</c></rc>
    <rc><c>Pb</c><c>   5</c></rc>
    <rc><c>Pb</c><c>   5</c></rc>
    <rc><c>Pb</c><c>   5</c></rc>
    <rc><c>Pb</c><c>   5</c></rc>
    <rc><c>Pb</c><c>   5</c></rc>
    <rc><c>Pb</c><c>   5</c></rc>
    <rc><c>Pb</c><c>   5</c></rc>
    <rc><c>Pb</c><c>   5</c></rc>
    <rc><c>Pb</c><c>   5</c></rc>
    <rc><c>Pb</c><c>   5</c></rc>
   </set>
  </array>
  <array name="atomtypes" >
   <dimension dim="1">type</dimension>
   <field type="int">atomspertype</field>
   <field type="string">element</field>
   <field>mass</field>
   <field>valence</field>
   <field type="string">pseudopotential</field>
   <set>
    <rc><c> 143</c><c>H </c><c>      1.00000000</c><c>      1.00000000</c><c>  PAW_PBE H 15Jun2001                   </c></rc>
    <rc><c>  39</c><c>C </c><c>     12.01100000</c><c>      4.00000000</c><c>  PAW_PBE C 08Apr2002                   </c></rc>
    <rc><c>  47</c><c>N </c><c>     14.00100000</c><c>      5.00000000</c><c>  PAW_PBE N 08Apr2002                   </c></rc>
    <rc><c>  72</c><c>I </c><c>    126.90400000</c><c>      7.00000000</c><c>  PAW_PBE I 08Apr2002                   </c></rc>
    <rc><c>  24</c><c>Pb</c><c>    207.20000000</c><c>      4.00000000</c><c>  PAW_PBE Pb 08Apr2002                  </c></rc>
   </set>
  </array>
 </atominfo>
 <structure name="initialpos" >
  <crystal>
   <varray name="basis" >
    <v>      18.06080055       0.00000000       0.00000000 </v>
    <v>      -0.00491865      18.06279945       0.00000000 </v>
    <v>       0.00000000       0.00000000      62.48749924 </v>
   </varray>
   <i name="volume">  20385.21054034 </i>
   <varray name="rec_basis" >
    <v>       0.05536853       0.00001508      -0.00000000 </v>
    <v>       0.00000000       0.05536240       0.00000000 </v>
    <v>       0.00000000      -0.00000000       0.01600320 </v>
   </varray>
  </crystal>
  <varray name="positions" >
   <v>       0.41788012       0.26266231       0.57232663 </v>
   <v>       0.40943664       0.71507324       0.57395098 </v>
   <v>       0.92273289       0.28075886       0.58120298 </v>
   <v>       0.93589846       0.81341382       0.57500008 </v>
   <v>       0.32194805       0.08270022       0.57038966 </v>
   <v>       0.31295057       0.57975167       0.57091668 </v>
   <v>       0.79935320       0.08596500       0.57451793 </v>
   <v>       0.10846873       0.23615599       0.56438944 </v>
   <v>       0.08239811       0.67695314       0.56923995 </v>
   <v>       0.60424174       0.19616649       0.56597984 </v>
   <v>       0.60120358       0.73616090       0.55994635 </v>
   <v>       0.37802259       0.01567523       0.55803123 </v>
   <v>       0.25245126       0.62213159       0.55296924 </v>
   <v>       0.87244608       0.03592694       0.56267895 </v>
   <v>       0.06026488       0.28416178       0.58359323 </v>
   <v>       0.99798708       0.69082932       0.58206765 </v>
   <v>       0.51782516       0.17181266       0.57621468 </v>
   <v>       0.54392382       0.68434951       0.57644672 </v>
   <v>       0.29973166       0.44319083       0.57632102 </v>
   <v>       0.18475795       0.05729813       0.57038801 </v>
   <v>       0.67404495       0.02647770       0.57248566 </v>
   <v>       0.44303517       0.34843121       0.56055358 </v>
   <v>       0.38210983       0.78546245       0.55666462 </v>
   <v>       0.88327948       0.22870867       0.56090705 </v>
   <v>       0.98262673       0.87343762       0.55808049 </v>
   <v>       0.22711076       0.40052865       0.56272437 </v>
   <v>       0.15475350       0.98204596       0.55558689 </v>
   <v>       0.67222517       0.93763676       0.56063423 </v>
   <v>       0.56146373       0.30918055       0.55326477 </v>
   <v>       0.50632716       0.80689135       0.54584227 </v>
   <v>       0.00088400       0.19413689       0.54685529 </v>
   <v>       0.07934911       0.79049470       0.55167522 </v>
   <v>       0.18721037       0.50998674       0.54669241 </v>
   <v>       0.27538205       0.94373695       0.54731845 </v>
   <v>       0.79622601       0.93742329       0.55280600 </v>
   <v>       0.45360996       0.28516203       0.67656122 </v>
   <v>       0.43326797       0.81824650       0.67119608 </v>
   <v>       0.96764136       0.27923287       0.68018310 </v>
   <v>       0.92403948       0.75862828       0.67199818 </v>
   <v>       0.29875504       0.04640313       0.67439136 </v>
   <v>       0.31246644       0.55134350       0.67281688 </v>
   <v>       0.79326004       0.05823447       0.67514053 </v>
   <v>       0.81865121       0.52707049       0.67366031 </v>
   <v>       0.08692934       0.16708529       0.64603742 </v>
   <v>       0.09981419       0.68843299       0.65188045 </v>
   <v>       0.57714050       0.17260785       0.64358209 </v>
   <v>       0.56743460       0.67620932       0.65550025 </v>
   <v>       0.18091781       0.41148906       0.65373397 </v>
   <v>       0.16366147       0.92480600       0.64758778 </v>
   <v>       0.65283390       0.44691529       0.64986155 </v>
   <v>       0.67313420       0.91849627       0.65071041 </v>
   <v>       0.06796038       0.18272733       0.67306132 </v>
   <v>       0.02923856       0.66607275       0.66965512 </v>
   <v>       0.54562696       0.18029121       0.66993667 </v>
   <v>       0.52887951       0.71634323       0.67836670 </v>
   <v>       0.21984212       0.44390582       0.67752498 </v>
   <v>       0.18729609       0.95312221       0.67344708 </v>
   <v>       0.70563902       0.44279921       0.67320319 </v>
   <v>       0.69641757       0.95325463       0.67590753 </v>
   <v>       0.43508511       0.34102150       0.65460243 </v>
   <v>       0.41577287       0.83535675       0.64395277 </v>
   <v>       0.92898488       0.31982776       0.65750791 </v>
   <v>       0.93228158       0.83634597       0.65578723 </v>
   <v>       0.33809777       0.06395658       0.64953012 </v>
   <v>       0.32224145       0.58299255       0.64639534 </v>
   <v>       0.82582712       0.08081435       0.64942445 </v>
   <v>       0.83244789       0.58007574       0.65082500 </v>
   <v>       0.00037509       0.25288885       0.63430967 </v>
   <v>       0.04338415       0.79696886       0.64079815 </v>
   <v>       0.51229207       0.27469481       0.63163604 </v>
   <v>       0.49931818       0.74795971       0.63203663 </v>
   <v>       0.25684440       0.98907597       0.63084059 </v>
   <v>       0.24149551       0.49673863       0.63238546 </v>
   <v>       0.75408092       0.99486956       0.63228564 </v>
   <v>       0.72642217       0.53507552       0.63397348 </v>
   <v>       0.44874502       0.30128397       0.76888902 </v>
   <v>       0.44874501       0.80128391       0.76888902 </v>
   <v>       0.94874497       0.30128397       0.76888902 </v>
   <v>       0.94874501       0.80128391       0.76888902 </v>
   <v>       0.30127600       0.05129450       0.76887296 </v>
   <v>       0.30127601       0.55129450       0.76887296 </v>
   <v>       0.80127594       0.05129450       0.76887296 </v>
   <v>       0.80127598       0.55129450       0.76887296 </v>
   <v>       0.07877100       0.17118050       0.74344197 </v>
   <v>       0.07877101       0.67118045       0.74344197 </v>
   <v>       0.57877100       0.17118050       0.74344197 </v>
   <v>       0.57877099       0.67118045       0.74344197 </v>
   <v>       0.17119950       0.42117448       0.74342103 </v>
   <v>       0.17119950       0.92117451       0.74342103 </v>
   <v>       0.67119951       0.42117448       0.74342103 </v>
   <v>       0.67119950       0.92117451       0.74342103 </v>
   <v>       0.05125600       0.19871499       0.76888902 </v>
   <v>       0.05125600       0.69871493       0.76888902 </v>
   <v>       0.55125603       0.19871499       0.76888902 </v>
   <v>       0.55125602       0.69871493       0.76888902 </v>
   <v>       0.19872349       0.44870397       0.76887205 </v>
   <v>       0.19872349       0.94870397       0.76887205 </v>
   <v>       0.69872352       0.44870397       0.76887205 </v>
   <v>       0.69872351       0.94870397       0.76887205 </v>
   <v>       0.42123152       0.32881747       0.74344197 </v>
   <v>       0.42123151       0.82881744       0.74344197 </v>
   <v>       0.92123147       0.32881747       0.74344197 </v>
   <v>       0.92123151       0.82881744       0.74344197 </v>
   <v>       0.32880050       0.07882500       0.74342103 </v>
   <v>       0.32880049       0.57882496       0.74342103 </v>
   <v>       0.82880048       0.07882500       0.74342103 </v>
   <v>       0.82880052       0.57882496       0.74342103 </v>
   <v>       0.00000350       0.25000148       0.72582199 </v>
   <v>       0.00000350       0.75000145       0.72582199 </v>
   <v>       0.50000351       0.25000148       0.72582199 </v>
   <v>       0.50000350       0.75000145       0.72582199 </v>
   <v>       0.25000050       0.00000000       0.72580398 </v>
   <v>       0.25000052       0.50000000       0.72580398 </v>
   <v>       0.75000050       0.00000000       0.72580398 </v>
   <v>       0.75000049       0.50000000       0.72580398 </v>
   <v>       0.79656587       0.51101392       0.51599005 </v>
   <v>       0.87691457       0.50277014       0.53255824 </v>
   <v>       0.76051214       0.62717932       0.53473757 </v>
   <v>       0.76757219       0.62833765       0.56285580 </v>
   <v>       0.68435416       0.45130362       0.55279392 </v>
   <v>       0.67109659       0.54484574       0.56070907 </v>
   <v>       0.80025807       0.42769777       0.56858772 </v>
   <v>       0.86750987       0.50038637       0.56991440 </v>
   <v>       0.86043047       0.37735210       0.53994094 </v>
   <v>       0.76392390       0.37673368       0.53516197 </v>
   <v>       0.77820653       0.38083828       0.49696039 </v>
   <v>       0.87023067       0.41211962       0.49828808 </v>
   <v>       0.89780039       0.61644755       0.53110708 </v>
   <v>       0.90946724       0.60715748       0.55917031 </v>
   <v>       0.87287278       0.69067135       0.54811421 </v>
   <v>       0.59885470       0.51874018       0.52877080 </v>
   <v>       0.67653026       0.48870789       0.51401016 </v>
   <v>       0.66795180       0.58469406       0.52109794 </v>
   <v>       0.71499074       0.49828165       0.59190147 </v>
   <v>       0.77487863       0.57760164       0.59196374 </v>
   <v>       0.80381771       0.49438111       0.60354222 </v>
   <v>       0.82450944       0.25871233       0.51420478 </v>
   <v>       0.84504043       0.27487725       0.48691584 </v>
   <v>       0.92824157       0.16404043       0.49857613 </v>
   <v>       0.97095434       0.39045710       0.51671865 </v>
   <v>       0.06187301       0.13507075       0.50229471 </v>
   <v>       0.10391585       0.36123000       0.52037282 </v>
   <v>       0.15142850       0.23448468       0.51244808 </v>
   <v>       0.99663486       0.22967613       0.56105619 </v>
   <v>       0.03257826       0.77422916       0.56198508 </v>
   <v>       0.52327368       0.27139347       0.56127126 </v>
   <v>       0.49329870       0.76215876       0.55700594 </v>
   <v>       0.23596838       0.51059365       0.55713347 </v>
   <v>       0.26738944       0.99531228       0.55604499 </v>
   <v>       0.77242464       0.98586276       0.56070407 </v>
   <v>       0.00817557       0.24297590       0.65135831 </v>
   <v>       0.01647245       0.76194355       0.65300317 </v>
   <v>       0.50636243       0.25701143       0.64860531 </v>
   <v>       0.49223360       0.75617836       0.64951779 </v>
   <v>       0.25150571       0.49640955       0.64981765 </v>
   <v>       0.25026217       0.99418177       0.64840355 </v>
   <v>       0.74178951       0.51385158       0.64965887 </v>
   <v>       0.74955851       0.99892647       0.64989482 </v>
   <v>       0.49998898       0.24999498       0.74327702 </v>
   <v>       0.49998903       0.74999496       0.74327702 </v>
   <v>       0.99998898       0.24999498       0.74327702 </v>
   <v>       0.99998903       0.74999496       0.74327702 </v>
   <v>       0.25000050       0.00000100       0.74325596 </v>
   <v>       0.25000052       0.50000100       0.74325596 </v>
   <v>       0.75000050       0.00000100       0.74325596 </v>
   <v>       0.75000049       0.50000100       0.74325596 </v>
   <v>       0.94000403       0.27862979       0.50702796 </v>
   <v>       0.96626300       0.20720073       0.50332131 </v>
   <v>       0.99078783       0.33402995       0.51330970 </v>
   <v>       0.04184112       0.19082998       0.50564768 </v>
   <v>       0.06609158       0.31767668       0.51536461 </v>
   <v>       0.09210079       0.24623991       0.51128577 </v>
   <v>       0.81923742       0.48516231       0.53054600 </v>
   <v>       0.79292703       0.60548680       0.54828343 </v>
   <v>       0.69438095       0.50958384       0.54806464 </v>
   <v>       0.80775985       0.48833049       0.56993754 </v>
   <v>       0.81699843       0.39977713       0.52933769 </v>
   <v>       0.83057220       0.37492504       0.50591702 </v>
   <v>       0.87322654       0.62990257       0.54663143 </v>
   <v>       0.65896927       0.52727698       0.52659831 </v>
   <v>       0.77155433       0.51712171       0.59010979 </v>
   <v>       0.85775628       0.29433093       0.50333007 </v>
   <v>       0.05825678       0.24896804       0.57062628 </v>
   <v>       0.03599900       0.70838340       0.57084660 </v>
   <v>       0.54859431       0.20667873       0.56724511 </v>
   <v>       0.54793222       0.72110955       0.56407803 </v>
   <v>       0.45477301       0.29409720       0.56408115 </v>
   <v>       0.42358511       0.75375014       0.56290556 </v>
   <v>       0.93044732       0.25143620       0.56727240 </v>
   <v>       0.97605115       0.82012330       0.56362225 </v>
   <v>       0.25519673       0.44793011       0.56612855 </v>
   <v>       0.19893169       0.01316411       0.56056891 </v>
   <v>       0.70104632       0.98540629       0.56403377 </v>
   <v>       0.32509458       0.03516196       0.56110087 </v>
   <v>       0.27011587       0.57398848       0.56016575 </v>
   <v>       0.81669060       0.03999437       0.56609443 </v>
   <v>       0.05725322       0.19450979       0.65737025 </v>
   <v>       0.04970686       0.70143427       0.65855500 </v>
   <v>       0.54447678       0.19926843       0.65457123 </v>
   <v>       0.53249254       0.71442583       0.66233957 </v>
   <v>       0.21609220       0.44802277       0.66144174 </v>
   <v>       0.19734936       0.95600375       0.65745853 </v>
   <v>       0.69735269       0.46404709       0.65822266 </v>
   <v>       0.70410447       0.95470396       0.65987509 </v>
   <v>       0.46215827       0.29659471       0.66099207 </v>
   <v>       0.44424813       0.80682672       0.65555012 </v>
   <v>       0.96614535       0.28270535       0.66387436 </v>
   <v>       0.95311916       0.78662722       0.66064514 </v>
   <v>       0.29759506       0.03675226       0.65838394 </v>
   <v>       0.29880134       0.54682264       0.65710567 </v>
   <v>       0.79254438       0.04946172       0.65911389 </v>
   <v>       0.80188885       0.54074510       0.65856684 </v>
   <v>       0.04586250       0.20411950       0.75272599 </v>
   <v>       0.04586250       0.70411946       0.75272599 </v>
   <v>       0.54586251       0.20411950       0.75272599 </v>
   <v>       0.54586250       0.70411946       0.75272599 </v>
   <v>       0.20411900       0.45410100       0.75270499 </v>
   <v>       0.20411899       0.95410095       0.75270499 </v>
   <v>       0.70411898       0.45410100       0.75270499 </v>
   <v>       0.70411896       0.95410095       0.75270499 </v>
   <v>       0.45414002       0.29588849       0.75272697 </v>
   <v>       0.45414001       0.79588852       0.75272697 </v>
   <v>       0.95414002       0.29588849       0.75272697 </v>
[...]
   <v>       0.60424174       0.19616649       0.56597984 </v>
   <v>       0.60120358       0.73616090       0.55994635 </v>
   <v>       0.37802259       0.01567523       0.55803123 </v>
   <v>       0.25245126       0.62213159       0.55296924 </v>
   <v>       0.87244608       0.03592694       0.56267895 </v>
   <v>       0.06026488       0.28416178       0.58359323 </v>
   <v>       0.99798708       0.69082932       0.58206765 </v>
   <v>       0.51782516       0.17181266       0.57621468 </v>
   <v>       0.54392382       0.68434951       0.57644672 </v>
   <v>       0.29973166       0.44319083       0.57632102 </v>
   <v>       0.18475795       0.05729813       0.57038801 </v>
   <v>       0.67404495       0.02647770       0.57248566 </v>
   <v>       0.44303517       0.34843121       0.56055358 </v>
   <v>       0.38210983       0.78546245       0.55666462 </v>
   <v>       0.88327948       0.22870867       0.56090705 </v>
   <v>       0.98262673       0.87343762       0.55808049 </v>
   <v>       0.22711076       0.40052865       0.56272437 </v>
   <v>       0.15475350       0.98204596       0.55558689 </v>
   <v>       0.67222517       0.93763676       0.56063423 </v>
   <v>       0.56146373       0.30918055       0.55326477 </v>
   <v>       0.50632716       0.80689135       0.54584227 </v>
   <v>       0.00088400       0.19413689       0.54685529 </v>
   <v>       0.07934911       0.79049470       0.55167522 </v>
   <v>       0.18721037       0.50998674       0.54669241 </v>
   <v>       0.27538205       0.94373695       0.54731845 </v>
   <v>       0.79622601       0.93742329       0.55280600 </v>
   <v>       0.45360996       0.28516203       0.67656122 </v>
   <v>       0.43326797       0.81824650       0.67119608 </v>
   <v>       0.96764136       0.27923287       0.68018310 </v>
   <v>       0.92403948       0.75862828       0.67199818 </v>
   <v>       0.29875504       0.04640313       0.67439136 </v>
   <v>       0.31246644       0.55134350       0.67281688 </v>
   <v>       0.79326004       0.05823447       0.67514053 </v>
   <v>       0.81865121       0.52707049       0.67366031 </v>
   <v>       0.08692934       0.16708529       0.64603742 </v>
   <v>       0.09981419       0.68843299       0.65188045 </v>
   <v>       0.57714050       0.17260785       0.64358209 </v>
   <v>       0.56743460       0.67620932       0.65550025 </v>
   <v>       0.18091781       0.41148906       0.65373397 </v>
   <v>       0.16366147       0.92480600       0.64758778 </v>
   <v>       0.65283390       0.44691529       0.64986155 </v>
   <v>       0.67313420       0.91849627       0.65071041 </v>
   <v>       0.06796038       0.18272733       0.67306132 </v>
   <v>       0.02923856       0.66607275       0.66965512 </v>
   <v>       0.54562696       0.18029121       0.66993667 </v>
   <v>       0.52887951       0.71634323       0.67836670 </v>
   <v>       0.21984212       0.44390582       0.67752498 </v>
   <v>       0.18729609       0.95312221       0.67344708 </v>
   <v>       0.70563902       0.44279921       0.67320319 </v>
   <v>       0.69641757       0.95325463       0.67590753 </v>
   <v>       0.43508511       0.34102150       0.65460243 </v>
   <v>       0.41577287       0.83535675       0.64395277 </v>
   <v>       0.92898488       0.31982776       0.65750791 </v>
   <v>       0.93228158       0.83634597       0.65578723 </v>
   <v>       0.33809777       0.06395658       0.64953012 </v>
   <v>       0.32224145       0.58299255       0.64639534 </v>
   <v>       0.82582712       0.08081435       0.64942445 </v>
   <v>       0.83244789       0.58007574       0.65082500 </v>
   <v>       0.00037509       0.25288885       0.63430967 </v>
   <v>       0.04338415       0.79696886       0.64079815 </v>
   <v>       0.51229207       0.27469481       0.63163604 </v>
   <v>       0.49931818       0.74795971       0.63203663 </v>
   <v>       0.25684440       0.98907597       0.63084059 </v>
   <v>       0.24149551       0.49673863       0.63238546 </v>
   <v>       0.75408092       0.99486956       0.63228564 </v>
   <v>       0.72642217       0.53507552       0.63397348 </v>
   <v>       0.44874502       0.30128397       0.76888902 </v>
   <v>       0.44874501       0.80128391       0.76888902 </v>
   <v>       0.94874497       0.30128397       0.76888902 </v>
   <v>       0.94874501       0.80128391       0.76888902 </v>
   <v>       0.30127600       0.05129450       0.76887296 </v>
   <v>       0.30127601       0.55129450       0.76887296 </v>
   <v>       0.80127594       0.05129450       0.76887296 </v>
   <v>       0.80127598       0.55129450       0.76887296 </v>
   <v>       0.07877100       0.17118050       0.74344197 </v>
   <v>       0.07877101       0.67118045       0.74344197 </v>
   <v>       0.57877100       0.17118050       0.74344197 </v>
   <v>       0.57877099       0.67118045       0.74344197 </v>
   <v>       0.17119950       0.42117448       0.74342103 </v>
   <v>       0.17119950       0.92117451       0.74342103 </v>
   <v>       0.67119951       0.42117448       0.74342103 </v>
   <v>       0.67119950       0.92117451       0.74342103 </v>
   <v>       0.05125600       0.19871499       0.76888902 </v>
   <v>       0.05125600       0.69871493       0.76888902 </v>
   <v>       0.55125603       0.19871499       0.76888902 </v>
   <v>       0.55125602       0.69871493       0.76888902 </v>
   <v>       0.19872349       0.44870397       0.76887205 </v>
   <v>       0.19872349       0.94870397       0.76887205 </v>
   <v>       0.69872352       0.44870397       0.76887205 </v>
   <v>       0.69872351       0.94870397       0.76887205 </v>
   <v>       0.42123152       0.32881747       0.74344197 </v>
   <v>       0.42123151       0.82881744       0.74344197 </v>
   <v>       0.92123147       0.32881747       0.74344197 </v>
   <v>       0.92123151       0.82881744       0.74344197 </v>
   <v>       0.32880050       0.07882500       0.74342103 </v>
   <v>       0.32880049       0.57882496       0.74342103 </v>
   <v>       0.82880048       0.07882500       0.74342103 </v>
   <v>       0.82880052       0.57882496       0.74342103 </v>
   <v>       0.00000350       0.25000148       0.72582199 </v>
   <v>       0.00000350       0.75000145       0.72582199 </v>
   <v>       0.50000351       0.25000148       0.72582199 </v>
   <v>       0.50000350       0.75000145       0.72582199 </v>
   <v>       0.25000050       0.00000000       0.72580398 </v>
   <v>       0.25000052       0.50000000       0.72580398 </v>
   <v>       0.75000050       0.00000000       0.72580398 </v>
   <v>       0.75000049       0.50000000       0.72580398 </v>
   <v>       0.79656587       0.51101392       0.51599005 </v>
   <v>       0.87691457       0.50277014       0.53255824 </v>
   <v>       0.76051214       0.62717932       0.53473757 </v>
   <v>       0.76757219       0.62833765       0.56285580 </v>
   <v>       0.68435416       0.45130362       0.55279392 </v>
   <v>       0.67109659       0.54484574       0.56070907 </v>
   <v>       0.80025807       0.42769777       0.56858772 </v>
   <v>       0.86750987       0.50038637       0.56991440 </v>
   <v>       0.86043047       0.37735210       0.53994094 </v>
   <v>       0.76392390       0.37673368       0.53516197 </v>
   <v>       0.77820653       0.38083828       0.49696039 </v>
   <v>       0.87023067       0.41211962       0.49828808 </v>
   <v>       0.89780039       0.61644755       0.53110708 </v>
   <v>       0.90946724       0.60715748       0.55917031 </v>
   <v>       0.87287278       0.69067135       0.54811421 </v>
   <v>       0.59885470       0.51874018       0.52877080 </v>
   <v>       0.67653026       0.48870789       0.51401016 </v>
   <v>       0.66795180       0.58469406       0.52109794 </v>
   <v>       0.71499074       0.49828165       0.59190147 </v>
   <v>       0.77487863       0.57760164       0.59196374 </v>
   <v>       0.80381771       0.49438111       0.60354222 </v>
   <v>       0.82450944       0.25871233       0.51420478 </v>
   <v>       0.84504043       0.27487725       0.48691584 </v>
   <v>       0.92824157       0.16404043       0.49857613 </v>
   <v>       0.97095434       0.39045710       0.51671865 </v>
   <v>       0.06187301       0.13507075       0.50229471 </v>
   <v>       0.10391585       0.36123000       0.52037282 </v>
   <v>       0.15142850       0.23448468       0.51244808 </v>
   <v>       0.99663486       0.22967613       0.56105619 </v>
   <v>       0.03257826       0.77422916       0.56198508 </v>
   <v>       0.52327368       0.27139347       0.56127126 </v>
   <v>       0.49329870       0.76215876       0.55700594 </v>
   <v>       0.23596838       0.51059365       0.55713347 </v>
   <v>       0.26738944       0.99531228       0.55604499 </v>
   <v>       0.77242464       0.98586276       0.56070407 </v>
   <v>       0.00817557       0.24297590       0.65135831 </v>
   <v>       0.01647245       0.76194355       0.65300317 </v>
   <v>       0.50636243       0.25701143       0.64860531 </v>
   <v>       0.49223360       0.75617836       0.64951779 </v>
   <v>       0.25150571       0.49640955       0.64981765 </v>
   <v>       0.25026217       0.99418177       0.64840355 </v>
   <v>       0.74178951       0.51385158       0.64965887 </v>
   <v>       0.74955851       0.99892647       0.64989482 </v>
   <v>       0.49998898       0.24999498       0.74327702 </v>
   <v>       0.49998903       0.74999496       0.74327702 </v>
   <v>       0.99998898       0.24999498       0.74327702 </v>
   <v>       0.99998903       0.74999496       0.74327702 </v>
   <v>       0.25000050       0.00000100       0.74325596 </v>
   <v>       0.25000052       0.50000100       0.74325596 </v>
   <v>       0.75000050       0.00000100       0.74325596 </v>
   <v>       0.75000049       0.50000100       0.74325596 </v>
   <v>       0.94000403       0.27862979       0.50702796 </v>
   <v>       0.96626300       0.20720073       0.50332131 </v>
   <v>       0.99078783       0.33402995       0.51330970 </v>
   <v>       0.04184112       0.19082998       0.50564768 </v>
   <v>       0.06609158       0.31767668       0.51536461 </v>
   <v>       0.09210079       0.24623991       0.51128577 </v>
   <v>       0.81923742       0.48516231       0.53054600 </v>
   <v>       0.79292703       0.60548680       0.54828343 </v>
   <v>       0.69438095       0.50958384       0.54806464 </v>
   <v>       0.80775985       0.48833049       0.56993754 </v>
   <v>       0.81699843       0.39977713       0.52933769 </v>
   <v>       0.83057220       0.37492504       0.50591702 </v>
   <v>       0.87322654       0.62990257       0.54663143 </v>
   <v>       0.65896927       0.52727698       0.52659831 </v>
   <v>       0.77155433       0.51712171       0.59010979 </v>
   <v>       0.85775628       0.29433093       0.50333007 </v>
   <v>       0.05825678       0.24896804       0.57062628 </v>
   <v>       0.03599900       0.70838340       0.57084660 </v>
   <v>       0.54859431       0.20667873       0.56724511 </v>
   <v>       0.54793222       0.72110955       0.56407803 </v>
   <v>       0.45477301       0.29409720       0.56408115 </v>
   <v>       0.42358511       0.75375014       0.56290556 </v>
   <v>       0.93044732       0.25143620       0.56727240 </v>
   <v>       0.97605115       0.82012330       0.56362225 </v>
   <v>       0.25519673       0.44793011       0.56612855 </v>
   <v>       0.19893169       0.01316411       0.56056891 </v>
   <v>       0.70104632       0.98540629       0.56403377 </v>
   <v>       0.32509458       0.03516196       0.56110087 </v>
   <v>       0.27011587       0.57398848       0.56016575 </v>
   <v>       0.81669060       0.03999437       0.56609443 </v>
   <v>       0.05725322       0.19450979       0.65737025 </v>
   <v>       0.04970686       0.70143427       0.65855500 </v>
   <v>       0.54447678       0.19926843       0.65457123 </v>
   <v>       0.53249254       0.71442583       0.66233957 </v>
   <v>       0.21609220       0.44802277       0.66144174 </v>
   <v>       0.19734936       0.95600375       0.65745853 </v>
   <v>       0.69735269       0.46404709       0.65822266 </v>
   <v>       0.70410447       0.95470396       0.65987509 </v>
   <v>       0.46215827       0.29659471       0.66099207 </v>
   <v>       0.44424813       0.80682672       0.65555012 </v>
   <v>       0.96614535       0.28270535       0.66387436 </v>
   <v>       0.95311916       0.78662722       0.66064514 </v>
   <v>       0.29759506       0.03675226       0.65838394 </v>
   <v>       0.29880134       0.54682264       0.65710567 </v>
   <v>       0.79254438       0.04946172       0.65911389 </v>
   <v>       0.80188885       0.54074510       0.65856684 </v>
   <v>       0.04586250       0.20411950       0.75272599 </v>
   <v>       0.04586250       0.70411946       0.75272599 </v>
   <v>       0.54586251       0.20411950       0.75272599 </v>
   <v>       0.54586250       0.70411946       0.75272599 </v>
   <v>       0.20411900       0.45410100       0.75270499 </v>
   <v>       0.20411899       0.95410095       0.75270499 </v>
   <v>       0.70411898       0.45410100       0.75270499 </v>
   <v>       0.70411896       0.95410095       0.75270499 </v>
   <v>       0.45414002       0.29588849       0.75272697 </v>
   <v>       0.45414001       0.79588852       0.75272697 </v>
   <v>       0.95414002       0.29588849       0.75272697 </v>
   <v>       0.95414006       0.79588852       0.75272697 </v>
   <v>       0.29588249       0.04590050       0.75270499 </v>
   <v>       0.29588248       0.54590053       0.75270499 </v>
   <v>       0.79588244       0.04590050       0.75270499 </v>
   <v>       0.79588248       0.54590053       0.75270499 </v>
   <v>       0.77825692       0.52183692       0.54903407 </v>
   <v>       0.50916353       0.97828558       0.55427450 </v>
   <v>       0.45815419       0.49034832       0.55446203 </v>
   <v>       0.00575814       0.01243102       0.55237855 </v>
   <v>       0.03678676       0.49535861       0.55507348 </v>
   <v>       0.25291243       0.24419719       0.55543018 </v>
   <v>       0.23524668       0.77369141       0.55114619 </v>
   <v>       0.74054206       0.22119232       0.55550289 </v>
   <v>       0.71843360       0.79651618       0.55135265 </v>
   <v>       0.99449889       0.98754227       0.65458503 </v>
   <v>       0.00359913       0.50128393       0.65560232 </v>
   <v>       0.49745409       0.00488479       0.65501456 </v>
   <v>       0.49629581       0.50266755       0.65501608 </v>
   <v>       0.26073218       0.23653109       0.65566746 </v>
   <v>       0.24777038       0.75233363       0.65399677 </v>
   <v>       0.74135596       0.25528273       0.65557058 </v>
   <v>       0.75273457       0.74784377       0.65373995 </v>
   <v>       0.14335723       0.11275340       0.60910211 </v>
   <v>       0.14326448       0.61118425       0.60976320 </v>
   <v>       0.64364641       0.10822436       0.60887715 </v>
   <v>       0.61321297       0.63443209       0.61173741 </v>
   <v>       0.36653465       0.38581203       0.61192824 </v>
   <v>       0.36502434       0.88625970       0.60730219 </v>
   <v>       0.88968915       0.36095738       0.61478709 </v>
   <v>       0.86624530       0.88725695       0.60700691 </v>
   <v>       0.12250735       0.36729538       0.61291776 </v>
   <v>       0.11846247       0.87570993       0.60653434 </v>
   <v>       0.61883543       0.37204640       0.60468448 </v>
   <v>       0.62085199       0.86741483       0.61199252 </v>
   <v>       0.40059923       0.14456811       0.60455775 </v>
   <v>       0.37586107       0.63310121       0.60694146 </v>
   <v>       0.88452382       0.13611290       0.61326512 </v>
   <v>       0.90824324       0.65635834       0.61260776 </v>
   <v>       0.00000000       0.00000000       0.75492797 </v>
   <v>       0.00000000       0.50000000       0.75492797 </v>
   <v>       0.50000000       0.00000000       0.75492797 </v>
   <v>       0.49999999       0.50000000       0.75492797 </v>
   <v>       0.25000050       0.25000000       0.75493902 </v>
   <v>       0.25000051       0.74999997       0.75493902 </v>
   <v>       0.75000047       0.25000000       0.75493902 </v>
   <v>       0.75000046       0.74999997       0.75493902 </v>
   <v>       0.13579050       0.11421000       0.70478299 </v>
   <v>       0.13579050       0.61420998       0.70478299 </v>
   <v>       0.63579045       0.11421000       0.70478299 </v>
   <v>       0.63579049       0.61420998       0.70478299 </v>
   <v>       0.36420952       0.38578999       0.70478299 </v>
   <v>       0.36420950       0.88578996       0.70478299 </v>
   <v>       0.86420954       0.38578999       0.70478299 </v>
   <v>       0.86420953       0.88578996       0.70478299 </v>
   <v>       0.11421799       0.36421899       0.70478098 </v>
   <v>       0.11421799       0.86421899       0.70478098 </v>
   <v>       0.61421800       0.36421899       0.70478098 </v>
   <v>       0.61421799       0.86421899       0.70478098 </v>
   <v>       0.38578201       0.13578149       0.70478202 </v>
   <v>       0.38578200       0.63578149       0.70478202 </v>
   <v>       0.88578199       0.13578149       0.70478202 </v>
   <v>       0.88578203       0.63578149       0.70478202 </v>
   <v>       0.13466700       0.11533200       0.80125603 </v>
   <v>       0.13466699       0.61533199       0.80125603 </v>
   <v>       0.63466699       0.11533200       0.80125603 </v>
   <v>       0.63466698       0.61533199       0.80125603 </v>
   <v>       0.36533300       0.38466799       0.80125603 </v>
   <v>       0.36533299       0.88466796       0.80125603 </v>
   <v>       0.86533295       0.38466799       0.80125603 </v>
   <v>       0.86533294       0.88466796       0.80125603 </v>
   <v>       0.11532850       0.36533700       0.80126500 </v>
   <v>       0.11532850       0.86533698       0.80126500 </v>
   <v>       0.61532850       0.36533700       0.80126500 </v>
   <v>       0.61532849       0.86533698       0.80126500 </v>
   <v>       0.38467151       0.13466300       0.80126500 </v>
   <v>       0.38467150       0.63466297       0.80126500 </v>
   <v>       0.88467149       0.13466300       0.80126500 </v>
   <v>       0.88467153       0.63466297       0.80126500 </v>
   <v>       0.99985482       0.00735599       0.60506224 </v>
   <v>       0.00754664       0.50321216       0.60516096 </v>
   <v>       0.50166258       0.99419531       0.60431685 </v>
   <v>       0.49626324       0.49923100       0.60368599 </v>
   <v>       0.25323548       0.25174842       0.60580092 </v>
   <v>       0.24338748       0.75690502       0.60381761 </v>
   <v>       0.75021199       0.25171350       0.60644539 </v>
   <v>       0.74931527       0.75771092       0.60309188 </v>
   <v>       0.00000050       0.00000050       0.70482896 </v>
   <v>       0.00000050       0.50000048       0.70482896 </v>
   <v>       0.50000048       0.00000050       0.70482896 </v>
   <v>       0.50000046       0.50000048       0.70482896 </v>
   <v>       0.24999999       0.24999947       0.70482499 </v>
   <v>       0.25000001       0.74999950       0.70482499 </v>
   <v>       0.74999999       0.24999947       0.70482499 </v>
   <v>       0.74999998       0.74999950       0.70482499 </v>
   <v>       0.00000000       0.00000000       0.80731797 </v>
   <v>       0.00000000       0.50000000       0.80731797 </v>
   <v>       0.50000000       0.00000000       0.80731797 </v>
   <v>       0.49999999       0.50000000       0.80731797 </v>
   <v>       0.24999999       0.25000000       0.80731797 </v>
   <v>       0.25000001       0.74999997       0.80731797 </v>
   <v>       0.74999999       0.25000000       0.80731797 </v>
   <v>       0.74999998       0.74999997       0.80731797 </v>
  </varray>
 </structure>
</modeling>
