<?xml version="1.0" encoding="ISO-8859-1"?>
<modeling>
 <generator>
  <i name="program" type="string">vasp </i>
  <i name="version" type="string">6.2.1  </i>
  <i name="subversion" type="string">16May21 (build Nov 15 2021 14:57:28) complex                          parallel </i>
  <i name="platform" type="string">LinuxPGI </i>
  <i name="date" type="string">2023 07 30 </i>
  <i name="time" type="string">18:01:32 </i>
 </generator>
 <incar>
  <i type="string" name="SYSTEM">PSC</i>
  <i type="int" name="ISTART">     1</i>
  <i type="string" name="PREC">Normal</i>
  <i name="BMIX">      0.01000000</i>
  <i name="AMIN">      0.01000000</i>
  <i type="int" name="ICHARG">     1</i>
  <i type="int" name="NELM">   600</i>
  <i type="int" name="ISYM">     0</i>
  <i name="ENCUT">    500.00000000</i>
  <i type="string" name="LREAL">Auto</i>
  <i type="int" name="ISMEAR">     0</i>
  <i name="SIGMA">      0.05000000</i>
  <i type="logical" name="LWAVE"> F  </i>
  <i type="logical" name="LVTOT"> T  </i>
  <i type="logical" name="GGA_COMPAT"> F  </i>
  <i type="logical" name="LDIPOL"> T  </i>
  <i type="int" name="IDIPOL">     3</i>
  <i type="int" name="IVDW">    12</i>
 </incar>
 <primitive_cell>
  <structure name="primitive_cell" >
   <crystal>
    <varray name="basis" >
     <v>      18.06080055       0.00000000       0.00000000 </v>
     <v>      -0.00491865      18.06279945       0.00000000 </v>
     <v>       0.00000000       0.00000000      62.48749924 </v>
    </varray>
    <i name="volume">  20385.21054034 </i>
    <varray name="rec_basis" >
     <v>       0.05536853       0.00001508      -0.00000000 </v>
     <v>       0.00000000       0.05536240       0.00000000 </v>
     <v>       0.00000000      -0.00000000       0.01600320 </v>
    </varray>
   </crystal>
   <varray name="positions" >
    <v>       0.44772834       0.30575744       0.58044392 </v>
    <v>       0.44703063       0.83983991       0.57680775 </v>
    <v>       0.93736673       0.26242694       0.58452109 </v>
    <v>       0.96153106       0.80627615       0.58643919 </v>
    <v>       0.29904010       0.04827191       0.58206619 </v>
    <v>       0.30630132       0.55818001       0.58217278 </v>
    <v>       0.77816497       0.07021664       0.58185069 </v>
    <v>       0.10723395       0.20969864       0.55544355 </v>
    <v>       0.08927991       0.68091434       0.55905634 </v>
    <v>       0.57506199       0.17879782       0.55772892 </v>
    <v>       0.51921233       0.65659704       0.56699127 </v>
    <v>       0.35873324       0.03011372       0.56094740 </v>
    <v>       0.29508309       0.60841929       0.55912843 </v>
    <v>       0.84732786       0.05940867       0.56311330 </v>
    <v>       0.06938908       0.21190028       0.58083657 </v>
    <v>       0.03962904       0.69173576       0.58267965 </v>
    <v>       0.56211926       0.23891296       0.57854144 </v>
    <v>       0.49259230       0.71564651       0.58739178 </v>
    <v>       0.23837467       0.43451197       0.58273692 </v>
    <v>       0.17143029       0.99015160       0.57936765 </v>
    <v>       0.67694211       0.97640296       0.58098596 </v>
    <v>       0.38058624       0.28640415       0.56142192 </v>
    <v>       0.45504929       0.86378156       0.54988666 </v>
    <v>       0.89445532       0.27763672       0.55994128 </v>
    <v>       0.96351647       0.86715818       0.56435262 </v>
    <v>       0.19033369       0.41199312       0.55986753 </v>
    <v>       0.15327593       0.94479478       0.55580001 </v>
    <v>       0.68581566       0.90646826       0.56146350 </v>
    <v>       0.45611285       0.20507962       0.54372167 </v>
    <v>       0.50207098       0.74985753       0.54081441 </v>
    <v>       0.99969346       0.24909829       0.53945446 </v>
    <v>       0.04530934       0.79065246       0.54491258 </v>
    <v>       0.22006106       0.51945611       0.54262123 </v>
    <v>       0.27011818       0.96405458       0.54187889 </v>
    <v>       0.79395282       0.95607070       0.54784273 </v>
    <v>       0.45512994       0.30815762       0.67633694 </v>
    <v>       0.43544605       0.81734028       0.67199171 </v>
    <v>       0.96207273       0.28312280       0.68000252 </v>
    <v>       0.93591809       0.79890791       0.67450216 </v>
    <v>       0.30645183       0.05459850       0.67339238 </v>
    <v>       0.29632582       0.55279776       0.67624329 </v>
    <v>       0.80384515       0.05109004       0.67616582 </v>
    <v>       0.83776161       0.53118364       0.67040557 </v>
    <v>       0.08466626       0.17325560       0.64569818 </v>
    <v>       0.09481291       0.68834213       0.65481859 </v>
    <v>       0.56989674       0.16247318       0.65191042 </v>
    <v>       0.57051616       0.67389494       0.65896066 </v>
    <v>       0.18376657       0.41078484       0.64926176 </v>
    <v>       0.17143677       0.92099797       0.65308619 </v>
    <v>       0.65765950       0.45444751       0.65672345 </v>
    <v>       0.66672301       0.93072611       0.65048142 </v>
    <v>       0.06406109       0.18770198       0.67267428 </v>
    <v>       0.04349712       0.69883800       0.67802593 </v>
    <v>       0.55481815       0.20373266       0.67647820 </v>
    <v>       0.52940405       0.71633072       0.68121432 </v>
    <v>       0.20865593       0.43943797       0.67465325 </v>
    <v>       0.20420889       0.95533067       0.67718678 </v>
    <v>       0.72377191       0.45093298       0.67655121 </v>
    <v>       0.69407045       0.95966132       0.67574313 </v>
    <v>       0.41442229       0.32446559       0.65174266 </v>
    <v>       0.42446386       0.83572465       0.64481385 </v>
    <v>       0.92300152       0.32299076       0.65684854 </v>
    <v>       0.92941174       0.83870434       0.64953940 </v>
    <v>       0.33151130       0.07723882       0.64737112 </v>
    <v>       0.32143821       0.58787497       0.65149859 </v>
    <v>       0.83987245       0.07328011       0.65125715 </v>
    <v>       0.84159515       0.57501128       0.64567223 </v>
    <v>       0.99759228       0.25688371       0.63396371 </v>
    <v>       0.02959582       0.77726265       0.63538246 </v>
    <v>       0.48313233       0.23538351       0.63435869 </v>
    <v>       0.50880681       0.74774039       0.63452761 </v>
    <v>       0.24988164       0.99544203       0.63239211 </v>
    <v>       0.25208852       0.50189839       0.63251024 </v>
    <v>       0.75867409       0.00086247       0.63308164 </v>
    <v>       0.73050593       0.53348055       0.63531390 </v>
    <v>       0.44874502       0.30128397       0.76888902 </v>
    <v>       0.44874501       0.80128391       0.76888902 </v>
    <v>       0.94874497       0.30128397       0.76888902 </v>
    <v>       0.94874501       0.80128391       0.76888902 </v>
    <v>       0.30127600       0.05129450       0.76887296 </v>
    <v>       0.30127601       0.55129450       0.76887296 </v>
    <v>       0.80127594       0.05129450       0.76887296 </v>
    <v>       0.80127598       0.55129450       0.76887296 </v>
    <v>       0.07877100       0.17118050       0.74344197 </v>
    <v>       0.07877101       0.67118045       0.74344197 </v>
    <v>       0.57877100       0.17118050       0.74344197 </v>
    <v>       0.57877099       0.67118045       0.74344197 </v>
    <v>       0.17119950       0.42117448       0.74342103 </v>
    <v>       0.17119950       0.92117451       0.74342103 </v>
    <v>       0.67119951       0.42117448       0.74342103 </v>
    <v>       0.67119950       0.92117451       0.74342103 </v>
    <v>       0.05125600       0.19871499       0.76888902 </v>
    <v>       0.05125600       0.69871493       0.76888902 </v>
    <v>       0.55125603       0.19871499       0.76888902 </v>
    <v>       0.55125602       0.69871493       0.76888902 </v>
    <v>       0.19872349       0.44870397       0.76887205 </v>
    <v>       0.19872349       0.94870397       0.76887205 </v>
    <v>       0.69872352       0.44870397       0.76887205 </v>
    <v>       0.69872351       0.94870397       0.76887205 </v>
    <v>       0.42123152       0.32881747       0.74344197 </v>
    <v>       0.42123151       0.82881744       0.74344197 </v>
    <v>       0.92123147       0.32881747       0.74344197 </v>
    <v>       0.92123151       0.82881744       0.74344197 </v>
    <v>       0.32880050       0.07882500       0.74342103 </v>
    <v>       0.32880049       0.57882496       0.74342103 </v>
    <v>       0.82880048       0.07882500       0.74342103 </v>
    <v>       0.82880052       0.57882496       0.74342103 </v>
    <v>       0.00000350       0.25000148       0.72582199 </v>
    <v>       0.00000350       0.75000145       0.72582199 </v>
    <v>       0.50000351       0.25000148       0.72582199 </v>
    <v>       0.50000350       0.75000145       0.72582199 </v>
    <v>       0.25000050       0.00000000       0.72580398 </v>
    <v>       0.25000052       0.50000000       0.72580398 </v>
    <v>       0.75000050       0.00000000       0.72580398 </v>
    <v>       0.75000049       0.50000000       0.72580398 </v>
    <v>       0.71597339       0.44409156       0.54366037 </v>
    <v>       0.73657541       0.50313228       0.52203721 </v>
    <v>       0.64859438       0.54164540       0.56082329 </v>
    <v>       0.68990557       0.63243385       0.56218331 </v>
    <v>       0.83594800       0.50452497       0.57545305 </v>
    <v>       0.77095495       0.57039423       0.58576627 </v>
    <v>       0.86420522       0.55797726       0.53778603 </v>
    <v>       0.79878659       0.61809304       0.52866293 </v>
    <v>       0.86685025       0.47923905       0.52250130 </v>
    <v>       0.86581128       0.44043184       0.54851370 </v>
    <v>       0.88314349       0.34535632       0.52273254 </v>
    <v>       0.79654216       0.32993137       0.53494318 </v>
    <v>       0.62375403       0.54598284       0.52456549 </v>
    <v>       0.68923250       0.61836347       0.51885103 </v>
    <v>       0.60633543       0.63720634       0.53273106 </v>
    <v>       0.74730746       0.44978104       0.59973977 </v>
    <v>       0.74080787       0.40540610       0.57468300 </v>
    <v>       0.66940715       0.46966677       0.58283642 </v>
    <v>       0.83244194       0.68074824       0.56948579 </v>
    <v>       0.87788444       0.69850041       0.54489432 </v>
    <v>       0.91453884       0.63249320       0.56252059 </v>
    <v>       0.82802882       0.39706420       0.49075969 </v>
    <v>       0.79599534       0.30826733       0.49585104 </v>
    <v>       0.66842786       0.31476887       0.52143791 </v>
    <v>       0.74313873       0.47850959       0.47615154 </v>
    <v>       0.54196154       0.36717518       0.51933196 </v>
    <v>       0.61659544       0.53003851       0.47442283 </v>
    <v>       0.51494885       0.47389803       0.49680887 </v>
    <v>       0.00125476       0.24446757       0.55661383 </v>
    <v>       0.02629553       0.77398175       0.56052581 </v>
    <v>       0.47693551       0.23168429       0.55821962 </v>
    <v>       0.49049878       0.76001052       0.55727552 </v>
    <v>       0.24206663       0.51124512       0.55847498 </v>
    <v>       0.25562030       0.98631224       0.55734982 </v>
    <v>       0.76742896       0.98318213       0.56116858 </v>
    <v>       0.00398111       0.24804659       0.65138706 </v>
    <v>       0.01288035       0.76350431       0.65199149 </v>
    <v>       0.49229316       0.24330166       0.65167386 </v>
    <v>       0.49890159       0.75427590       0.65183741 </v>
    <v>       0.25275869       0.49972814       0.65002876 </v>
    <v>       0.25035574       0.99817229       0.65000507 </v>
    <v>       0.74994299       0.51494238       0.65068593 </v>
    <v>       0.75268207       0.00150913       0.65061640 </v>
    <v>       0.49998898       0.24999498       0.74327702 </v>
    <v>       0.49998903       0.74999496       0.74327702 </v>
    <v>       0.99998898       0.24999498       0.74327702 </v>
    <v>       0.99998903       0.74999496       0.74327702 </v>
    <v>       0.25000050       0.00000100       0.74325596 </v>
    <v>       0.25000052       0.50000100       0.74325596 </v>
    <v>       0.75000050       0.00000100       0.74325596 </v>
    <v>       0.75000049       0.50000100       0.74325596 </v>
    <v>       0.71563861       0.39384433       0.49881318 </v>
    <v>       0.65859052       0.36230095       0.51078093 </v>
    <v>       0.69906372       0.45311912       0.48563595 </v>
    <v>       0.58610108       0.39084761       0.50960480 </v>
    <v>       0.62793107       0.48339713       0.48445484 </v>
    <v>       0.56918097       0.45190156       0.49687703 </v>
    <v>       0.75761261       0.48316244       0.53768176 </v>
    <v>       0.68432357       0.58153137       0.55263684 </v>
    <v>       0.77825357       0.52236094       0.57511509 </v>
    <v>       0.82177170       0.59614530       0.54324055 </v>
    <v>       0.83405901       0.44426828       0.53340387 </v>
    <v>       0.82607244       0.36658052       0.52359472 </v>
    <v>       0.65038143       0.59597962       0.53077785 </v>
    <v>       0.72986188       0.45879551       0.58303110 </v>
    <v>       0.86197639       0.65458497       0.55622099 </v>
    <v>       0.79265530       0.36524094       0.50116549 </v>
    <v>       0.06327280       0.22025461       0.56487629 </v>
    <v>       0.05288621       0.71147217       0.56823731 </v>
    <v>       0.54105300       0.21301551       0.56563675 </v>
    <v>       0.50537210       0.70857484       0.57157233 </v>
    <v>       0.43331146       0.28072124       0.56711520 </v>
    <v>       0.46214534       0.82593410       0.56192880 </v>
    <v>       0.94105785       0.26299890       0.56797127 </v>
    <v>       0.97808943       0.81608153       0.57074550 </v>
    <v>       0.22261171       0.44773914       0.56733497 </v>
    <v>       0.18979265       0.97271353       0.56437430 </v>
    <v>       0.70401003       0.95419783       0.56796382 </v>
    <v>       0.30775410       0.02466064       0.56723571 </v>
    <v>       0.28285082       0.56214237       0.56697088 </v>
    <v>       0.80091682       0.03945042       0.56936333 </v>
    <v>       0.05314799       0.20128869       0.65717374 </v>
    <v>       0.05066047       0.71513316       0.66220575 </v>
    <v>       0.54094733       0.20253630       0.66079489 </v>
    <v>       0.53520308       0.71181726       0.66499183 </v>
    <v>       0.21326858       0.44670478       0.65889467 </v>
    <v>       0.20693445       0.95653911       0.66117362 </v>
    <v>       0.70895577       0.46994977       0.66182250 </v>
    <v>       0.70242184       0.96207854       0.65994901 </v>
    <v>       0.45142568       0.29580042       0.66095880 </v>
    <v>       0.44939170       0.80616379       0.65693413 </v>
    <v>       0.95932032       0.28783985       0.66393822 </v>
    <v>       0.95637837       0.80126248       0.65897378 </v>
    <v>       0.29967184       0.04668656       0.65782396 </v>
    <v>       0.29181567       0.54934948       0.66031933 </v>
    <v>       0.80232031       0.04514715       0.66040632 </v>
    <v>       0.81565707       0.54194825       0.65621847 </v>
    <v>       0.04586250       0.20411950       0.75272599 </v>
    <v>       0.04586250       0.70411946       0.75272599 </v>
    <v>       0.54586251       0.20411950       0.75272599 </v>
    <v>       0.54586250       0.70411946       0.75272599 </v>
    <v>       0.20411900       0.45410100       0.75270499 </v>
    <v>       0.20411899       0.95410095       0.75270499 </v>
    <v>       0.70411898       0.45410100       0.75270499 </v>
    <v>       0.70411896       0.95410095       0.75270499 </v>
    <v>       0.45414002       0.29588849       0.75272697 </v>
    <v>       0.45414001       0.79588852       0.75272697 </v>
    <v>       0.95414002       0.29588849       0.75272697 </v>
    <v>       0.95414006       0.79588852       0.75272697 </v>
    <v>       0.29588249       0.04590050       0.75270499 </v>
    <v>       0.29588248       0.54590053       0.75270499 </v>
    <v>       0.79588244       0.04590050       0.75270499 </v>
    <v>       0.79588248       0.54590053       0.75270499 </v>
    <v>       0.76197663       0.54646509       0.55232141 </v>
    <v>       0.49047680       0.01676091       0.55116835 </v>
    <v>       0.48226329       0.51808981       0.55618583 </v>
    <v>       0.98848506       0.00561014       0.55260369 </v>
    <v>       0.03203085       0.50429552       0.55484077 </v>
    <v>       0.24897014       0.24680613       0.55124313 </v>
    <v>       0.25609356       0.75209736       0.55307742 </v>
    <v>       0.74045404       0.21638638       0.55903637 </v>
    <v>       0.71557799       0.78512565       0.54628157 </v>
    <v>       0.00214910       0.00305110       0.65446635 </v>
    <v>       0.01324992       0.49359511       0.65599308 </v>
    <v>       0.49687972       0.99936304       0.65423480 </v>
    <v>       0.50165071       0.48903835       0.65557357 </v>
    <v>       0.25452642       0.24563627       0.65399641 </v>
    <v>       0.25291673       0.75374011       0.65463972 </v>
    <v>       0.74055576       0.25425043       0.65653848 </v>
    <v>       0.75570262       0.75468149       0.65367957 </v>
    <v>       0.14420501       0.10831210       0.60766878 </v>
    <v>       0.14718240       0.61352034       0.61065803 </v>
    <v>       0.64523643       0.10511993       0.61068007 </v>
    <v>       0.61895077       0.63250006       0.61551166 </v>
    <v>       0.35374509       0.39255158       0.60885402 </v>
    <v>       0.36770812       0.88797626       0.60829464 </v>
    <v>       0.88165100       0.37151581       0.61382956 </v>
    <v>       0.86111909       0.89237167       0.61013607 </v>
    <v>       0.11217074       0.35489660       0.60852973 </v>
    <v>       0.11786640       0.87153268       0.60868241 </v>
    <v>       0.58799527       0.34204348       0.60800509 </v>
    <v>       0.60933676       0.86471792       0.60965111 </v>
    <v>       0.38787492       0.13894325       0.60943940 </v>
    <v>       0.38295832       0.63352608       0.61333343 </v>
    <v>       0.88355254       0.13995290       0.61354832 </v>
    <v>       0.91557244       0.65117704       0.61675513 </v>
    <v>       0.00000000       0.00000000       0.75492797 </v>
    <v>       0.00000000       0.50000000       0.75492797 </v>
    <v>       0.50000000       0.00000000       0.75492797 </v>
    <v>       0.49999999       0.50000000       0.75492797 </v>
    <v>       0.25000050       0.25000000       0.75493902 </v>
    <v>       0.25000051       0.74999997       0.75493902 </v>
    <v>       0.75000047       0.25000000       0.75493902 </v>
    <v>       0.75000046       0.74999997       0.75493902 </v>
    <v>       0.13579050       0.11421000       0.70478299 </v>
    <v>       0.13579050       0.61420998       0.70478299 </v>
    <v>       0.63579045       0.11421000       0.70478299 </v>
    <v>       0.63579049       0.61420998       0.70478299 </v>
    <v>       0.36420952       0.38578999       0.70478299 </v>
    <v>       0.36420950       0.88578996       0.70478299 </v>
    <v>       0.86420954       0.38578999       0.70478299 </v>
    <v>       0.86420953       0.88578996       0.70478299 </v>
    <v>       0.11421799       0.36421899       0.70478098 </v>
    <v>       0.11421799       0.86421899       0.70478098 </v>
    <v>       0.61421800       0.36421899       0.70478098 </v>
    <v>       0.61421799       0.86421899       0.70478098 </v>
    <v>       0.38578201       0.13578149       0.70478202 </v>
    <v>       0.38578200       0.63578149       0.70478202 </v>
    <v>       0.88578199       0.13578149       0.70478202 </v>
    <v>       0.88578203       0.63578149       0.70478202 </v>
    <v>       0.13466700       0.11533200       0.80125603 </v>
    <v>       0.13466699       0.61533199       0.80125603 </v>
    <v>       0.63466699       0.11533200       0.80125603 </v>
    <v>       0.63466698       0.61533199       0.80125603 </v>
    <v>       0.36533300       0.38466799       0.80125603 </v>
    <v>       0.36533299       0.88466796       0.80125603 </v>
    <v>       0.86533295       0.38466799       0.80125603 </v>
    <v>       0.86533294       0.88466796       0.80125603 </v>
    <v>       0.11532850       0.36533700       0.80126500 </v>
    <v>       0.11532850       0.86533698       0.80126500 </v>
    <v>       0.61532850       0.36533700       0.80126500 </v>
    <v>       0.61532849       0.86533698       0.80126500 </v>
    <v>       0.38467151       0.13466300       0.80126500 </v>
    <v>       0.38467150       0.63466297       0.80126500 </v>
    <v>       0.88467149       0.13466300       0.80126500 </v>
    <v>       0.88467153       0.63466297       0.80126500 </v>
    <v>       0.99381623       0.00502335       0.60437662 </v>
    <v>       0.00702757       0.50323280       0.60470829 </v>
    <v>       0.50223805       0.00763896       0.60325420 </v>
    <v>       0.49857272       0.50216439       0.60482745 </v>
    <v>       0.25103171       0.24909777       0.60358709 </v>
    <v>       0.25081239       0.75288537       0.60286344 </v>
    <v>       0.74595006       0.25385112       0.60702095 </v>
    <v>       0.74228605       0.75902669       0.60330005 </v>
    <v>       0.00000050       0.00000050       0.70482896 </v>
    <v>       0.00000050       0.50000048       0.70482896 </v>
    <v>       0.50000048       0.00000050       0.70482896 </v>
    <v>       0.50000046       0.50000048       0.70482896 </v>
    <v>       0.24999999       0.24999947       0.70482499 </v>
    <v>       0.25000001       0.74999950       0.70482499 </v>
    <v>       0.74999999       0.24999947       0.70482499 </v>
    <v>       0.74999998       0.74999950       0.70482499 </v>
    <v>       0.00000000       0.00000000       0.80731797 </v>
    <v>       0.00000000       0.50000000       0.80731797 </v>
    <v>       0.50000000       0.00000000       0.80731797 </v>
    <v>       0.49999999       0.50000000       0.80731797 </v>
    <v>       0.24999999       0.25000000       0.80731797 </v>
    <v>       0.25000001       0.74999997       0.80731797 </v>
    <v>       0.74999999       0.25000000       0.80731797 </v>
    <v>       0.74999998       0.74999997       0.80731797 </v>
   </varray>
  </structure>
  <varray name="primitive_index" >
   <v type="int" >        1 </v>
   <v type="int" >        2 </v>
   <v type="int" >        3 </v>
   <v type="int" >        4 </v>
   <v type="int" >        5 </v>
   <v type="int" >        6 </v>
   <v type="int" >        7 </v>
   <v type="int" >        8 </v>
   <v type="int" >        9 </v>
   <v type="int" >       10 </v>
   <v type="int" >       11 </v>
   <v type="int" >       12 </v>
   <v type="int" >       13 </v>
   <v type="int" >       14 </v>
   <v type="int" >       15 </v>
   <v type="int" >       16 </v>
   <v type="int" >       17 </v>
   <v type="int" >       18 </v>
   <v type="int" >       19 </v>
   <v type="int" >       20 </v>
   <v type="int" >       21 </v>
   <v type="int" >       22 </v>
   <v type="int" >       23 </v>
   <v type="int" >       24 </v>
   <v type="int" >       25 </v>
   <v type="int" >       26 </v>
   <v type="int" >       27 </v>
   <v type="int" >       28 </v>
   <v type="int" >       29 </v>
   <v type="int" >       30 </v>
   <v type="int" >       31 </v>
   <v type="int" >       32 </v>
   <v type="int" >       33 </v>
   <v type="int" >       34 </v>
   <v type="int" >       35 </v>
   <v type="int" >       36 </v>
   <v type="int" >       37 </v>
   <v type="int" >       38 </v>
   <v type="int" >       39 </v>
   <v type="int" >       40 </v>
   <v type="int" >       41 </v>
   <v type="int" >       42 </v>
   <v type="int" >       43 </v>
   <v type="int" >       44 </v>
   <v type="int" >       45 </v>
   <v type="int" >       46 </v>
   <v type="int" >       47 </v>
   <v type="int" >       48 </v>
   <v type="int" >       49 </v>
   <v type="int" >       50 </v>
   <v type="int" >       51 </v>
   <v type="int" >       52 </v>
   <v type="int" >       53 </v>
   <v type="int" >       54 </v>
   <v type="int" >       55 </v>
   <v type="int" >       56 </v>
   <v type="int" >       57 </v>
   <v type="int" >       58 </v>
   <v type="int" >       59 </v>
   <v type="int" >       60 </v>
   <v type="int" >       61 </v>
   <v type="int" >       62 </v>
   <v type="int" >       63 </v>
   <v type="int" >       64 </v>
   <v type="int" >       65 </v>
   <v type="int" >       66 </v>
   <v type="int" >       67 </v>
   <v type="int" >       68 </v>
   <v type="int" >       69 </v>
   <v type="int" >       70 </v>
   <v type="int" >       71 </v>
   <v type="int" >       72 </v>
   <v type="int" >       73 </v>
   <v type="int" >       74 </v>
   <v type="int" >       75 </v>
   <v type="int" >       76 </v>
   <v type="int" >       77 </v>
   <v type="int" >       78 </v>
   <v type="int" >       79 </v>
   <v type="int" >       80 </v>
   <v type="int" >       81 </v>
   <v type="int" >       82 </v>
   <v type="int" >       83 </v>
   <v type="int" >       84 </v>
   <v type="int" >       85 </v>
   <v type="int" >       86 </v>
   <v type="int" >       87 </v>
   <v type="int" >       88 </v>
   <v type="int" >       89 </v>
   <v type="int" >       90 </v>
   <v type="int" >       91 </v>
   <v type="int" >       92 </v>
   <v type="int" >       93 </v>
   <v type="int" >       94 </v>
   <v type="int" >       95 </v>
   <v type="int" >       96 </v>
   <v type="int" >       97 </v>
   <v type="int" >       98 </v>
   <v type="int" >       99 </v>
   <v type="int" >      100 </v>
   <v type="int" >      101 </v>
   <v type="int" >      102 </v>
   <v type="int" >      103 </v>
   <v type="int" >      104 </v>
   <v type="int" >      105 </v>
   <v type="int" >      106 </v>
   <v type="int" >      107 </v>
   <v type="int" >      108 </v>
   <v type="int" >      109 </v>
   <v type="int" >      110 </v>
   <v type="int" >      111 </v>
   <v type="int" >      112 </v>
   <v type="int" >      113 </v>
   <v type="int" >      114 </v>
   <v type="int" >      115 </v>
   <v type="int" >      116 </v>
   <v type="int" >      117 </v>
   <v type="int" >      118 </v>
   <v type="int" >      119 </v>
   <v type="int" >      120 </v>
   <v type="int" >      121 </v>
   <v type="int" >      122 </v>
   <v type="int" >      123 </v>
   <v type="int" >      124 </v>
   <v type="int" >      125 </v>
   <v type="int" >      126 </v>
   <v type="int" >      127 </v>
   <v type="int" >      128 </v>
   <v type="int" >      129 </v>
   <v type="int" >      130 </v>
   <v type="int" >      131 </v>
   <v type="int" >      132 </v>
   <v type="int" >      133 </v>
   <v type="int" >      134 </v>
   <v type="int" >      135 </v>
   <v type="int" >      136 </v>
   <v type="int" >      137 </v>
   <v type="int" >      138 </v>
   <v type="int" >      139 </v>
   <v type="int" >      140 </v>
   <v type="int" >      141 </v>
   <v type="int" >      142 </v>
   <v type="int" >      143 </v>
   <v type="int" >      144 </v>
   <v type="int" >      145 </v>
   <v type="int" >      146 </v>
   <v type="int" >      147 </v>
   <v type="int" >      148 </v>
   <v type="int" >      149 </v>
   <v type="int" >      150 </v>
   <v type="int" >      151 </v>
   <v type="int" >      152 </v>
   <v type="int" >      153 </v>
   <v type="int" >      154 </v>
   <v type="int" >      155 </v>
   <v type="int" >      156 </v>
   <v type="int" >      157 </v>
   <v type="int" >      158 </v>
   <v type="int" >      159 </v>
   <v type="int" >      160 </v>
   <v type="int" >      161 </v>
   <v type="int" >      162 </v>
   <v type="int" >      163 </v>
   <v type="int" >      164 </v>
   <v type="int" >      165 </v>
   <v type="int" >      166 </v>
   <v type="int" >      167 </v>
   <v type="int" >      168 </v>
   <v type="int" >      169 </v>
   <v type="int" >      170 </v>
   <v type="int" >      171 </v>
   <v type="int" >      172 </v>
   <v type="int" >      173 </v>
   <v type="int" >      174 </v>
   <v type="int" >      175 </v>
   <v type="int" >      176 </v>
   <v type="int" >      177 </v>
   <v type="int" >      178 </v>
   <v type="int" >      179 </v>
   <v type="int" >      180 </v>
   <v type="int" >      181 </v>
   <v type="int" >      182 </v>
   <v type="int" >      183 </v>
   <v type="int" >      184 </v>
   <v type="int" >      185 </v>
   <v type="int" >      186 </v>
   <v type="int" >      187 </v>
   <v type="int" >      188 </v>
   <v type="int" >      189 </v>
   <v type="int" >      190 </v>
   <v type="int" >      191 </v>
   <v type="int" >      192 </v>
   <v type="int" >      193 </v>
   <v type="int" >      194 </v>
   <v type="int" >      195 </v>
   <v type="int" >      196 </v>
   <v type="int" >      197 </v>
   <v type="int" >      198 </v>
   <v type="int" >      199 </v>
   <v type="int" >      200 </v>
   <v type="int" >      201 </v>
   <v type="int" >      202 </v>
   <v type="int" >      203 </v>
   <v type="int" >      204 </v>
   <v type="int" >      205 </v>
   <v type="int" >      206 </v>
   <v type="int" >      207 </v>
   <v type="int" >      208 </v>
   <v type="int" >      209 </v>
   <v type="int" >      210 </v>
   <v type="int" >      211 </v>
   <v type="int" >      212 </v>
   <v type="int" >      213 </v>
   <v type="int" >      214 </v>
   <v type="int" >      215 </v>
   <v type="int" >      216 </v>
   <v type="int" >      217 </v>
   <v type="int" >      218 </v>
   <v type="int" >      219 </v>
   <v type="int" >      220 </v>
   <v type="int" >      221 </v>
   <v type="int" >      222 </v>
   <v type="int" >      223 </v>
   <v type="int" >      224 </v>
   <v type="int" >      225 </v>
   <v type="int" >      226 </v>
   <v type="int" >      227 </v>
   <v type="int" >      228 </v>
   <v type="int" >      229 </v>
   <v type="int" >      230 </v>
   <v type="int" >      231 </v>
   <v type="int" >      232 </v>
   <v type="int" >      233 </v>
   <v type="int" >      234 </v>
   <v type="int" >      235 </v>
   <v type="int" >      236 </v>
   <v type="int" >      237 </v>
   <v type="int" >      238 </v>
   <v type="int" >      239 </v>
   <v type="int" >      240 </v>
   <v type="int" >      241 </v>
   <v type="int" >      242 </v>
   <v type="int" >      243 </v>
   <v type="int" >      244 </v>
   <v type="int" >      245 </v>
   <v type="int" >      246 </v>
   <v type="int" >      247 </v>
   <v type="int" >      248 </v>
   <v type="int" >      249 </v>
   <v type="int" >      250 </v>
   <v type="int" >      251 </v>
   <v type="int" >      252 </v>
   <v type="int" >      253 </v>
   <v type="int" >      254 </v>
   <v type="int" >      255 </v>
   <v type="int" >      256 </v>
   <v type="int" >      257 </v>
   <v type="int" >      258 </v>
   <v type="int" >      259 </v>
   <v type="int" >      260 </v>
   <v type="int" >      261 </v>
   <v type="int" >      262 </v>
   <v type="int" >      263 </v>
   <v type="int" >      264 </v>
   <v type="int" >      265 </v>
   <v type="int" >      266 </v>
   <v type="int" >      267 </v>
   <v type="int" >      268 </v>
   <v type="int" >      269 </v>
   <v type="int" >      270 </v>
   <v type="int" >      271 </v>
   <v type="int" >      272 </v>
   <v type="int" >      273 </v>
   <v type="int" >      274 </v>
   <v type="int" >      275 </v>
   <v type="int" >      276 </v>
   <v type="int" >      277 </v>
   <v type="int" >      278 </v>
   <v type="int" >      279 </v>
   <v type="int" >      280 </v>
   <v type="int" >      281 </v>
   <v type="int" >      282 </v>
   <v type="int" >      283 </v>
   <v type="int" >      284 </v>
   <v type="int" >      285 </v>
   <v type="int" >      286 </v>
   <v type="int" >      287 </v>
   <v type="int" >      288 </v>
   <v type="int" >      289 </v>
   <v type="int" >      290 </v>
   <v type="int" >      291 </v>
   <v type="int" >      292 </v>
   <v type="int" >      293 </v>
   <v type="int" >      294 </v>
   <v type="int" >      295 </v>
   <v type="int" >      296 </v>
   <v type="int" >      297 </v>
   <v type="int" >      298 </v>
   <v type="int" >      299 </v>
   <v type="int" >      300 </v>
   <v type="int" >      301 </v>
   <v type="int" >      302 </v>
   <v type="int" >      303 </v>
   <v type="int" >      304 </v>
   <v type="int" >      305 </v>
   <v type="int" >      306 </v>
   <v type="int" >      307 </v>
   <v type="int" >      308 </v>
   <v type="int" >      309 </v>
   <v type="int" >      310 </v>
   <v type="int" >      311 </v>
   <v type="int" >      312 </v>
   <v type="int" >      313 </v>
   <v type="int" >      314 </v>
   <v type="int" >      315 </v>
   <v type="int" >      316 </v>
   <v type="int" >      317 </v>
   <v type="int" >      318 </v>
   <v type="int" >      319 </v>
   <v type="int" >      320 </v>
   <v type="int" >      321 </v>
   <v type="int" >      322 </v>
   <v type="int" >      323 </v>
   <v type="int" >      324 </v>
   <v type="int" >      325 </v>
  </varray>
 </primitive_cell>
 <kpoints>
  <generation param="Gamma">
   <v type="int" name="divisions">       3        3        1 </v>
   <v name="usershift">      0.00000000       0.00000000       0.00000000 </v>
   <v name="genvec1">      0.33333333       0.00000000       0.00000000 </v>
   <v name="genvec2">      0.00000000       0.33333333       0.00000000 </v>
   <v name="genvec3">      0.00000000       0.00000000       1.00000000 </v>
   <v name="shift">      0.00000000       0.00000000       0.00000000 </v>
  </generation>
  <varray name="kpointlist" >
   <v>       0.00000000       0.00000000       0.00000000 </v>
   <v>       0.33333333       0.00000000       0.00000000 </v>
   <v>       0.00000000       0.33333333       0.00000000 </v>
   <v>       0.33333333       0.33333333       0.00000000 </v>
   <v>      -0.33333333       0.33333333       0.00000000 </v>
  </varray>
  <varray name="weights" >
   <v>       0.11111111 </v>
   <v>       0.22222222 </v>
   <v>       0.22222222 </v>
   <v>       0.22222222 </v>
   <v>       0.22222222 </v>
  </varray>
 </kpoints>
 <parameters>
  <separator name="general" >
   <i type="string" name="SYSTEM">PSC</i>
   <i type="logical" name="LCOMPAT"> F  </i>
  </separator>
  <separator name="electronic" >
   <i type="string" name="PREC">normal</i>
   <i name="ENMAX">    500.00000000</i>
   <i name="ENAUG">    644.87300000</i>
   <i name="EDIFF">      0.00010000</i>
   <i type="int" name="IALGO">    38</i>
   <i type="int" name="IWAVPR">    10</i>
   <i type="int" name="NBANDS">   732</i>
   <i type="int" name="NBANDSLOW">    -1</i>
   <i type="int" name="NBANDSHIGH">    -1</i>
   <i name="NELECT">   1134.00000000</i>
   <i type="int" name="TURBO">     0</i>
   <i type="int" name="IRESTART">     0</i>
   <i type="int" name="NREBOOT">     0</i>
   <i type="int" name="NMIN">     0</i>
   <i name="EREF">      0.00000000</i>
   <separator name="electronic smearing" >
    <i type="int" name="ISMEAR">     0</i>
    <i name="SIGMA">      0.05000000</i>
    <i name="KSPACING">      0.50000000</i>
    <i type="logical" name="KGAMMA"> T  </i>
    <i type="logical" name="KBLOWUP"> T  </i>
   </separator>
   <separator name="electronic projectors" >
    <i type="logical" name="LREAL"> T  </i>
    <v name="ROPT">     -0.00050000     -0.00050000     -0.00050000     -0.00050000     -0.00050000</v>
    <i type="int" name="LMAXPAW">  -100</i>
    <i type="int" name="LMAXMIX">     2</i>
    <i type="logical" name="NLSPLINE"> F  </i>
   </separator>
   <separator name="electronic startup" >
    <i type="int" name="ISTART">     0</i>
    <i type="int" name="ICHARG">     1</i>
    <i type="int" name="INIWAV">     1</i>
   </separator>
   <separator name="electronic spin" >
    <i type="int" name="ISPIN">     1</i>
    <i type="logical" name="LNONCOLLINEAR"> F  </i>
    <v name="MAGMOM">      1.00000000      1.00000000      1.00000000      1.00000000      1.00000000      1.00000000      1.00000000      1.00000000      1.00000000      1.00000000      1.00000000      1.00000000      1.00000000      1.00000000      1.00000000      1.00000000      1.00000000      1.00000000      1.00000000      1.00000000
      1.00000000      1.00000000      1.00000000      1.00000000      1.00000000      1.00000000      1.00000000      1.00000000      1.00000000      1.00000000      1.00000000      1.00000000      1.00000000      1.00000000      1.00000000      1.00000000      1.00000000      1.00000000      1.00000000      1.00000000
      1.00000000      1.00000000      1.00000000      1.00000000      1.00000000      1.00000000      1.00000000      1.00000000      1.00000000      1.00000000      1.00000000      1.00000000      1.00000000      1.00000000      1.00000000      1.00000000      1.00000000      1.00000000      1.00000000      1.00000000
      1.00000000      1.00000000      1.00000000      1.00000000      1.00000000      1.00000000      1.00000000      1.00000000      1.00000000      1.00000000      1.00000000      1.00000000      1.00000000      1.00000000      1.00000000      1.00000000      1.00000000      1.00000000      1.00000000      1.00000000
      1.00000000      1.00000000      1.00000000      1.00000000      1.00000000      1.00000000      1.00000000      1.00000000      1.00000000      1.00000000      1.00000000      1.00000000      1.00000000      1.00000000      1.00000000      1.00000000      1.00000000      1.00000000      1.00000000      1.00000000
      1.00000000      1.00000000      1.00000000      1.00000000      1.00000000      1.00000000      1.00000000      1.00000000      1.00000000      1.00000000      1.00000000      1.00000000      1.00000000      1.00000000      1.00000000      1.00000000      1.00000000      1.00000000      1.00000000      1.00000000
      1.00000000      1.00000000      1.00000000      1.00000000      1.00000000      1.00000000      1.00000000      1.00000000      1.00000000      1.00000000      1.00000000      1.00000000      1.00000000      1.00000000      1.00000000      1.00000000      1.00000000      1.00000000      1.00000000      1.00000000
      1.00000000      1.00000000      1.00000000      1.00000000      1.00000000      1.00000000      1.00000000      1.00000000      1.00000000      1.00000000      1.00000000      1.00000000      1.00000000      1.00000000      1.00000000      1.00000000      1.00000000      1.00000000      1.00000000      1.00000000
      1.00000000      1.00000000      1.00000000      1.00000000      1.00000000      1.00000000      1.00000000      1.00000000      1.00000000      1.00000000      1.00000000      1.00000000      1.00000000      1.00000000      1.00000000      1.00000000      1.00000000      1.00000000      1.00000000      1.00000000
      1.00000000      1.00000000      1.00000000      1.00000000      1.00000000      1.00000000      1.00000000      1.00000000      1.00000000      1.00000000      1.00000000      1.00000000      1.00000000      1.00000000      1.00000000      1.00000000      1.00000000      1.00000000      1.00000000      1.00000000
      1.00000000      1.00000000      1.00000000      1.00000000      1.00000000      1.00000000      1.00000000      1.00000000      1.00000000      1.00000000      1.00000000      1.00000000      1.00000000      1.00000000      1.00000000      1.00000000      1.00000000      1.00000000      1.00000000      1.00000000
      1.00000000      1.00000000      1.00000000      1.00000000      1.00000000      1.00000000      1.00000000      1.00000000      1.00000000      1.00000000      1.00000000      1.00000000      1.00000000      1.00000000      1.00000000      1.00000000      1.00000000      1.00000000      1.00000000      1.00000000
      1.00000000      1.00000000      1.00000000      1.00000000      1.00000000      1.00000000      1.00000000      1.00000000      1.00000000      1.00000000      1.00000000      1.00000000      1.00000000      1.00000000      1.00000000      1.00000000      1.00000000      1.00000000      1.00000000      1.00000000
      1.00000000      1.00000000      1.00000000      1.00000000      1.00000000      1.00000000      1.00000000      1.00000000      1.00000000      1.00000000      1.00000000      1.00000000      1.00000000      1.00000000      1.00000000      1.00000000      1.00000000      1.00000000      1.00000000      1.00000000
      1.00000000      1.00000000      1.00000000      1.00000000      1.00000000      1.00000000      1.00000000      1.00000000      1.00000000      1.00000000      1.00000000      1.00000000      1.00000000      1.00000000      1.00000000      1.00000000      1.00000000      1.00000000      1.00000000      1.00000000
      1.00000000      1.00000000      1.00000000      1.00000000      1.00000000      1.00000000      1.00000000      1.00000000      1.00000000      1.00000000      1.00000000      1.00000000      1.00000000      1.00000000      1.00000000      1.00000000      1.00000000      1.00000000      1.00000000      1.00000000
      1.00000000      1.00000000      1.00000000      1.00000000      1.00000000</v>
    <i name="NUPDOWN">     -1.00000000</i>
    <i type="logical" name="LSORBIT"> F  </i>
    <v name="SAXIS">      0.00000000      0.00000000      1.00000000</v>
    <i type="logical" name="LSPIRAL"> F  </i>
    <v name="QSPIRAL">      0.00000000      0.00000000      0.00000000</v>
    <i type="logical" name="LZEROZ"> F  </i>
   </separator>
   <separator name="electronic exchange-correlation" >
    <i type="logical" name="LASPH"> F  </i>
    <i type="logical" name="LMETAGGA"> F  </i>
   </separator>
   <separator name="electronic convergence" >
    <i type="int" name="NELM">   600</i>
    <i type="int" name="NELMDL">     0</i>
    <i type="int" name="NELMIN">     2</i>
    <i name="ENINI">    500.00000000</i>
    <separator name="electronic convergence detail" >
     <i type="logical" name="LDIAG"> T  </i>
     <i type="logical" name="LSUBROT"> F  </i>
     <i name="WEIMIN">      0.00000000</i>
     <i name="EBREAK">      0.00000003</i>
     <i name="DEPER">      0.30000000</i>
     <i type="int" name="NRMM">     4</i>
     <i name="TIME">      0.40000000</i>
    </separator>
   </separator>
   <separator name="electronic mixer" >
    <i name="AMIX">      0.40000000</i>
    <i name="BMIX">      0.01000000</i>
    <i name="AMIN">      0.01000000</i>
    <i name="AMIX_MAG">      1.60000000</i>
    <i name="BMIX_MAG">      0.01000000</i>
    <separator name="electronic mixer details" >
     <i type="int" name="IMIX">     4</i>
     <i type="logical" name="MIXFIRST"> F  </i>
     <i type="int" name="MAXMIX">   -45</i>
     <i name="WC">    100.00000000</i>
     <i type="int" name="INIMIX">     1</i>
     <i type="int" name="MIXPRE">     1</i>
     <i type="int" name="MREMOVE">     5</i>
    </separator>
   </separator>
   <separator name="electronic dipolcorrection" >
    <i type="logical" name="LDIPOL"> T  </i>
    <i type="logical" name="LMONO"> F  </i>
    <i type="int" name="IDIPOL">     3</i>
    <i name="EPSILON">      1.00000000</i>
    <v name="DIPOL">   -100.00000000   -100.00000000   -100.00000000</v>
    <i name="EFIELD">      0.00000000</i>
   </separator>
  </separator>
  <separator name="grids" >
   <i type="int" name="NGX">   100</i>
   <i type="int" name="NGY">   100</i>
   <i type="int" name="NGZ">   350</i>
   <i type="int" name="NGXF">   200</i>
   <i type="int" name="NGYF">   200</i>
   <i type="int" name="NGZF">   700</i>
   <i type="logical" name="ADDGRID"> F  </i>
  </separator>
  <separator name="ionic" >
   <i type="int" name="NSW">     0</i>
   <i type="int" name="IBRION">    -1</i>
   <i type="int" name="MDALGO">     0</i>
   <i type="int" name="ISIF">     2</i>
   <i name="PSTRESS">      0.00000000</i>
   <i name="EDIFFG">      0.00100000</i>
   <i type="int" name="NFREE">     0</i>
   <i name="POTIM">      0.50000000</i>
   <i name="SMASS">     -3.00000000</i>
   <i name="SCALEE">      1.00000000</i>
  </separator>
  <separator name="ionic md" >
   <i name="TEBEG">      0.00010000</i>
   <i name="TEEND">      0.00010000</i>
   <i type="int" name="NBLOCK">     1</i>
   <i type="int" name="KBLOCK">     1</i>
   <i type="int" name="NPACO">   256</i>
   <i name="APACO">     16.00000000</i>
  </separator>
  <separator name="symmetry" >
   <i type="int" name="ISYM">     0</i>
   <i name="SYMPREC">      0.00001000</i>
  </separator>
  <separator name="dos" >
   <i type="int" name="LORBIT">     0</i>
   <v name="RWIGS">     -1.00000000     -1.00000000     -1.00000000     -1.00000000     -1.00000000</v>
   <i type="int" name="NEDOS">   301</i>
   <i name="EMIN">     10.00000000</i>
   <i name="EMAX">    -10.00000000</i>
   <i name="EFERMI">      0.00000000</i>
  </separator>
  <separator name="writing" >
   <i type="int" name="NWRITE">     2</i>
   <i type="logical" name="LWAVE"> F  </i>
   <i type="logical" name="LDOWNSAMPLE"> F  </i>
   <i type="logical" name="LCHARG"> T  </i>
   <i type="logical" name="LPARD"> F  </i>
   <i type="logical" name="LVTOT"> T  </i>
   <i type="logical" name="LVHAR"> F  </i>
   <i type="logical" name="LELF"> F  </i>
   <i type="logical" name="LOPTICS"> F  </i>
   <v name="STM">      0.00000000      0.00000000      0.00000000      0.00000000      0.00000000      0.00000000      0.00000000</v>
  </separator>
  <separator name="performance" >
   <i type="int" name="NPAR">     4</i>
   <i type="int" name="NSIM">     4</i>
   <i type="int" name="NBLK">    -1</i>
   <i type="logical" name="LPLANE"> T  </i>
   <i type="logical" name="LSCALAPACK"> T  </i>
   <i type="logical" name="LSCAAWARE"> F  </i>
   <i type="logical" name="LSCALU"> F  </i>
   <i type="logical" name="LASYNC"> F  </i>
   <i type="logical" name="LORBITALREAL"> F  </i>
  </separator>
  <separator name="miscellaneous" >
   <i type="int" name="IDIOT">     3</i>
   <i type="int" name="PHON_NSTRUCT">    -1</i>
   <i type="logical" name="LMUSIC"> F  </i>
   <v name="POMASS">      1.00000000     12.01100000     14.00100000    126.90400000    207.20000000</v>
   <v name="DARWINR">      0.00000000      0.00000000      0.00000000      0.00000000      0.00000000</v>
   <v name="DARWINV">      1.00000000      1.00000000      1.00000000      1.00000000      1.00000000</v>
   <i type="logical" name="LCORR"> T  </i>
  </separator>
  <i type="logical" name="GGA_COMPAT"> F  </i>
  <i type="logical" name="LBERRY"> F  </i>
  <i type="int" name="ICORELEVEL">     0</i>
  <i type="logical" name="LDAU"> F  </i>
  <i type="int" name="I_CONSTRAINED_M">     0</i>
  <separator name="electronic exchange-correlation" >
   <i type="string" name="GGA">--</i>
   <i type="int" name="VOSKOWN">     0</i>
   <i type="logical" name="LHFCALC"> F  </i>
   <i type="string" name="PRECFOCK"></i>
   <i type="logical" name="LSYMGRAD"> F  </i>
   <i type="logical" name="LHFONE"> F  </i>
   <i type="logical" name="LRHFCALC"> F  </i>
   <i type="logical" name="LTHOMAS"> F  </i>
   <i type="logical" name="LMODELHF"> F  </i>
   <i type="logical" name="LFOCKACE"> F  </i>
   <i name="ENCUT4O">     -1.00000000</i>
   <i type="int" name="EXXOEP">     0</i>
   <i type="int" name="FOURORBIT">     0</i>
   <i name="AEXX">      0.00000000</i>
   <i name="HFALPHA">      0.00000000</i>
   <i name="MCALPHA">      0.00000000</i>
   <i name="ALDAX">      1.00000000</i>
   <i name="AGGAX">      1.00000000</i>
   <i name="ALDAC">      1.00000000</i>
   <i name="AGGAC">      1.00000000</i>
   <i type="int" name="NKREDX">     1</i>
   <i type="int" name="NKREDY">     1</i>
   <i type="int" name="NKREDZ">     1</i>
   <i type="logical" name="SHIFTRED"> F  </i>
   <i type="logical" name="ODDONLY"> F  </i>
   <i type="logical" name="EVENONLY"> F  </i>
   <i type="int" name="LMAXFOCK">     0</i>
   <i type="int" name="NMAXFOCKAE">     0</i>
   <i type="logical" name="LFOCKAEDFT"> F  </i>
   <i name="HFSCREEN">      0.00000000</i>
   <i name="HFSCREENC">      0.00000000</i>
   <i type="int" name="NBANDSGWLOW">     0</i>
  </separator>
  <separator name="vdW DFT" >
   <i type="logical" name="LUSE_VDW"> F  </i>
   <i name="Zab_VDW">     -0.84910000</i>
   <i name="PARAM1">      0.12340000</i>
   <i name="PARAM2">      1.00000000</i>
   <i name="PARAM3">      0.00000000</i>
  </separator>
  <separator name="model GW" >
   <i type="int" name="MODEL_GW">     0</i>
   <i name="MODEL_EPS0">     37.63423484</i>
   <i name="MODEL_ALPHA">      1.00000000</i>
  </separator>
  <separator name="linear response parameters" >
   <i type="logical" name="LEPSILON"> F  </i>
   <i type="logical" name="LRPA"> F  </i>
   <i type="logical" name="LNABLA"> F  </i>
   <i type="logical" name="LVEL"> F  </i>
   <i type="int" name="KINTER">     0</i>
   <i name="CSHIFT">      0.10000000</i>
   <i name="OMEGAMAX">     -1.00000000</i>
   <i name="DEG_THRESHOLD">      0.00200000</i>
   <i name="RTIME">     -0.10000000</i>
   <i name="WPLASMAI">      0.00000000</i>
   <v name="DFIELD">      0.00000000      0.00000000      0.00000000</v>
   <v name="WPLASMA">      0.00000000      0.00000000      0.00000000      0.00000000      0.00000000      0.00000000      0.00000000      0.00000000      0.00000000</v>
  </separator>
  <separator name="orbital magnetization" >
   <i type="logical" name="NUCIND"> F  </i>
   <v name="MAGPOS">      0.00000000      0.00000000      0.00000000</v>
   <i type="logical" name="LNICSALL"> T  </i>
   <i type="logical" name="ORBITALMAG"> F  </i>
   <i type="logical" name="LMAGBLOCH"> F  </i>
   <i type="logical" name="LCHIMAG"> F  </i>
   <i type="logical" name="LGAUGE"> T  </i>
   <i type="int" name="MAGATOM">     0</i>
   <v name="MAGDIPOL">      0.00000000      0.00000000      0.00000000</v>
   <v name="AVECCONST">      0.00000000      0.00000000      0.00000000</v>
  </separator>
  <separator name="response functions" >
   <i type="logical" name="LFINITE_TEMPERATURE"> F  </i>
   <i type="logical" name="LADDER"> F  </i>
   <i type="logical" name="LRPAFORCE"> F  </i>
   <i type="logical" name="LFXC"> F  </i>
   <i type="logical" name="LHARTREE"> T  </i>
   <i type="int" name="IBSE">     0</i>
   <v type="int" name="KPOINT">    -1     0     0     0</v>
   <i type="logical" name="LTCTC"> F  </i>
   <i type="logical" name="LTCTE"> F  </i>
   <i type="logical" name="LTETE"> F  </i>
   <i type="logical" name="LTRIPLET"> F  </i>
   <i type="logical" name="LFXCEPS"> F  </i>
   <i type="logical" name="LFXHEG"> F  </i>
   <i type="int" name="NATURALO">     2</i>
   <i type="logical" name="LHOLEGF"> F  </i>
   <i type="logical" name="L2ORDER"> F  </i>
   <i type="logical" name="LDMP1"> F  </i>
   <i type="logical" name="LMP2LT"> F  </i>
   <i type="logical" name="LSMP2LT"> F  </i>
   <i type="logical" name="LGWLF"> F  </i>
   <i name="ENCUTGW">     -2.00000000</i>
   <i name="ENCUTGWSOFT">     -2.00000000</i>
   <i name="ENCUTLF">     -1.00000000</i>
   <i type="logical" name="LESF_SPLINES"> F  </i>
   <i type="int" name="LMAXMP2">    -1</i>
   <i name="SCISSOR">      0.00000000</i>
   <i type="int" name="NOMEGA">     0</i>
   <i type="int" name="NOMEGAR">     0</i>
   <i type="int" name="NBANDSGW">    -1</i>
   <i type="int" name="NBANDSO">    -1</i>
   <i type="int" name="NBANDSV">    -1</i>
   <i type="int" name="NELM">   600</i>
   <i type="int" name="NELMHF">     1</i>
   <i type="int" name="DIM">     3</i>
   <i type="int" name="IESPILON">     4</i>
   <i type="int" name="ANTIRES">     0</i>
   <i name="OMEGAMAX">    -30.00000000</i>
   <i name="OMEGAMIN">    -30.00000000</i>
   <i name="OMEGATL">   -200.00000000</i>
   <i type="int" name="OMEGAGRID">     0</i>
   <i name="CSHIFT">     -0.10000000</i>
   <i type="logical" name="LSELFENERGY"> F  </i>
   <i type="logical" name="LSPECTRAL"> F  </i>
   <i type="logical" name="LSPECTRALGW"> F  </i>
   <i type="logical" name="LSINGLES"> F  </i>
   <i type="logical" name="LFERMIGW"> F  </i>
   <i type="logical" name="ODDONLYGW"> F  </i>
   <i type="logical" name="EVENONLYGW"> F  </i>
   <i type="int" name="NKREDLFX">     1</i>
   <i type="int" name="NKREDLFY">     1</i>
   <i type="int" name="NKREDLFZ">     1</i>
   <i type="int" name="MAXMEM">  2800</i>
   <i type="int" name="TELESCOPE">     0</i>
   <i type="int" name="NTAUPAR">    -1</i>
   <i type="int" name="NOMEGAPAR">    -1</i>
   <i name="DAMP_NEWTON">      0.80000001</i>
   <i name="LAMBDA">      1.00000000</i>
  </separator>
  <separator name="External order field" >
   <i name="OFIELD_KAPPA">      0.00000000</i>
   <v name="OFIELD_K">      0.00000000      0.00000000      0.00000000</v>
   <i name="OFIELD_Q6_NEAR">      0.00000000</i>
   <i name="OFIELD_Q6_FAR">      0.00000000</i>
   <i name="OFIELD_A">      0.00000000</i>
  </separator>
 </parameters>
 <atominfo>
  <atoms>     325 </atoms>
  <types>       5 </types>
  <array name="atoms" >
   <dimension dim="1">ion</dimension>
   <field type="string">element</field>
   <field type="int">atomtype</field>
   <set>
    <rc><c>H </c><c>   1</c></rc>
    <rc><c>H </c><c>   1</c></rc>
    <rc><c>H </c><c>   1</c></rc>
    <rc><c>H </c><c>   1</c></rc>
    <rc><c>H </c><c>   1</c></rc>
    <rc><c>H </c><c>   1</c></rc>
    <rc><c>H </c><c>   1</c></rc>
    <rc><c>H </c><c>   1</c></rc>
    <rc><c>H </c><c>   1</c></rc>
    <rc><c>H </c><c>   1</c></rc>
    <rc><c>H </c><c>   1</c></rc>
    <rc><c>H </c><c>   1</c></rc>
    <rc><c>H </c><c>   1</c></rc>
    <rc><c>H </c><c>   1</c></rc>
    <rc><c>H </c><c>   1</c></rc>
    <rc><c>H </c><c>   1</c></rc>
    <rc><c>H </c><c>   1</c></rc>
    <rc><c>H </c><c>   1</c></rc>
    <rc><c>H </c><c>   1</c></rc>
    <rc><c>H </c><c>   1</c></rc>
    <rc><c>H </c><c>   1</c></rc>
    <rc><c>H </c><c>   1</c></rc>
    <rc><c>H </c><c>   1</c></rc>
    <rc><c>H </c><c>   1</c></rc>
    <rc><c>H </c><c>   1</c></rc>
    <rc><c>H </c><c>   1</c></rc>
    <rc><c>H </c><c>   1</c></rc>
    <rc><c>H </c><c>   1</c></rc>
    <rc><c>H </c><c>   1</c></rc>
    <rc><c>H </c><c>   1</c></rc>
    <rc><c>H </c><c>   1</c></rc>
    <rc><c>H </c><c>   1</c></rc>
    <rc><c>H </c><c>   1</c></rc>
    <rc><c>H </c><c>   1</c></rc>
    <rc><c>H </c><c>   1</c></rc>
    <rc><c>H </c><c>   1</c></rc>
    <rc><c>H </c><c>   1</c></rc>
    <rc><c>H </c><c>   1</c></rc>
    <rc><c>H </c><c>   1</c></rc>
    <rc><c>H </c><c>   1</c></rc>
    <rc><c>H </c><c>   1</c></rc>
    <rc><c>H </c><c>   1</c></rc>
    <rc><c>H </c><c>   1</c></rc>
    <rc><c>H </c><c>   1</c></rc>
    <rc><c>H </c><c>   1</c></rc>
    <rc><c>H </c><c>   1</c></rc>
    <rc><c>H </c><c>   1</c></rc>
    <rc><c>H </c><c>   1</c></rc>
    <rc><c>H </c><c>   1</c></rc>
    <rc><c>H </c><c>   1</c></rc>
    <rc><c>H </c><c>   1</c></rc>
    <rc><c>H </c><c>   1</c></rc>
    <rc><c>H </c><c>   1</c></rc>
    <rc><c>H </c><c>   1</c></rc>
    <rc><c>H </c><c>   1</c></rc>
    <rc><c>H </c><c>   1</c></rc>
    <rc><c>H </c><c>   1</c></rc>
    <rc><c>H </c><c>   1</c></rc>
    <rc><c>H </c><c>   1</c></rc>
    <rc><c>H </c><c>   1</c></rc>
    <rc><c>H </c><c>   1</c></rc>
    <rc><c>H </c><c>   1</c></rc>
    <rc><c>H </c><c>   1</c></rc>
    <rc><c>H </c><c>   1</c></rc>
    <rc><c>H </c><c>   1</c></rc>
    <rc><c>H </c><c>   1</c></rc>
    <rc><c>H </c><c>   1</c></rc>
    <rc><c>H </c><c>   1</c></rc>
    <rc><c>H </c><c>   1</c></rc>
    <rc><c>H </c><c>   1</c></rc>
    <rc><c>H </c><c>   1</c></rc>
    <rc><c>H </c><c>   1</c></rc>
    <rc><c>H </c><c>   1</c></rc>
    <rc><c>H </c><c>   1</c></rc>
    <rc><c>H </c><c>   1</c></rc>
    <rc><c>H </c><c>   1</c></rc>
    <rc><c>H </c><c>   1</c></rc>
    <rc><c>H </c><c>   1</c></rc>
    <rc><c>H </c><c>   1</c></rc>
    <rc><c>H </c><c>   1</c></rc>
    <rc><c>H </c><c>   1</c></rc>
    <rc><c>H </c><c>   1</c></rc>
    <rc><c>H </c><c>   1</c></rc>
    <rc><c>H </c><c>   1</c></rc>
    <rc><c>H </c><c>   1</c></rc>
    <rc><c>H </c><c>   1</c></rc>
    <rc><c>H </c><c>   1</c></rc>
    <rc><c>H </c><c>   1</c></rc>
    <rc><c>H </c><c>   1</c></rc>
    <rc><c>H </c><c>   1</c></rc>
    <rc><c>H </c><c>   1</c></rc>
    <rc><c>H </c><c>   1</c></rc>
    <rc><c>H </c><c>   1</c></rc>
    <rc><c>H </c><c>   1</c></rc>
    <rc><c>H </c><c>   1</c></rc>
    <rc><c>H </c><c>   1</c></rc>
    <rc><c>H </c><c>   1</c></rc>
    <rc><c>H </c><c>   1</c></rc>
    <rc><c>H </c><c>   1</c></rc>
    <rc><c>H </c><c>   1</c></rc>
    <rc><c>H </c><c>   1</c></rc>
    <rc><c>H </c><c>   1</c></rc>
    <rc><c>H </c><c>   1</c></rc>
    <rc><c>H </c><c>   1</c></rc>
    <rc><c>H </c><c>   1</c></rc>
    <rc><c>H </c><c>   1</c></rc>
    <rc><c>H </c><c>   1</c></rc>
    <rc><c>H </c><c>   1</c></rc>
    <rc><c>H </c><c>   1</c></rc>
    <rc><c>H </c><c>   1</c></rc>
    <rc><c>H </c><c>   1</c></rc>
    <rc><c>H </c><c>   1</c></rc>
    <rc><c>H </c><c>   1</c></rc>
    <rc><c>H </c><c>   1</c></rc>
    <rc><c>H </c><c>   1</c></rc>
    <rc><c>H </c><c>   1</c></rc>
    <rc><c>H </c><c>   1</c></rc>
    <rc><c>H </c><c>   1</c></rc>
    <rc><c>H </c><c>   1</c></rc>
    <rc><c>H </c><c>   1</c></rc>
    <rc><c>H </c><c>   1</c></rc>
    <rc><c>H </c><c>   1</c></rc>
    <rc><c>H </c><c>   1</c></rc>
    <rc><c>H </c><c>   1</c></rc>
    <rc><c>H </c><c>   1</c></rc>
    <rc><c>H </c><c>   1</c></rc>
    <rc><c>H </c><c>   1</c></rc>
    <rc><c>H </c><c>   1</c></rc>
    <rc><c>H </c><c>   1</c></rc>
    <rc><c>H </c><c>   1</c></rc>
    <rc><c>H </c><c>   1</c></rc>
    <rc><c>H </c><c>   1</c></rc>
    <rc><c>H </c><c>   1</c></rc>
    <rc><c>H </c><c>   1</c></rc>
    <rc><c>H </c><c>   1</c></rc>
    <rc><c>H </c><c>   1</c></rc>
    <rc><c>H </c><c>   1</c></rc>
    <rc><c>H </c><c>   1</c></rc>
    <rc><c>H </c><c>   1</c></rc>
    <rc><c>H </c><c>   1</c></rc>
    <rc><c>H </c><c>   1</c></rc>
    <rc><c>H </c><c>   1</c></rc>
    <rc><c>H </c><c>   1</c></rc>
    <rc><c>C </c><c>   2</c></rc>
    <rc><c>C </c><c>   2</c></rc>
    <rc><c>C </c><c>   2</c></rc>
    <rc><c>C </c><c>   2</c></rc>
    <rc><c>C </c><c>   2</c></rc>
    <rc><c>C </c><c>   2</c></rc>
    <rc><c>C </c><c>   2</c></rc>
    <rc><c>C </c><c>   2</c></rc>
    <rc><c>C </c><c>   2</c></rc>
    <rc><c>C </c><c>   2</c></rc>
    <rc><c>C </c><c>   2</c></rc>
    <rc><c>C </c><c>   2</c></rc>
    <rc><c>C </c><c>   2</c></rc>
    <rc><c>C </c><c>   2</c></rc>
    <rc><c>C </c><c>   2</c></rc>
    <rc><c>C </c><c>   2</c></rc>
    <rc><c>C </c><c>   2</c></rc>
    <rc><c>C </c><c>   2</c></rc>
    <rc><c>C </c><c>   2</c></rc>
    <rc><c>C </c><c>   2</c></rc>
    <rc><c>C </c><c>   2</c></rc>
    <rc><c>C </c><c>   2</c></rc>
    <rc><c>C </c><c>   2</c></rc>
    <rc><c>C </c><c>   2</c></rc>
    <rc><c>C </c><c>   2</c></rc>
    <rc><c>C </c><c>   2</c></rc>
    <rc><c>C </c><c>   2</c></rc>
    <rc><c>C </c><c>   2</c></rc>
    <rc><c>C </c><c>   2</c></rc>
    <rc><c>C </c><c>   2</c></rc>
    <rc><c>C </c><c>   2</c></rc>
    <rc><c>C </c><c>   2</c></rc>
    <rc><c>C </c><c>   2</c></rc>
    <rc><c>C </c><c>   2</c></rc>
    <rc><c>C </c><c>   2</c></rc>
    <rc><c>C </c><c>   2</c></rc>
    <rc><c>C </c><c>   2</c></rc>
    <rc><c>C </c><c>   2</c></rc>
    <rc><c>C </c><c>   2</c></rc>
    <rc><c>N </c><c>   3</c></rc>
    <rc><c>N </c><c>   3</c></rc>
    <rc><c>N </c><c>   3</c></rc>
    <rc><c>N </c><c>   3</c></rc>
    <rc><c>N </c><c>   3</c></rc>
    <rc><c>N </c><c>   3</c></rc>
    <rc><c>N </c><c>   3</c></rc>
    <rc><c>N </c><c>   3</c></rc>
    <rc><c>N </c><c>   3</c></rc>
    <rc><c>N </c><c>   3</c></rc>
    <rc><c>N </c><c>   3</c></rc>
    <rc><c>N </c><c>   3</c></rc>
    <rc><c>N </c><c>   3</c></rc>
    <rc><c>N </c><c>   3</c></rc>
    <rc><c>N </c><c>   3</c></rc>
    <rc><c>N </c><c>   3</c></rc>
    <rc><c>N </c><c>   3</c></rc>
    <rc><c>N </c><c>   3</c></rc>
    <rc><c>N </c><c>   3</c></rc>
    <rc><c>N </c><c>   3</c></rc>
    <rc><c>N </c><c>   3</c></rc>
    <rc><c>N </c><c>   3</c></rc>
    <rc><c>N </c><c>   3</c></rc>
    <rc><c>N </c><c>   3</c></rc>
    <rc><c>N </c><c>   3</c></rc>
    <rc><c>N </c><c>   3</c></rc>
    <rc><c>N </c><c>   3</c></rc>
    <rc><c>N </c><c>   3</c></rc>
    <rc><c>N </c><c>   3</c></rc>
    <rc><c>N </c><c>   3</c></rc>
    <rc><c>N </c><c>   3</c></rc>
    <rc><c>N </c><c>   3</c></rc>
    <rc><c>N </c><c>   3</c></rc>
    <rc><c>N </c><c>   3</c></rc>
    <rc><c>N </c><c>   3</c></rc>
    <rc><c>N </c><c>   3</c></rc>
    <rc><c>N </c><c>   3</c></rc>
    <rc><c>N </c><c>   3</c></rc>
    <rc><c>N </c><c>   3</c></rc>
    <rc><c>N </c><c>   3</c></rc>
    <rc><c>N </c><c>   3</c></rc>
    <rc><c>N </c><c>   3</c></rc>
    <rc><c>N </c><c>   3</c></rc>
    <rc><c>N </c><c>   3</c></rc>
    <rc><c>N </c><c>   3</c></rc>
    <rc><c>N </c><c>   3</c></rc>
    <rc><c>N </c><c>   3</c></rc>
    <rc><c>I </c><c>   4</c></rc>
    <rc><c>I </c><c>   4</c></rc>
    <rc><c>I </c><c>   4</c></rc>
    <rc><c>I </c><c>   4</c></rc>
    <rc><c>I </c><c>   4</c></rc>
    <rc><c>I </c><c>   4</c></rc>
    <rc><c>I </c><c>   4</c></rc>
    <rc><c>I </c><c>   4</c></rc>
    <rc><c>I </c><c>   4</c></rc>
    <rc><c>I </c><c>   4</c></rc>
    <rc><c>I </c><c>   4</c></rc>
    <rc><c>I </c><c>   4</c></rc>
    <rc><c>I </c><c>   4</c></rc>
    <rc><c>I </c><c>   4</c></rc>
    <rc><c>I </c><c>   4</c></rc>
    <rc><c>I </c><c>   4</c></rc>
    <rc><c>I </c><c>   4</c></rc>
    <rc><c>I </c><c>   4</c></rc>
    <rc><c>I </c><c>   4</c></rc>
    <rc><c>I </c><c>   4</c></rc>
    <rc><c>I </c><c>   4</c></rc>
    <rc><c>I </c><c>   4</c></rc>
    <rc><c>I </c><c>   4</c></rc>
    <rc><c>I </c><c>   4</c></rc>
    <rc><c>I </c><c>   4</c></rc>
    <rc><c>I </c><c>   4</c></rc>
    <rc><c>I </c><c>   4</c></rc>
    <rc><c>I </c><c>   4</c></rc>
    <rc><c>I </c><c>   4</c></rc>
    <rc><c>I </c><c>   4</c></rc>
    <rc><c>I </c><c>   4</c></rc>
    <rc><c>I </c><c>   4</c></rc>
    <rc><c>I </c><c>   4</c></rc>
    <rc><c>I </c><c>   4</c></rc>
    <rc><c>I </c><c>   4</c></rc>
    <rc><c>I </c><c>   4</c></rc>
    <rc><c>I </c><c>   4</c></rc>
    <rc><c>I </c><c>   4</c></rc>
    <rc><c>I </c><c>   4</c></rc>
    <rc><c>I </c><c>   4</c></rc>
    <rc><c>I </c><c>   4</c></rc>
    <rc><c>I </c><c>   4</c></rc>
    <rc><c>I </c><c>   4</c></rc>
    <rc><c>I </c><c>   4</c></rc>
    <rc><c>I </c><c>   4</c></rc>
    <rc><c>I </c><c>   4</c></rc>
    <rc><c>I </c><c>   4</c></rc>
    <rc><c>I </c><c>   4</c></rc>
    <rc><c>I </c><c>   4</c></rc>
    <rc><c>I </c><c>   4</c></rc>
    <rc><c>I </c><c>   4</c></rc>
    <rc><c>I </c><c>   4</c></rc>
    <rc><c>I </c><c>   4</c></rc>
    <rc><c>I </c><c>   4</c></rc>
    <rc><c>I </c><c>   4</c></rc>
    <rc><c>I </c><c>   4</c></rc>
    <rc><c>I </c><c>   4</c></rc>
    <rc><c>I </c><c>   4</c></rc>
    <rc><c>I </c><c>   4</c></rc>
    <rc><c>I </c><c>   4</c></rc>
    <rc><c>I </c><c>   4</c></rc>
    <rc><c>I </c><c>   4</c></rc>
    <rc><c>I </c><c>   4</c></rc>
    <rc><c>I </c><c>   4</c></rc>
    <rc><c>I </c><c>   4</c></rc>
    <rc><c>I </c><c>   4</c></rc>
    <rc><c>I </c><c>   4</c></rc>
    <rc><c>I </c><c>   4</c></rc>
    <rc><c>I </c><c>   4</c></rc>
    <rc><c>I </c><c>   4</c></rc>
    <rc><c>I </c><c>   4</c></rc>
    <rc><c>I </c><c>   4</c></rc>
    <rc><c>Pb</c><c>   5</c></rc>
    <rc><c>Pb</c><c>   5</c></rc>
    <rc><c>Pb</c><c>   5</c></rc>
    <rc><c>Pb</c><c>   5</c></rc>
    <rc><c>Pb</c><c>   5</c></rc>
    <rc><c>Pb</c><c>   5</c></rc>
    <rc><c>Pb</c><c>   5</c></rc>
    <rc><c>Pb</c><c>   5</c></rc>
    <rc><c>Pb</c><c>   5</c></rc>
    <rc><c>Pb</c><c>   5</c></rc>
    <rc><c>Pb</c><c>   5</c></rc>
    <rc><c>Pb</c><c>   5</c></rc>
    <rc><c>Pb</c><c>   5</c></rc>
    <rc><c>Pb</c><c>   5</c></rc>
    <rc><c>Pb</c><c>   5</c></rc>
    <rc><c>Pb</c><c>   5</c></rc>
    <rc><c>Pb</c><c>   5</c></rc>
    <rc><c>Pb</c><c>   5</c></rc>
    <rc><c>Pb</c><c>   5</c></rc>
    <rc><c>Pb</c><c>   5</c></rc>
    <rc><c>Pb</c><c>   5</c></rc>
    <rc><c>Pb</c><c>   5</c></rc>
    <rc><c>Pb</c><c>   5</c></rc>
    <rc><c>Pb</c><c>   5</c></rc>
   </set>
  </array>
  <array name="atomtypes" >
   <dimension dim="1">type</dimension>
   <field type="int">atomspertype</field>
   <field type="string">element</field>
   <field>mass</field>
   <field>valence</field>
   <field type="string">pseudopotential</field>
   <set>
    <rc><c> 143</c><c>H </c><c>      1.00000000</c><c>      1.00000000</c><c>  PAW_PBE H 15Jun2001                   </c></rc>
    <rc><c>  39</c><c>C </c><c>     12.01100000</c><c>      4.00000000</c><c>  PAW_PBE C 08Apr2002                   </c></rc>
    <rc><c>  47</c><c>N </c><c>     14.00100000</c><c>      5.00000000</c><c>  PAW_PBE N 08Apr2002                   </c></rc>
    <rc><c>  72</c><c>I </c><c>    126.90400000</c><c>      7.00000000</c><c>  PAW_PBE I 08Apr2002                   </c></rc>
    <rc><c>  24</c><c>Pb</c><c>    207.20000000</c><c>      4.00000000</c><c>  PAW_PBE Pb 08Apr2002                  </c></rc>
   </set>
  </array>
 </atominfo>
 <structure name="initialpos" >
  <crystal>
   <varray name="basis" >
    <v>      18.06080055       0.00000000       0.00000000 </v>
    <v>      -0.00491865      18.06279945       0.00000000 </v>
    <v>       0.00000000       0.00000000      62.48749924 </v>
   </varray>
   <i name="volume">  20385.21054034 </i>
   <varray name="rec_basis" >
    <v>       0.05536853       0.00001508      -0.00000000 </v>
    <v>       0.00000000       0.05536240       0.00000000 </v>
    <v>       0.00000000      -0.00000000       0.01600320 </v>
   </varray>
  </crystal>
  <varray name="positions" >
   <v>       0.44772834       0.30575744       0.58044392 </v>
   <v>       0.44703063       0.83983991       0.57680775 </v>
   <v>       0.93736673       0.26242694       0.58452109 </v>
   <v>       0.96153106       0.80627615       0.58643919 </v>
   <v>       0.29904010       0.04827191       0.58206619 </v>
   <v>       0.30630132       0.55818001       0.58217278 </v>
   <v>       0.77816497       0.07021664       0.58185069 </v>
   <v>       0.10723395       0.20969864       0.55544355 </v>
   <v>       0.08927991       0.68091434       0.55905634 </v>
   <v>       0.57506199       0.17879782       0.55772892 </v>
   <v>       0.51921233       0.65659704       0.56699127 </v>
   <v>       0.35873324       0.03011372       0.56094740 </v>
   <v>       0.29508309       0.60841929       0.55912843 </v>
   <v>       0.84732786       0.05940867       0.56311330 </v>
   <v>       0.06938908       0.21190028       0.58083657 </v>
   <v>       0.03962904       0.69173576       0.58267965 </v>
   <v>       0.56211926       0.23891296       0.57854144 </v>
   <v>       0.49259230       0.71564651       0.58739178 </v>
   <v>       0.23837467       0.43451197       0.58273692 </v>
   <v>       0.17143029       0.99015160       0.57936765 </v>
   <v>       0.67694211       0.97640296       0.58098596 </v>
   <v>       0.38058624       0.28640415       0.56142192 </v>
   <v>       0.45504929       0.86378156       0.54988666 </v>
   <v>       0.89445532       0.27763672       0.55994128 </v>
   <v>       0.96351647       0.86715818       0.56435262 </v>
   <v>       0.19033369       0.41199312       0.55986753 </v>
   <v>       0.15327593       0.94479478       0.55580001 </v>
   <v>       0.68581566       0.90646826       0.56146350 </v>
   <v>       0.45611285       0.20507962       0.54372167 </v>
   <v>       0.50207098       0.74985753       0.54081441 </v>
   <v>       0.99969346       0.24909829       0.53945446 </v>
   <v>       0.04530934       0.79065246       0.54491258 </v>
   <v>       0.22006106       0.51945611       0.54262123 </v>
   <v>       0.27011818       0.96405458       0.54187889 </v>
   <v>       0.79395282       0.95607070       0.54784273 </v>
   <v>       0.45512994       0.30815762       0.67633694 </v>
   <v>       0.43544605       0.81734028       0.67199171 </v>
   <v>       0.96207273       0.28312280       0.68000252 </v>
   <v>       0.93591809       0.79890791       0.67450216 </v>
   <v>       0.30645183       0.05459850       0.67339238 </v>
   <v>       0.29632582       0.55279776       0.67624329 </v>
   <v>       0.80384515       0.05109004       0.67616582 </v>
   <v>       0.83776161       0.53118364       0.67040557 </v>
   <v>       0.08466626       0.17325560       0.64569818 </v>
   <v>       0.09481291       0.68834213       0.65481859 </v>
   <v>       0.56989674       0.16247318       0.65191042 </v>
   <v>       0.57051616       0.67389494       0.65896066 </v>
   <v>       0.18376657       0.41078484       0.64926176 </v>
   <v>       0.17143677       0.92099797       0.65308619 </v>
   <v>       0.65765950       0.45444751       0.65672345 </v>
   <v>       0.66672301       0.93072611       0.65048142 </v>
   <v>       0.06406109       0.18770198       0.67267428 </v>
   <v>       0.04349712       0.69883800       0.67802593 </v>
   <v>       0.55481815       0.20373266       0.67647820 </v>
   <v>       0.52940405       0.71633072       0.68121432 </v>
   <v>       0.20865593       0.43943797       0.67465325 </v>
   <v>       0.20420889       0.95533067       0.67718678 </v>
   <v>       0.72377191       0.45093298       0.67655121 </v>
   <v>       0.69407045       0.95966132       0.67574313 </v>
   <v>       0.41442229       0.32446559       0.65174266 </v>
   <v>       0.42446386       0.83572465       0.64481385 </v>
   <v>       0.92300152       0.32299076       0.65684854 </v>
   <v>       0.92941174       0.83870434       0.64953940 </v>
   <v>       0.33151130       0.07723882       0.64737112 </v>
   <v>       0.32143821       0.58787497       0.65149859 </v>
   <v>       0.83987245       0.07328011       0.65125715 </v>
   <v>       0.84159515       0.57501128       0.64567223 </v>
   <v>       0.99759228       0.25688371       0.63396371 </v>
   <v>       0.02959582       0.77726265       0.63538246 </v>
   <v>       0.48313233       0.23538351       0.63435869 </v>
   <v>       0.50880681       0.74774039       0.63452761 </v>
   <v>       0.24988164       0.99544203       0.63239211 </v>
   <v>       0.25208852       0.50189839       0.63251024 </v>
   <v>       0.75867409       0.00086247       0.63308164 </v>
   <v>       0.73050593       0.53348055       0.63531390 </v>
   <v>       0.44874502       0.30128397       0.76888902 </v>
   <v>       0.44874501       0.80128391       0.76888902 </v>
   <v>       0.94874497       0.30128397       0.76888902 </v>
   <v>       0.94874501       0.80128391       0.76888902 </v>
   <v>       0.30127600       0.05129450       0.76887296 </v>
   <v>       0.30127601       0.55129450       0.76887296 </v>
   <v>       0.80127594       0.05129450       0.76887296 </v>
   <v>       0.80127598       0.55129450       0.76887296 </v>
   <v>       0.07877100       0.17118050       0.74344197 </v>
   <v>       0.07877101       0.67118045       0.74344197 </v>
   <v>       0.57877100       0.17118050       0.74344197 </v>
   <v>       0.57877099       0.67118045       0.74344197 </v>
   <v>       0.17119950       0.42117448       0.74342103 </v>
   <v>       0.17119950       0.92117451       0.74342103 </v>
   <v>       0.67119951       0.42117448       0.74342103 </v>
   <v>       0.67119950       0.92117451       0.74342103 </v>
   <v>       0.05125600       0.19871499       0.76888902 </v>
   <v>       0.05125600       0.69871493       0.76888902 </v>
   <v>       0.55125603       0.19871499       0.76888902 </v>
   <v>       0.55125602       0.69871493       0.76888902 </v>
   <v>       0.19872349       0.44870397       0.76887205 </v>
   <v>       0.19872349       0.94870397       0.76887205 </v>
   <v>       0.69872352       0.44870397       0.76887205 </v>
   <v>       0.69872351       0.94870397       0.76887205 </v>
   <v>       0.42123152       0.32881747       0.74344197 </v>
   <v>       0.42123151       0.82881744       0.74344197 </v>
   <v>       0.92123147       0.32881747       0.74344197 </v>
   <v>       0.92123151       0.82881744       0.74344197 </v>
   <v>       0.32880050       0.07882500       0.74342103 </v>
   <v>       0.32880049       0.57882496       0.74342103 </v>
   <v>       0.82880048       0.07882500       0.74342103 </v>
   <v>       0.82880052       0.57882496       0.74342103 </v>
   <v>       0.00000350       0.25000148       0.72582199 </v>
   <v>       0.00000350       0.75000145       0.72582199 </v>
   <v>       0.50000351       0.25000148       0.72582199 </v>
   <v>       0.50000350       0.75000145       0.72582199 </v>
   <v>       0.25000050       0.00000000       0.72580398 </v>
   <v>       0.25000052       0.50000000       0.72580398 </v>
   <v>       0.75000050       0.00000000       0.72580398 </v>
   <v>       0.75000049       0.50000000       0.72580398 </v>
   <v>       0.71597339       0.44409156       0.54366037 </v>
   <v>       0.73657541       0.50313228       0.52203721 </v>
   <v>       0.64859438       0.54164540       0.56082329 </v>
   <v>       0.68990557       0.63243385       0.56218331 </v>
   <v>       0.83594800       0.50452497       0.57545305 </v>
   <v>       0.77095495       0.57039423       0.58576627 </v>
   <v>       0.86420522       0.55797726       0.53778603 </v>
   <v>       0.79878659       0.61809304       0.52866293 </v>
   <v>       0.86685025       0.47923905       0.52250130 </v>
   <v>       0.86581128       0.44043184       0.54851370 </v>
   <v>       0.88314349       0.34535632       0.52273254 </v>
   <v>       0.79654216       0.32993137       0.53494318 </v>
   <v>       0.62375403       0.54598284       0.52456549 </v>
   <v>       0.68923250       0.61836347       0.51885103 </v>
   <v>       0.60633543       0.63720634       0.53273106 </v>
   <v>       0.74730746       0.44978104       0.59973977 </v>
   <v>       0.74080787       0.40540610       0.57468300 </v>
   <v>       0.66940715       0.46966677       0.58283642 </v>
   <v>       0.83244194       0.68074824       0.56948579 </v>
   <v>       0.87788444       0.69850041       0.54489432 </v>
   <v>       0.91453884       0.63249320       0.56252059 </v>
   <v>       0.82802882       0.39706420       0.49075969 </v>
   <v>       0.79599534       0.30826733       0.49585104 </v>
   <v>       0.66842786       0.31476887       0.52143791 </v>
   <v>       0.74313873       0.47850959       0.47615154 </v>
   <v>       0.54196154       0.36717518       0.51933196 </v>
   <v>       0.61659544       0.53003851       0.47442283 </v>
   <v>       0.51494885       0.47389803       0.49680887 </v>
   <v>       0.00125476       0.24446757       0.55661383 </v>
   <v>       0.02629553       0.77398175       0.56052581 </v>
   <v>       0.47693551       0.23168429       0.55821962 </v>
   <v>       0.49049878       0.76001052       0.55727552 </v>
   <v>       0.24206663       0.51124512       0.55847498 </v>
   <v>       0.25562030       0.98631224       0.55734982 </v>
   <v>       0.76742896       0.98318213       0.56116858 </v>
   <v>       0.00398111       0.24804659       0.65138706 </v>
   <v>       0.01288035       0.76350431       0.65199149 </v>
   <v>       0.49229316       0.24330166       0.65167386 </v>
   <v>       0.49890159       0.75427590       0.65183741 </v>
   <v>       0.25275869       0.49972814       0.65002876 </v>
   <v>       0.25035574       0.99817229       0.65000507 </v>
   <v>       0.74994299       0.51494238       0.65068593 </v>
   <v>       0.75268207       0.00150913       0.65061640 </v>
   <v>       0.49998898       0.24999498       0.74327702 </v>
   <v>       0.49998903       0.74999496       0.74327702 </v>
   <v>       0.99998898       0.24999498       0.74327702 </v>
   <v>       0.99998903       0.74999496       0.74327702 </v>
   <v>       0.25000050       0.00000100       0.74325596 </v>
   <v>       0.25000052       0.50000100       0.74325596 </v>
   <v>       0.75000050       0.00000100       0.74325596 </v>
   <v>       0.75000049       0.50000100       0.74325596 </v>
   <v>       0.71563861       0.39384433       0.49881318 </v>
   <v>       0.65859052       0.36230095       0.51078093 </v>
   <v>       0.69906372       0.45311912       0.48563595 </v>
   <v>       0.58610108       0.39084761       0.50960480 </v>
   <v>       0.62793107       0.48339713       0.48445484 </v>
   <v>       0.56918097       0.45190156       0.49687703 </v>
   <v>       0.75761261       0.48316244       0.53768176 </v>
   <v>       0.68432357       0.58153137       0.55263684 </v>
   <v>       0.77825357       0.52236094       0.57511509 </v>
   <v>       0.82177170       0.59614530       0.54324055 </v>
   <v>       0.83405901       0.44426828       0.53340387 </v>
   <v>       0.82607244       0.36658052       0.52359472 </v>
   <v>       0.65038143       0.59597962       0.53077785 </v>
   <v>       0.72986188       0.45879551       0.58303110 </v>
   <v>       0.86197639       0.65458497       0.55622099 </v>
   <v>       0.79265530       0.36524094       0.50116549 </v>
   <v>       0.06327280       0.22025461       0.56487629 </v>
   <v>       0.05288621       0.71147217       0.56823731 </v>
   <v>       0.54105300       0.21301551       0.56563675 </v>
   <v>       0.50537210       0.70857484       0.57157233 </v>
   <v>       0.43331146       0.28072124       0.56711520 </v>
   <v>       0.46214534       0.82593410       0.56192880 </v>
   <v>       0.94105785       0.26299890       0.56797127 </v>
   <v>       0.97808943       0.81608153       0.57074550 </v>
   <v>       0.22261171       0.44773914       0.56733497 </v>
   <v>       0.18979265       0.97271353       0.56437430 </v>
   <v>       0.70401003       0.95419783       0.56796382 </v>
   <v>       0.30775410       0.02466064       0.56723571 </v>
   <v>       0.28285082       0.56214237       0.56697088 </v>
   <v>       0.80091682       0.03945042       0.56936333 </v>
   <v>       0.05314799       0.20128869       0.65717374 </v>
   <v>       0.05066047       0.71513316       0.66220575 </v>
   <v>       0.54094733       0.20253630       0.66079489 </v>
   <v>       0.53520308       0.71181726       0.66499183 </v>
   <v>       0.21326858       0.44670478       0.65889467 </v>
   <v>       0.20693445       0.95653911       0.66117362 </v>
   <v>       0.70895577       0.46994977       0.66182250 </v>
   <v>       0.70242184       0.96207854       0.65994901 </v>
   <v>       0.45142568       0.29580042       0.66095880 </v>
   <v>       0.44939170       0.80616379       0.65693413 </v>
   <v>       0.95932032       0.28783985       0.66393822 </v>
   <v>       0.95637837       0.80126248       0.65897378 </v>
   <v>       0.29967184       0.04668656       0.65782396 </v>
   <v>       0.29181567       0.54934948       0.66031933 </v>
   <v>       0.80232031       0.04514715       0.66040632 </v>
   <v>       0.81565707       0.54194825       0.65621847 </v>
   <v>       0.04586250       0.20411950       0.75272599 </v>
   <v>       0.04586250       0.70411946       0.75272599 </v>
   <v>       0.54586251       0.20411950       0.75272599 </v>
   <v>       0.54586250       0.70411946       0.75272599 </v>
   <v>       0.20411900       0.45410100       0.75270499 </v>
   <v>       0.20411899       0.95410095       0.75270499 </v>
   <v>       0.70411898       0.45410100       0.75270499 </v>
   <v>       0.70411896       0.95410095       0.75270499 </v>
   <v>       0.45414002       0.29588849       0.75272697 </v>
   <v>       0.45414001       0.79588852       0.75272697 </v>
   <v>       0.95414002       0.29588849       0.75272697 </v>
[...]
   <v>       0.57506199       0.17879782       0.55772892 </v>
   <v>       0.51921233       0.65659704       0.56699127 </v>
   <v>       0.35873324       0.03011372       0.56094740 </v>
   <v>       0.29508309       0.60841929       0.55912843 </v>
   <v>       0.84732786       0.05940867       0.56311330 </v>
   <v>       0.06938908       0.21190028       0.58083657 </v>
   <v>       0.03962904       0.69173576       0.58267965 </v>
   <v>       0.56211926       0.23891296       0.57854144 </v>
   <v>       0.49259230       0.71564651       0.58739178 </v>
   <v>       0.23837467       0.43451197       0.58273692 </v>
   <v>       0.17143029       0.99015160       0.57936765 </v>
   <v>       0.67694211       0.97640296       0.58098596 </v>
   <v>       0.38058624       0.28640415       0.56142192 </v>
   <v>       0.45504929       0.86378156       0.54988666 </v>
   <v>       0.89445532       0.27763672       0.55994128 </v>
   <v>       0.96351647       0.86715818       0.56435262 </v>
   <v>       0.19033369       0.41199312       0.55986753 </v>
   <v>       0.15327593       0.94479478       0.55580001 </v>
   <v>       0.68581566       0.90646826       0.56146350 </v>
   <v>       0.45611285       0.20507962       0.54372167 </v>
   <v>       0.50207098       0.74985753       0.54081441 </v>
   <v>       0.99969346       0.24909829       0.53945446 </v>
   <v>       0.04530934       0.79065246       0.54491258 </v>
   <v>       0.22006106       0.51945611       0.54262123 </v>
   <v>       0.27011818       0.96405458       0.54187889 </v>
   <v>       0.79395282       0.95607070       0.54784273 </v>
   <v>       0.45512994       0.30815762       0.67633694 </v>
   <v>       0.43544605       0.81734028       0.67199171 </v>
   <v>       0.96207273       0.28312280       0.68000252 </v>
   <v>       0.93591809       0.79890791       0.67450216 </v>
   <v>       0.30645183       0.05459850       0.67339238 </v>
   <v>       0.29632582       0.55279776       0.67624329 </v>
   <v>       0.80384515       0.05109004       0.67616582 </v>
   <v>       0.83776161       0.53118364       0.67040557 </v>
   <v>       0.08466626       0.17325560       0.64569818 </v>
   <v>       0.09481291       0.68834213       0.65481859 </v>
   <v>       0.56989674       0.16247318       0.65191042 </v>
   <v>       0.57051616       0.67389494       0.65896066 </v>
   <v>       0.18376657       0.41078484       0.64926176 </v>
   <v>       0.17143677       0.92099797       0.65308619 </v>
   <v>       0.65765950       0.45444751       0.65672345 </v>
   <v>       0.66672301       0.93072611       0.65048142 </v>
   <v>       0.06406109       0.18770198       0.67267428 </v>
   <v>       0.04349712       0.69883800       0.67802593 </v>
   <v>       0.55481815       0.20373266       0.67647820 </v>
   <v>       0.52940405       0.71633072       0.68121432 </v>
   <v>       0.20865593       0.43943797       0.67465325 </v>
   <v>       0.20420889       0.95533067       0.67718678 </v>
   <v>       0.72377191       0.45093298       0.67655121 </v>
   <v>       0.69407045       0.95966132       0.67574313 </v>
   <v>       0.41442229       0.32446559       0.65174266 </v>
   <v>       0.42446386       0.83572465       0.64481385 </v>
   <v>       0.92300152       0.32299076       0.65684854 </v>
   <v>       0.92941174       0.83870434       0.64953940 </v>
   <v>       0.33151130       0.07723882       0.64737112 </v>
   <v>       0.32143821       0.58787497       0.65149859 </v>
   <v>       0.83987245       0.07328011       0.65125715 </v>
   <v>       0.84159515       0.57501128       0.64567223 </v>
   <v>       0.99759228       0.25688371       0.63396371 </v>
   <v>       0.02959582       0.77726265       0.63538246 </v>
   <v>       0.48313233       0.23538351       0.63435869 </v>
   <v>       0.50880681       0.74774039       0.63452761 </v>
   <v>       0.24988164       0.99544203       0.63239211 </v>
   <v>       0.25208852       0.50189839       0.63251024 </v>
   <v>       0.75867409       0.00086247       0.63308164 </v>
   <v>       0.73050593       0.53348055       0.63531390 </v>
   <v>       0.44874502       0.30128397       0.76888902 </v>
   <v>       0.44874501       0.80128391       0.76888902 </v>
   <v>       0.94874497       0.30128397       0.76888902 </v>
   <v>       0.94874501       0.80128391       0.76888902 </v>
   <v>       0.30127600       0.05129450       0.76887296 </v>
   <v>       0.30127601       0.55129450       0.76887296 </v>
   <v>       0.80127594       0.05129450       0.76887296 </v>
   <v>       0.80127598       0.55129450       0.76887296 </v>
   <v>       0.07877100       0.17118050       0.74344197 </v>
   <v>       0.07877101       0.67118045       0.74344197 </v>
   <v>       0.57877100       0.17118050       0.74344197 </v>
   <v>       0.57877099       0.67118045       0.74344197 </v>
   <v>       0.17119950       0.42117448       0.74342103 </v>
   <v>       0.17119950       0.92117451       0.74342103 </v>
   <v>       0.67119951       0.42117448       0.74342103 </v>
   <v>       0.67119950       0.92117451       0.74342103 </v>
   <v>       0.05125600       0.19871499       0.76888902 </v>
   <v>       0.05125600       0.69871493       0.76888902 </v>
   <v>       0.55125603       0.19871499       0.76888902 </v>
   <v>       0.55125602       0.69871493       0.76888902 </v>
   <v>       0.19872349       0.44870397       0.76887205 </v>
   <v>       0.19872349       0.94870397       0.76887205 </v>
   <v>       0.69872352       0.44870397       0.76887205 </v>
   <v>       0.69872351       0.94870397       0.76887205 </v>
   <v>       0.42123152       0.32881747       0.74344197 </v>
   <v>       0.42123151       0.82881744       0.74344197 </v>
   <v>       0.92123147       0.32881747       0.74344197 </v>
   <v>       0.92123151       0.82881744       0.74344197 </v>
   <v>       0.32880050       0.07882500       0.74342103 </v>
   <v>       0.32880049       0.57882496       0.74342103 </v>
   <v>       0.82880048       0.07882500       0.74342103 </v>
   <v>       0.82880052       0.57882496       0.74342103 </v>
   <v>       0.00000350       0.25000148       0.72582199 </v>
   <v>       0.00000350       0.75000145       0.72582199 </v>
   <v>       0.50000351       0.25000148       0.72582199 </v>
   <v>       0.50000350       0.75000145       0.72582199 </v>
   <v>       0.25000050       0.00000000       0.72580398 </v>
   <v>       0.25000052       0.50000000       0.72580398 </v>
   <v>       0.75000050       0.00000000       0.72580398 </v>
   <v>       0.75000049       0.50000000       0.72580398 </v>
   <v>       0.71597339       0.44409156       0.54366037 </v>
   <v>       0.73657541       0.50313228       0.52203721 </v>
   <v>       0.64859438       0.54164540       0.56082329 </v>
   <v>       0.68990557       0.63243385       0.56218331 </v>
   <v>       0.83594800       0.50452497       0.57545305 </v>
   <v>       0.77095495       0.57039423       0.58576627 </v>
   <v>       0.86420522       0.55797726       0.53778603 </v>
   <v>       0.79878659       0.61809304       0.52866293 </v>
   <v>       0.86685025       0.47923905       0.52250130 </v>
   <v>       0.86581128       0.44043184       0.54851370 </v>
   <v>       0.88314349       0.34535632       0.52273254 </v>
   <v>       0.79654216       0.32993137       0.53494318 </v>
   <v>       0.62375403       0.54598284       0.52456549 </v>
   <v>       0.68923250       0.61836347       0.51885103 </v>
   <v>       0.60633543       0.63720634       0.53273106 </v>
   <v>       0.74730746       0.44978104       0.59973977 </v>
   <v>       0.74080787       0.40540610       0.57468300 </v>
   <v>       0.66940715       0.46966677       0.58283642 </v>
   <v>       0.83244194       0.68074824       0.56948579 </v>
   <v>       0.87788444       0.69850041       0.54489432 </v>
   <v>       0.91453884       0.63249320       0.56252059 </v>
   <v>       0.82802882       0.39706420       0.49075969 </v>
   <v>       0.79599534       0.30826733       0.49585104 </v>
   <v>       0.66842786       0.31476887       0.52143791 </v>
   <v>       0.74313873       0.47850959       0.47615154 </v>
   <v>       0.54196154       0.36717518       0.51933196 </v>
   <v>       0.61659544       0.53003851       0.47442283 </v>
   <v>       0.51494885       0.47389803       0.49680887 </v>
   <v>       0.00125476       0.24446757       0.55661383 </v>
   <v>       0.02629553       0.77398175       0.56052581 </v>
   <v>       0.47693551       0.23168429       0.55821962 </v>
   <v>       0.49049878       0.76001052       0.55727552 </v>
   <v>       0.24206663       0.51124512       0.55847498 </v>
   <v>       0.25562030       0.98631224       0.55734982 </v>
   <v>       0.76742896       0.98318213       0.56116858 </v>
   <v>       0.00398111       0.24804659       0.65138706 </v>
   <v>       0.01288035       0.76350431       0.65199149 </v>
   <v>       0.49229316       0.24330166       0.65167386 </v>
   <v>       0.49890159       0.75427590       0.65183741 </v>
   <v>       0.25275869       0.49972814       0.65002876 </v>
   <v>       0.25035574       0.99817229       0.65000507 </v>
   <v>       0.74994299       0.51494238       0.65068593 </v>
   <v>       0.75268207       0.00150913       0.65061640 </v>
   <v>       0.49998898       0.24999498       0.74327702 </v>
   <v>       0.49998903       0.74999496       0.74327702 </v>
   <v>       0.99998898       0.24999498       0.74327702 </v>
   <v>       0.99998903       0.74999496       0.74327702 </v>
   <v>       0.25000050       0.00000100       0.74325596 </v>
   <v>       0.25000052       0.50000100       0.74325596 </v>
   <v>       0.75000050       0.00000100       0.74325596 </v>
   <v>       0.75000049       0.50000100       0.74325596 </v>
   <v>       0.71563861       0.39384433       0.49881318 </v>
   <v>       0.65859052       0.36230095       0.51078093 </v>
   <v>       0.69906372       0.45311912       0.48563595 </v>
   <v>       0.58610108       0.39084761       0.50960480 </v>
   <v>       0.62793107       0.48339713       0.48445484 </v>
   <v>       0.56918097       0.45190156       0.49687703 </v>
   <v>       0.75761261       0.48316244       0.53768176 </v>
   <v>       0.68432357       0.58153137       0.55263684 </v>
   <v>       0.77825357       0.52236094       0.57511509 </v>
   <v>       0.82177170       0.59614530       0.54324055 </v>
   <v>       0.83405901       0.44426828       0.53340387 </v>
   <v>       0.82607244       0.36658052       0.52359472 </v>
   <v>       0.65038143       0.59597962       0.53077785 </v>
   <v>       0.72986188       0.45879551       0.58303110 </v>
   <v>       0.86197639       0.65458497       0.55622099 </v>
   <v>       0.79265530       0.36524094       0.50116549 </v>
   <v>       0.06327280       0.22025461       0.56487629 </v>
   <v>       0.05288621       0.71147217       0.56823731 </v>
   <v>       0.54105300       0.21301551       0.56563675 </v>
   <v>       0.50537210       0.70857484       0.57157233 </v>
   <v>       0.43331146       0.28072124       0.56711520 </v>
   <v>       0.46214534       0.82593410       0.56192880 </v>
   <v>       0.94105785       0.26299890       0.56797127 </v>
   <v>       0.97808943       0.81608153       0.57074550 </v>
   <v>       0.22261171       0.44773914       0.56733497 </v>
   <v>       0.18979265       0.97271353       0.56437430 </v>
   <v>       0.70401003       0.95419783       0.56796382 </v>
   <v>       0.30775410       0.02466064       0.56723571 </v>
   <v>       0.28285082       0.56214237       0.56697088 </v>
   <v>       0.80091682       0.03945042       0.56936333 </v>
   <v>       0.05314799       0.20128869       0.65717374 </v>
   <v>       0.05066047       0.71513316       0.66220575 </v>
   <v>       0.54094733       0.20253630       0.66079489 </v>
   <v>       0.53520308       0.71181726       0.66499183 </v>
   <v>       0.21326858       0.44670478       0.65889467 </v>
   <v>       0.20693445       0.95653911       0.66117362 </v>
   <v>       0.70895577       0.46994977       0.66182250 </v>
   <v>       0.70242184       0.96207854       0.65994901 </v>
   <v>       0.45142568       0.29580042       0.66095880 </v>
   <v>       0.44939170       0.80616379       0.65693413 </v>
   <v>       0.95932032       0.28783985       0.66393822 </v>
   <v>       0.95637837       0.80126248       0.65897378 </v>
   <v>       0.29967184       0.04668656       0.65782396 </v>
   <v>       0.29181567       0.54934948       0.66031933 </v>
   <v>       0.80232031       0.04514715       0.66040632 </v>
   <v>       0.81565707       0.54194825       0.65621847 </v>
   <v>       0.04586250       0.20411950       0.75272599 </v>
   <v>       0.04586250       0.70411946       0.75272599 </v>
   <v>       0.54586251       0.20411950       0.75272599 </v>
   <v>       0.54586250       0.70411946       0.75272599 </v>
   <v>       0.20411900       0.45410100       0.75270499 </v>
   <v>       0.20411899       0.95410095       0.75270499 </v>
   <v>       0.70411898       0.45410100       0.75270499 </v>
   <v>       0.70411896       0.95410095       0.75270499 </v>
   <v>       0.45414002       0.29588849       0.75272697 </v>
   <v>       0.45414001       0.79588852       0.75272697 </v>
   <v>       0.95414002       0.29588849       0.75272697 </v>
   <v>       0.95414006       0.79588852       0.75272697 </v>
   <v>       0.29588249       0.04590050       0.75270499 </v>
   <v>       0.29588248       0.54590053       0.75270499 </v>
   <v>       0.79588244       0.04590050       0.75270499 </v>
   <v>       0.79588248       0.54590053       0.75270499 </v>
   <v>       0.76197663       0.54646509       0.55232141 </v>
   <v>       0.49047680       0.01676091       0.55116835 </v>
   <v>       0.48226329       0.51808981       0.55618583 </v>
   <v>       0.98848506       0.00561014       0.55260369 </v>
   <v>       0.03203085       0.50429552       0.55484077 </v>
   <v>       0.24897014       0.24680613       0.55124313 </v>
   <v>       0.25609356       0.75209736       0.55307742 </v>
   <v>       0.74045404       0.21638638       0.55903637 </v>
   <v>       0.71557799       0.78512565       0.54628157 </v>
   <v>       0.00214910       0.00305110       0.65446635 </v>
   <v>       0.01324992       0.49359511       0.65599308 </v>
   <v>       0.49687972       0.99936304       0.65423480 </v>
   <v>       0.50165071       0.48903835       0.65557357 </v>
   <v>       0.25452642       0.24563627       0.65399641 </v>
   <v>       0.25291673       0.75374011       0.65463972 </v>
   <v>       0.74055576       0.25425043       0.65653848 </v>
   <v>       0.75570262       0.75468149       0.65367957 </v>
   <v>       0.14420501       0.10831210       0.60766878 </v>
   <v>       0.14718240       0.61352034       0.61065803 </v>
   <v>       0.64523643       0.10511993       0.61068007 </v>
   <v>       0.61895077       0.63250006       0.61551166 </v>
   <v>       0.35374509       0.39255158       0.60885402 </v>
   <v>       0.36770812       0.88797626       0.60829464 </v>
   <v>       0.88165100       0.37151581       0.61382956 </v>
   <v>       0.86111909       0.89237167       0.61013607 </v>
   <v>       0.11217074       0.35489660       0.60852973 </v>
   <v>       0.11786640       0.87153268       0.60868241 </v>
   <v>       0.58799527       0.34204348       0.60800509 </v>
   <v>       0.60933676       0.86471792       0.60965111 </v>
   <v>       0.38787492       0.13894325       0.60943940 </v>
   <v>       0.38295832       0.63352608       0.61333343 </v>
   <v>       0.88355254       0.13995290       0.61354832 </v>
   <v>       0.91557244       0.65117704       0.61675513 </v>
   <v>       0.00000000       0.00000000       0.75492797 </v>
   <v>       0.00000000       0.50000000       0.75492797 </v>
   <v>       0.50000000       0.00000000       0.75492797 </v>
   <v>       0.49999999       0.50000000       0.75492797 </v>
   <v>       0.25000050       0.25000000       0.75493902 </v>
   <v>       0.25000051       0.74999997       0.75493902 </v>
   <v>       0.75000047       0.25000000       0.75493902 </v>
   <v>       0.75000046       0.74999997       0.75493902 </v>
   <v>       0.13579050       0.11421000       0.70478299 </v>
   <v>       0.13579050       0.61420998       0.70478299 </v>
   <v>       0.63579045       0.11421000       0.70478299 </v>
   <v>       0.63579049       0.61420998       0.70478299 </v>
   <v>       0.36420952       0.38578999       0.70478299 </v>
   <v>       0.36420950       0.88578996       0.70478299 </v>
   <v>       0.86420954       0.38578999       0.70478299 </v>
   <v>       0.86420953       0.88578996       0.70478299 </v>
   <v>       0.11421799       0.36421899       0.70478098 </v>
   <v>       0.11421799       0.86421899       0.70478098 </v>
   <v>       0.61421800       0.36421899       0.70478098 </v>
   <v>       0.61421799       0.86421899       0.70478098 </v>
   <v>       0.38578201       0.13578149       0.70478202 </v>
   <v>       0.38578200       0.63578149       0.70478202 </v>
   <v>       0.88578199       0.13578149       0.70478202 </v>
   <v>       0.88578203       0.63578149       0.70478202 </v>
   <v>       0.13466700       0.11533200       0.80125603 </v>
   <v>       0.13466699       0.61533199       0.80125603 </v>
   <v>       0.63466699       0.11533200       0.80125603 </v>
   <v>       0.63466698       0.61533199       0.80125603 </v>
   <v>       0.36533300       0.38466799       0.80125603 </v>
   <v>       0.36533299       0.88466796       0.80125603 </v>
   <v>       0.86533295       0.38466799       0.80125603 </v>
   <v>       0.86533294       0.88466796       0.80125603 </v>
   <v>       0.11532850       0.36533700       0.80126500 </v>
   <v>       0.11532850       0.86533698       0.80126500 </v>
   <v>       0.61532850       0.36533700       0.80126500 </v>
   <v>       0.61532849       0.86533698       0.80126500 </v>
   <v>       0.38467151       0.13466300       0.80126500 </v>
   <v>       0.38467150       0.63466297       0.80126500 </v>
   <v>       0.88467149       0.13466300       0.80126500 </v>
   <v>       0.88467153       0.63466297       0.80126500 </v>
   <v>       0.99381623       0.00502335       0.60437662 </v>
   <v>       0.00702757       0.50323280       0.60470829 </v>
   <v>       0.50223805       0.00763896       0.60325420 </v>
   <v>       0.49857272       0.50216439       0.60482745 </v>
   <v>       0.25103171       0.24909777       0.60358709 </v>
   <v>       0.25081239       0.75288537       0.60286344 </v>
   <v>       0.74595006       0.25385112       0.60702095 </v>
   <v>       0.74228605       0.75902669       0.60330005 </v>
   <v>       0.00000050       0.00000050       0.70482896 </v>
   <v>       0.00000050       0.50000048       0.70482896 </v>
   <v>       0.50000048       0.00000050       0.70482896 </v>
   <v>       0.50000046       0.50000048       0.70482896 </v>
   <v>       0.24999999       0.24999947       0.70482499 </v>
   <v>       0.25000001       0.74999950       0.70482499 </v>
   <v>       0.74999999       0.24999947       0.70482499 </v>
   <v>       0.74999998       0.74999950       0.70482499 </v>
   <v>       0.00000000       0.00000000       0.80731797 </v>
   <v>       0.00000000       0.50000000       0.80731797 </v>
   <v>       0.50000000       0.00000000       0.80731797 </v>
   <v>       0.49999999       0.50000000       0.80731797 </v>
   <v>       0.24999999       0.25000000       0.80731797 </v>
   <v>       0.25000001       0.74999997       0.80731797 </v>
   <v>       0.74999999       0.25000000       0.80731797 </v>
   <v>       0.74999998       0.74999997       0.80731797 </v>
  </varray>
 </structure>
</modeling>
