 vasp.6.2.1 16May21 (build Nov 15 2021 14:57:28) complex                         
 executed on             LinuxPGI date 2023.07.30  08:43:17
 running on    4 total cores
 distrk:  each k-point on    4 cores,    1 groups
 distr:  one band on NCORE=   1 cores,    4 groups


--------------------------------------------------------------------------------------------------------


 INCAR:
   SYSTEM = PSC
   ISTART = 1
   ICHARG = 1
   PREC = Normal
   ENCUT = 500
   GGA_COMPAT = F
   NELM = 600
   ISYM = 0
   LREAL = Auto
   ISMEAR = 0
   SIGMA = 0.05
   AMIN = 0.01
   BMIX = 0.01
   LVTOT = T
   LWAVE = F
   LDIPOL = T
   IDIPOL = 3
   LVDW = T
   IVDW = 12

 POTCAR:    PAW_PBE H 15Jun2001                   
 POTCAR:    PAW_PBE C 08Apr2002                   
 POTCAR:    PAW_PBE N 08Apr2002                   
 POTCAR:    PAW_PBE I 08Apr2002                   
 POTCAR:    PAW_PBE Pb 08Apr2002                  
 WARNING: For LVTOT=.TRUE., VASP.5.x writes the TOTAL local potential to the
     file LOCPOT. If you want only the Hartree contributions, use LVHAR=.TRUE.
     instead. 

 POTCAR:    PAW_PBE H 15Jun2001                   
   SHA256 =  030f79b5d3ab3cf0e668861823c8fb652ff669f3e15e46930bd03bfd63a607b6 H/POTCAR              
   COPYR  = (c) Copyright 15Jun2001 Georg Kresse                                                    
   COPYR  = This file is part of the software VASP. Any use, copying, and all other rights are regul
   COPYR  = If you do not have a valid VASP license, you may not use, copy or distribute this file. 
   VRHFIN =H: ultrasoft test                                                                        
   LEXCH  = PE                                                                                      
   EATOM  =    12.4884 eV,    0.9179 Ry                                                             
                                                                                                    
   TITEL  = PAW_PBE H 15Jun2001                                                                     
   LULTRA =        F    use ultrasoft PP ?                                                          
   IUNSCR =        0    unscreen: 0-lin 1-nonlin 2-no                                               
   RPACOR =    0.000    partial core radius                                                         
   POMASS =    1.000; ZVAL   =    1.000    mass and valenz                                          
   RCORE  =    1.100    outmost cutoff radius                                                       
   RWIGS  =    0.700; RWIGS  =    0.370    wigner-seitz radius (au A)                               
   ENMAX  =  250.000; ENMIN  =  200.000 eV                                                          
   RCLOC  =    0.701    cutoff for local pot                                                        
   LCOR   =        T    correct aug charges                                                         
   LPAW   =        T    paw PP                                                                      
   EAUG   =  400.000                                                                                
   RMAX   =    1.123    core radius for proj-oper                                                   
   RAUG   =    1.200    factor for augmentation sphere                                              
   RDEP   =    1.112    radius for radial grids                                                     
   RDEPT  =    0.926    core radius for aug-charge                                                  
                                                                                                    
   Atomic configuration                                                                             
    2 entries                                                                                       
     n  l   j            E        occ.                                                              
     1  0  0.50        -6.4927   1.0000                                                             
     2  1  0.50        -3.4015   0.0000                                                             
   Description                                                                                      
     l       E           TYP  RCUT    TYP  RCUT                                                     
     0     -6.4927494     23  1.100                                                                 
     0      6.8029130     23  1.100                                                                 
     1     -4.0817478     23  1.100                                                                 
  local pseudopotential read in
  atomic valenz-charges read in
  non local Contribution for L=            0  read in
    real space projection operators read in
  non local Contribution for L=            0  read in
    real space projection operators read in
  non local Contribution for L=            1  read in
    real space projection operators read in
    PAW grid and wavefunctions read in
 
   number of l-projection  operators is LMAX  =            3
   number of lm-projection operators is LMMAX =            5
 
 POTCAR:    PAW_PBE C 08Apr2002                   
   SHA256 =  253f7b50bb8d59471dbedb8285d89021f4a42ed1a2c5d38a03a736e69125dd95 C/POTCAR              
   COPYR  = (c) Copyright 08Apr2002 Georg Kresse                                                    
   COPYR  = This file is part of the software VASP. Any use, copying, and all other rights are regul
   COPYR  = If you do not have a valid VASP license, you may not use, copy or distribute this file. 
   VRHFIN =C: s2p2                                                                                  
   LEXCH  = PE                                                                                      
   EATOM  =   147.1560 eV,   10.8157 Ry                                                             
                                                                                                    
   TITEL  = PAW_PBE C 08Apr2002                                                                     
   LULTRA =        F    use ultrasoft PP ?                                                          
   IUNSCR =        1    unscreen: 0-lin 1-nonlin 2-no                                               
   RPACOR =    1.200    partial core radius                                                         
   POMASS =   12.011; ZVAL   =    4.000    mass and valenz                                          
   RCORE  =    1.500    outmost cutoff radius                                                       
   RWIGS  =    1.630; RWIGS  =    0.863    wigner-seitz radius (au A)                               
   ENMAX  =  400.000; ENMIN  =  300.000 eV                                                          
   ICORE  =        2    local potential                                                             
   LCOR   =        T    correct aug charges                                                         
   LPAW   =        T    paw PP                                                                      
   EAUG   =  644.873                                                                                
   DEXC   =    0.000                                                                                
   RMAX   =    1.529    core radius for proj-oper                                                   
   RAUG   =    1.300    factor for augmentation sphere                                              
   RDEP   =    1.501    radius for radial grids                                                     
   RDEPT  =    1.300    core radius for aug-charge                                                  
                                                                                                    
   Atomic configuration                                                                             
    4 entries                                                                                       
     n  l   j            E        occ.                                                              
     1  0  0.50      -273.3789   2.0000                                                             
     2  0  0.50       -13.7508   2.0000                                                             
     2  1  0.50        -5.2854   2.0000                                                             
     3  2  1.50        -5.4423   0.0000                                                             
   Description                                                                                      
     l       E           TYP  RCUT    TYP  RCUT                                                     
     0    -13.7508458     23  1.200                                                                 
     0     -8.2022199     23  1.200                                                                 
     1     -5.2854383     23  1.500                                                                 
     1     34.0145650     23  1.500                                                                 
     2     -5.4423304      7  1.500                                                                 
  local pseudopotential read in
  partial core-charges read in
  partial kinetic energy density read in
  atomic valenz-charges read in
  non local Contribution for L=            0  read in
    real space projection operators read in
  non local Contribution for L=            0  read in
    real space projection operators read in
  non local Contribution for L=            1  read in
    real space projection operators read in
  non local Contribution for L=            1  read in
    real space projection operators read in
    PAW grid and wavefunctions read in
 
   number of l-projection  operators is LMAX  =            4
   number of lm-projection operators is LMMAX =            8
 
 POTCAR:    PAW_PBE N 08Apr2002                   
   SHA256 =  e053789ff3a61a86a1b75d8a110fcc91f86041011e7b0817c7c99e4e8a6349d7 N/POTCAR              
   COPYR  = (c) Copyright 08Apr2002 Georg Kresse                                                    
   COPYR  = This file is part of the software VASP. Any use, copying, and all other rights are regul
   COPYR  = If you do not have a valid VASP license, you may not use, copy or distribute this file. 
   VRHFIN =N: s2p3                                                                                  
   LEXCH  = PE                                                                                      
   EATOM  =   264.5486 eV,   19.4438 Ry                                                             
                                                                                                    
   TITEL  = PAW_PBE N 08Apr2002                                                                     
   LULTRA =        F    use ultrasoft PP ?                                                          
   IUNSCR =        1    unscreen: 0-lin 1-nonlin 2-no                                               
   RPACOR =    1.200    partial core radius                                                         
   POMASS =   14.001; ZVAL   =    5.000    mass and valenz                                          
   RCORE  =    1.500    outmost cutoff radius                                                       
   RWIGS  =    1.400; RWIGS  =    0.741    wigner-seitz radius (au A)                               
   ENMAX  =  400.000; ENMIN  =  300.000 eV                                                          
   ICORE  =        2    local potential                                                             
   LCOR   =        T    correct aug charges                                                         
   LPAW   =        T    paw PP                                                                      
   EAUG   =  627.112                                                                                
   DEXC   =    0.000                                                                                
   RMAX   =    1.529    core radius for proj-oper                                                   
   RAUG   =    1.300    factor for augmentation sphere                                              
   RDEP   =    1.514    radius for radial grids                                                     
   RDEPT  =    1.338    core radius for aug-charge                                                  
                                                                                                    
   Atomic configuration                                                                             
    4 entries                                                                                       
     n  l   j            E        occ.                                                              
     1  0  0.50      -384.7179   2.0000                                                             
     2  0  0.50       -18.5828   2.0000                                                             
     2  1  0.50        -7.0898   3.0000                                                             
     3  2  1.50        -6.8029   0.0000                                                             
   Description                                                                                      
     l       E           TYP  RCUT    TYP  RCUT                                                     
     0    -18.5828119     23  1.200                                                                 
     0    -13.5018863     23  1.200                                                                 
     1     -7.0897853     23  1.500                                                                 
     1      9.5240782     23  1.500                                                                 
     2     -6.8029130      7  1.500                                                                 
  local pseudopotential read in
  partial core-charges read in
  partial kinetic energy density read in
  atomic valenz-charges read in
  non local Contribution for L=            0  read in
    real space projection operators read in
  non local Contribution for L=            0  read in
    real space projection operators read in
  non local Contribution for L=            1  read in
    real space projection operators read in
  non local Contribution for L=            1  read in
    real space projection operators read in
    PAW grid and wavefunctions read in
 
   number of l-projection  operators is LMAX  =            4
   number of lm-projection operators is LMMAX =            8
 
 POTCAR:    PAW_PBE I 08Apr2002                   
   SHA256 =  e40f3f59b681c1fc3e3091736183c4589116986673d2b852a5012aec72758799 I/POTCAR              
   COPYR  = (c) Copyright 08Apr2002 Georg Kresse                                                    
   COPYR  = This file is part of the software VASP. Any use, copying, and all other rights are regul
   COPYR  = If you do not have a valid VASP license, you may not use, copy or distribute this file. 
   VRHFIN =I : s2p5                                                                                 
   LEXCH  = PE                                                                                      
   EATOM  =   315.8678 eV,   23.2156 Ry                                                             
                                                                                                    
   TITEL  = PAW_PBE I 08Apr2002                                                                     
   LULTRA =        F    use ultrasoft PP ?                                                          
   IUNSCR =        1    unscreen: 0-lin 1-nonlin 2-no                                               
   RPACOR =    2.200    partial core radius                                                         
   POMASS =  126.904; ZVAL   =    7.000    mass and valenz                                          
   RCORE  =    2.300    outmost cutoff radius                                                       
   RWIGS  =    2.810; RWIGS  =    1.487    wigner-seitz radius (au A)                               
   ENMAX  =  175.647; ENMIN  =  131.735 eV                                                          
   ICORE  =        3    local potential                                                             
   LCOR   =        T    correct aug charges                                                         
   LPAW   =        T    paw PP                                                                      
   EAUG   =  370.139                                                                                
   DEXC   =    0.000                                                                                
   RMAX   =    2.359    core radius for proj-oper                                                   
   RAUG   =    1.300    factor for augmentation sphere                                              
   RDEP   =    2.392    radius for radial grids                                                     
   RDEPT  =    2.170    core radius for aug-charge                                                  
                                                                                                    
   Atomic configuration                                                                             
   13 entries                                                                                       
     n  l   j            E        occ.                                                              
     1  0  0.50    -32976.3739   2.0000                                                             
     2  0  0.50     -5094.5933   2.0000                                                             
     2  1  1.50     -4572.0131   6.0000                                                             
     3  0  0.50     -1028.2813   2.0000                                                             
     3  1  1.50      -859.0250   6.0000                                                             
     3  2  2.50      -605.7620  10.0000                                                             
     4  0  0.50      -180.5540   2.0000                                                             
     4  1  1.50      -127.5306   6.0000                                                             
     4  2  2.50       -50.2720  10.0000                                                             
     5  0  0.50       -17.4058   2.0000                                                             
     5  1  0.50        -7.0851   5.0000                                                             
     5  2  1.50        -7.0750   0.0000                                                             
     4  3  2.50        -7.0750   0.0000                                                             
   Description                                                                                      
     l       E           TYP  RCUT    TYP  RCUT                                                     
     0    -17.4058016     23  2.300                                                                 
     0    -18.7663842     23  2.300                                                                 
     1     -7.0850686     23  2.300                                                                 
     1     -4.2150896     23  2.300                                                                 
     2     -7.0750295     23  2.300                                                                 
     3     -1.3605826     23  2.300                                                                 
  local pseudopotential read in
  partial core-charges read in
  partial kinetic energy density read in
  atomic valenz-charges read in
  non local Contribution for L=            0  read in
    real space projection operators read in
  non local Contribution for L=            0  read in
    real space projection operators read in
  non local Contribution for L=            1  read in
    real space projection operators read in
  non local Contribution for L=            1  read in
    real space projection operators read in
  non local Contribution for L=            2  read in
    real space projection operators read in
    PAW grid and wavefunctions read in
 
   number of l-projection  operators is LMAX  =            5
   number of lm-projection operators is LMMAX =           13
 
 POTCAR:    PAW_PBE Pb 08Apr2002                  
   SHA256 =  797118a27cf1bcd06b9881c67a26cdde129e3cd1a551dd4a281f9681ce847303 Pb/POTCAR             
   COPYR  = (c) Copyright 08Apr2002 Georg Kresse                                                    
   COPYR  = This file is part of the software VASP. Any use, copying, and all other rights are regul
   COPYR  = If you do not have a valid VASP license, you may not use, copy or distribute this file. 
   VRHFIN =Pb:                                                                                      
   LEXCH  = PE                                                                                      
   EATOM  =    96.9868 eV,    7.1283 Ry                                                             
                                                                                                    
   TITEL  = PAW_PBE Pb 08Apr2002                                                                    
   LULTRA =        F    use ultrasoft PP ?                                                          
   IUNSCR =        1    unscreen: 0-lin 1-nonlin 2-no                                               
   RPACOR =    2.200    partial core radius                                                         
   POMASS =  207.200; ZVAL   =    4.000    mass and valenz                                          
   RCORE  =    3.100    outmost cutoff radius                                                       
   RWIGS  =    3.260; RWIGS  =    1.725    wigner-seitz radius (au A)                               
   ENMAX  =   97.973; ENMIN  =   73.480 eV                                                          
   ICORE  =        3    local potential                                                             
   LCOR   =        T    correct aug charges                                                         
   LPAW   =        T    paw PP                                                                      
   EAUG   =  234.873                                                                                
   DEXC   =    0.000                                                                                
   RMAX   =    3.158    core radius for proj-oper                                                   
   RAUG   =    1.300    factor for augmentation sphere                                              
   RDEP   =    3.202    radius for radial grids                                                     
   RDEPT  =    2.659    core radius for aug-charge                                                  
                                                                                                    
   Atomic configuration                                                                             
   17 entries                                                                                       
     n  l   j            E        occ.                                                              
     1  0  0.50    -88091.8466   2.0000                                                             
     2  0  0.50    -15753.4197   2.0000                                                             
     2  1  1.50    -13508.1797   6.0000                                                             
     3  0  0.50     -3781.7194   2.0000                                                             
     3  1  1.50     -3138.2529   6.0000                                                             
     3  2  2.50     -2483.2977  10.0000                                                             
     4  0  0.50      -856.2895   2.0000                                                             
     4  1  1.50      -645.4943   6.0000                                                             
     4  2  2.50      -401.8768  10.0000                                                             
     4  3  3.50      -132.9059  14.0000                                                             
     5  0  0.50      -144.0950   2.0000                                                             
     5  1  1.50       -85.7879   6.0000                                                             
     5  2  2.50       -21.1769  10.0000                                                             
     6  0  0.50       -12.0372   2.0000                                                             
     6  1  1.50        -3.4971   2.0000                                                             
     6  2  2.50        -1.3606   0.0000                                                             
     5  3  2.50        -2.7212   0.0000                                                             
   Description                                                                                      
     l       E           TYP  RCUT    TYP  RCUT                                                     
     0    -12.0371566     23  3.100                                                                 
     0    -13.3977392     23  3.100                                                                 
     1     -3.4971341     23  3.100                                                                 
     1     -5.4423304     23  3.100                                                                 
     2     -1.3605826     23  3.100                                                                 
     3     -1.3605826     23  3.100                                                                 
  local pseudopotential read in
  partial core-charges read in
  partial kinetic energy density read in
  atomic valenz-charges read in
  non local Contribution for L=            0  read in
    real space projection operators read in
  non local Contribution for L=            0  read in
    real space projection operators read in
  non local Contribution for L=            1  read in
    real space projection operators read in
  non local Contribution for L=            1  read in
    real space projection operators read in
  non local Contribution for L=            2  read in
    real space projection operators read in
    PAW grid and wavefunctions read in
 
   number of l-projection  operators is LMAX  =            5
   number of lm-projection operators is LMMAX =           13
 
 Optimization of the real space projectors (new method)

 maximal supplied QI-value         = 34.20
 optimisation between [QCUT,QGAM] = [ 11.29, 22.57] = [ 35.68,142.71] Ry 
 Optimized for a Real-space Cutoff    1.16 Angstroem

   l    n(q)    QCUT    max X(q) W(low)/X(q) W(high)/X(q)  e(spline) 
   0      8    11.287    19.460    0.40E-03    0.73E-03    0.16E-06
   0      8    11.287    12.209    0.38E-03    0.70E-03    0.15E-06
   1      7    11.287     4.655    0.22E-03    0.25E-04    0.22E-06
 Optimization of the real space projectors (new method)

 maximal supplied QI-value         = 25.13
 optimisation between [QCUT,QGAM] = [ 11.31, 22.87] = [ 35.82,146.48] Ry 
 Optimized for a Real-space Cutoff    1.00 Angstroem

   l    n(q)    QCUT    max X(q) W(low)/X(q) W(high)/X(q)  e(spline) 
   0      7    11.310   115.676    0.43E-03    0.13E-02    0.19E-06
   0      7    11.310    87.132    0.43E-03    0.13E-02    0.18E-06
   1      6    11.310     4.429    0.42E-03    0.74E-03    0.11E-06
   1      6    11.310     2.733    0.34E-03    0.55E-03    0.92E-07
 Optimization of the real space projectors (new method)

 maximal supplied QI-value         = 25.13
 optimisation between [QCUT,QGAM] = [ 11.31, 22.87] = [ 35.82,146.48] Ry 
 Optimized for a Real-space Cutoff    1.27 Angstroem

   l    n(q)    QCUT    max X(q) W(low)/X(q) W(high)/X(q)  e(spline) 
   0      9    11.310    79.467    0.75E-04    0.16E-03    0.36E-06
   0      9    11.310    66.151    0.74E-04    0.16E-03    0.36E-06
   1      8    11.310    17.416    0.35E-03    0.12E-03    0.95E-06
   1      8    11.310    12.382    0.37E-03    0.13E-03    0.98E-06
 Optimization of the real space projectors (new method)

 maximal supplied QI-value         = 16.25
 optimisation between [QCUT,QGAM] = [ 11.38, 22.75] = [ 36.24,144.96] Ry 
 Optimized for a Real-space Cutoff    1.31 Angstroem

   l    n(q)    QCUT    max X(q) W(low)/X(q) W(high)/X(q)  e(spline) 
   0      9    11.376   194.483    0.24E-03    0.23E-03    0.67E-07
   0      9    11.376   190.334    0.23E-03    0.22E-03    0.65E-07
   1      8    11.376   116.687    0.25E-03    0.63E-04    0.16E-06
   1      8    11.376    88.696    0.25E-03    0.61E-04    0.16E-06
   2      8    11.376     4.877    0.17E-03    0.14E-03    0.29E-07
 Optimization of the real space projectors (new method)

 maximal supplied QI-value         = 12.09
 optimisation between [QCUT,QGAM] = [ 11.37, 22.86] = [ 36.19,146.31] Ry 
 Optimized for a Real-space Cutoff    1.66 Angstroem

   l    n(q)    QCUT    max X(q) W(low)/X(q) W(high)/X(q)  e(spline) 
   0     11    11.369   135.111    0.12E-03    0.69E-04    0.19E-05
   0     11    11.369   146.850    0.11E-03    0.65E-04    0.18E-05
   1     11    11.369   148.016    0.17E-03    0.32E-03    0.89E-06
   1     11    11.369   122.989    0.17E-03    0.32E-03    0.91E-06
   2     10    11.369     8.916    0.12E-03    0.45E-04    0.33E-06
  PAW_PBE H 15Jun2001                   :
 energy of atom  1       EATOM=  -12.4884
 kinetic energy error for atom=    0.0020 (will be added to EATOM!!)
  PAW_PBE C 08Apr2002                   :
 energy of atom  2       EATOM= -147.1560
 kinetic energy error for atom=    0.0076 (will be added to EATOM!!)
  PAW_PBE N 08Apr2002                   :
 energy of atom  3       EATOM= -264.5486
 kinetic energy error for atom=    0.0138 (will be added to EATOM!!)
  PAW_PBE I 08Apr2002                   :
 energy of atom  4       EATOM= -315.8678
 kinetic energy error for atom=    0.0009 (will be added to EATOM!!)
  PAW_PBE Pb 08Apr2002                  :
 energy of atom  5       EATOM=  -96.9868
 kinetic energy error for atom=    0.0000 (will be added to EATOM!!)
 
 
 POSCAR:  H  C  N  I Pb
  positions in cartesian coordinates
  No initial velocities read in
 exchange correlation table for  LEXCH =        8
   RHO(1)=    0.500       N(1)  =     2000
   RHO(2)=  100.500       N(2)  =     4000
 


--------------------------------------------------------------------------------------------------------


 ion  position               nearest neighbor table
   1  0.452  0.302  0.581- 187 0.97
   2  0.440  0.797  0.582- 188 1.04
   3  0.945  0.297  0.583- 189 1.00
   4  0.951  0.799  0.581- 190 1.04
   5  0.297  0.052  0.581- 194 1.01
   6  0.302  0.560  0.581- 195 1.01
   7  0.796  0.057  0.581- 196 1.01
   8  0.078  0.172  0.558- 183 1.02
   9  0.089  0.678  0.556- 184 1.06
  10  0.587  0.179  0.557- 185 1.07
  11  0.579  0.683  0.558- 186 0.98
  12  0.333  0.074  0.556- 194 1.04
  13  0.326  0.586  0.555- 195 1.04
  14  0.829  0.083  0.556- 196 1.04
  15  0.057  0.201  0.583- 183 1.02
  16  0.051  0.703  0.581- 184 1.04
  17  0.555  0.208  0.581- 185 0.98
  18  0.547  0.702  0.583- 186 0.98
  19  0.208  0.454  0.584- 191 1.01
  20  0.191  0.957  0.581- 192 1.01
  21  0.702  0.951  0.581- 193 1.01
  22  0.417  0.327  0.557- 187 1.01
  23  0.417  0.829  0.557- 188 0.99
  24  0.913  0.319  0.558- 189 1.03
  25  0.923  0.834  0.556- 190 1.06
  26  0.176  0.418  0.560- 191 1.04
  27  0.165  0.925  0.556- 192 1.04
  28  0.680  0.915  0.556- 193 1.04
  29  0.500  0.255  0.539- 146 1.09
  30  0.501  0.758  0.539- 147 1.09
  31  0.990  0.239  0.540- 144 1.10
  32  0.008  0.759  0.538- 145 1.08
  33  0.249  0.499  0.540- 148 1.05
  34  0.252  0.996  0.539- 149 1.05
  35  0.758  0.996  0.539- 150 1.05
  36  0.448  0.303  0.674- 205 1.03
  37  0.448  0.799  0.675- 206 1.04
  38  0.944  0.301  0.672- 207 1.06
  39  0.948  0.804  0.674- 208 0.98
  40  0.302  0.051  0.675- 209 1.04
  41  0.304  0.552  0.675- 210 1.04
  42  0.806  0.059  0.674- 211 1.04
  43  0.799  0.555  0.673- 212 1.02
  44  0.077  0.171  0.651- 197 1.00
  45  0.074  0.670  0.649- 198 1.00
  46  0.581  0.176  0.650- 199 1.00
  47  0.572  0.670  0.647- 200 1.03
  48  0.176  0.420  0.650- 201 0.99
  49  0.170  0.923  0.650- 202 0.99
  50  0.671  0.412  0.652- 203 1.07
  51  0.675  0.923  0.652- 204 0.99
  52  0.044  0.200  0.675- 197 1.02
  53  0.049  0.697  0.675- 198 1.02
  54  0.551  0.201  0.675- 199 1.02
  55  0.549  0.695  0.674- 200 1.07
  56  0.201  0.448  0.675- 201 1.04
  57  0.198  0.949  0.675- 202 1.04
  58  0.702  0.446  0.677- 203 0.98
  59  0.704  0.955  0.676- 204 1.04
  60  0.423  0.331  0.649- 205 1.01
  61  0.419  0.830  0.650- 206 1.01
  62  0.918  0.326  0.645- 207 1.05
  63  0.919  0.828  0.650- 208 1.01
  64  0.328  0.079  0.650- 209 0.99
  65  0.331  0.578  0.650- 210 1.01
  66  0.827  0.082  0.648- 211 1.00
  67  0.820  0.579  0.648- 212 0.98
  68  0.001  0.248  0.630- 151 1.09
  69  0.991  0.746  0.631- 152 1.08
  70  0.506  0.255  0.632- 153 1.07
  71  0.496  0.752  0.631- 154 1.07
  72  0.248  0.004  0.632- 156 1.08
  73  0.257  0.498  0.632- 155 1.08
  74  0.750  0.001  0.632- 158 1.08
  75  0.739  0.489  0.633- 157 1.05
  76  0.449  0.301  0.769- 221 1.02
  77  0.449  0.801  0.769- 222 1.02
  78  0.949  0.301  0.769- 223 1.02
  79  0.949  0.801  0.769- 224 1.02
  80  0.301  0.051  0.769- 225 1.02
  81  0.301  0.551  0.769- 226 1.02
  82  0.801  0.051  0.769- 227 1.02
  83  0.801  0.551  0.769- 228 1.02
  84  0.079  0.171  0.743- 213 1.02
  85  0.079  0.671  0.743- 214 1.02
  86  0.579  0.171  0.743- 215 1.02
  87  0.579  0.671  0.743- 216 1.02
  88  0.171  0.421  0.743- 217 1.02
  89  0.171  0.921  0.743- 218 1.02
  90  0.671  0.421  0.743- 219 1.02
  91  0.671  0.921  0.743- 220 1.02
  92  0.051  0.199  0.769- 213 1.02
  93  0.051  0.699  0.769- 214 1.02
  94  0.551  0.199  0.769- 215 1.02
  95  0.551  0.699  0.769- 216 1.02
  96  0.199  0.449  0.769- 217 1.02
  97  0.199  0.949  0.769- 218 1.02
  98  0.699  0.449  0.769- 219 1.02
  99  0.699  0.949  0.769- 220 1.02
 100  0.421  0.329  0.743- 221 1.02
 101  0.421  0.829  0.743- 222 1.02
 102  0.921  0.329  0.743- 223 1.02
 103  0.921  0.829  0.743- 224 1.02
 104  0.329  0.079  0.743- 225 1.02
 105  0.329  0.579  0.743- 226 1.02
 106  0.829  0.079  0.743- 227 1.02
 107  0.829  0.579  0.743- 228 1.02
 108  0.000  0.250  0.726- 161 1.09
 109  0.000  0.750  0.726- 162 1.09
 110  0.500  0.250  0.726- 159 1.09
 111  0.500  0.750  0.726- 160 1.09
 112  0.250  0.000  0.726- 163 1.09
 113  0.250  0.500  0.726- 164 1.09
 114  0.750  0.000  0.726- 165 1.09
 115  0.750  0.500  0.726- 166 1.09
 116  0.790  0.537  0.528- 173 1.11
 117  0.875  0.527  0.540- 173 1.06
 118  0.795  0.639  0.547- 174 1.07
 119  0.792  0.642  0.575- 174 1.07
 120  0.691  0.481  0.568- 175 1.12
 121  0.694  0.577  0.574- 175 1.09
 122  0.803  0.445  0.577- 176 1.06
 123  0.875  0.505  0.581- 176 1.08
 124  0.853  0.403  0.550- 177 1.10
 125  0.760  0.404  0.544- 177 1.07
 126  0.780  0.417  0.506- 178 1.11
 127  0.874  0.444  0.508- 178 1.13
 128  0.922  0.639  0.546- 179 1.08
 129  0.926  0.598  0.571- 179 1.06
 130  0.901  0.686  0.570- 179 1.08
 131  0.611  0.564  0.544- 180 1.11
 132  0.670  0.509  0.528- 180 1.13
 133  0.696  0.607  0.535- 180 1.09
 134  0.730  0.484  0.603- 181 1.10
 135  0.756  0.576  0.600- 181 1.06
 136  0.815  0.519  0.613- 181 1.07
 137  0.827  0.291  0.522- 182 1.13
 138  0.838  0.310  0.495- 182 1.07
 139  0.942  0.203  0.497- 168 1.09
 140  0.961  0.414  0.526- 169 1.05
 141  0.079  0.186  0.501- 170 1.08
 142  0.097  0.400  0.532- 171 1.13
 143  0.155  0.282  0.519- 172 1.11
 144  0.993  0.243  0.558-  31 1.10 189 1.26 183 1.27
 145  0.008  0.758  0.555-  32 1.08 184 1.29 190 1.29
 146  0.500  0.253  0.556-  29 1.09 187 1.29 185 1.29
 147  0.498  0.755  0.557-  30 1.09 188 1.29 186 1.33
 148  0.251  0.502  0.557-  33 1.05 195 1.29 191 1.31
 149  0.248  1.000  0.555-  34 1.05 194 1.30 192 1.30
 150  0.754  1.000  0.555-  35 1.05 193 1.30 196 1.30
 151  0.998  0.249  0.647-  68 1.09 207 1.30 197 1.34
 152  0.996  0.749  0.649-  69 1.08 208 1.32 198 1.34
 153  0.501  0.254  0.649-  70 1.07 205 1.29 199 1.34
 154  0.496  0.751  0.648-  71 1.07 206 1.29 200 1.30
 155  0.254  0.500  0.649-  73 1.08 210 1.29 201 1.33
 156  0.250  0.001  0.649-  72 1.08 209 1.31 202 1.33
 157  0.745  0.495  0.650-  75 1.05 203 1.31 212 1.35
 158  0.753  0.002  0.649-  74 1.08 211 1.29 204 1.33
 159  0.500  0.250  0.743- 110 1.09 221 1.31 215 1.31
 160  0.500  0.750  0.743- 111 1.09 222 1.31 216 1.31
 161  1.000  0.250  0.743- 108 1.09 223 1.31 213 1.31
 162  1.000  0.750  0.743- 109 1.09 224 1.31 214 1.31
 163  0.250  0.000  0.743- 112 1.09 225 1.31 218 1.31
 164  0.250  0.500  0.743- 113 1.09 226 1.31 217 1.31
 165  0.750  0.000  0.743- 114 1.09 227 1.31 220 1.31
 166  0.750  0.500  0.743- 115 1.09 228 1.31 219 1.31
 167  0.941  0.313  0.512- 169 1.36 168 1.46 182 1.50
 168  0.976  0.245  0.504- 139 1.09 170 1.39 167 1.46
 169  0.986  0.364  0.521- 140 1.05 167 1.36 171 1.44
 170  0.052  0.236  0.507- 141 1.08 168 1.39 172 1.42
 171  0.065  0.355  0.523- 142 1.13 172 1.34 169 1.44
 172  0.096  0.293  0.516- 143 1.11 171 1.34 170 1.42
 173  0.819  0.508  0.541- 117 1.06 116 1.11 177 1.48 229 1.50
 174  0.818  0.616  0.561- 119 1.07 118 1.07 229 1.42 179 1.45
 175  0.708  0.537  0.561- 121 1.09 120 1.12 180 1.52 229 1.55
 176  0.816  0.500  0.580- 122 1.06 123 1.08 229 1.42 181 1.47
 177  0.811  0.427  0.539- 125 1.07 124 1.10 173 1.48 178 1.59
 178  0.831  0.405  0.515- 126 1.11 127 1.13 182 1.54 177 1.59
 179  0.896  0.635  0.561- 129 1.06 128 1.08 130 1.08 174 1.45
 180  0.671  0.555  0.540- 133 1.09 131 1.11 132 1.13 175 1.52
 181  0.777  0.521  0.600- 135 1.06 136 1.07 134 1.10 176 1.47
 182  0.859  0.327  0.510- 138 1.07 137 1.13 167 1.50 178 1.54
 183  0.043  0.204  0.567-  15 1.02   8 1.02 144 1.27
 184  0.050  0.711  0.565-  16 1.04   9 1.06 145 1.29
 185  0.546  0.210  0.566-  17 0.98  10 1.07 146 1.29
 186  0.544  0.710  0.567-  11 0.98  18 0.98 147 1.33
 187  0.453  0.296  0.566-   1 0.97  22 1.01 146 1.29
 188  0.449  0.795  0.566-  23 0.99   2 1.04 147 1.29
 189  0.949  0.287  0.567-   3 1.00  24 1.03 144 1.26
 190  0.959  0.798  0.565-   4 1.04  25 1.06 145 1.29
 191  0.210  0.456  0.568-  19 1.01  26 1.04 148 1.31
 192  0.199  0.959  0.565-  20 1.01  27 1.04 149 1.30
 193  0.710  0.953  0.565-  21 1.01  28 1.04 150 1.30
 194  0.295  0.044  0.565-   5 1.01  12 1.04 149 1.30
 195  0.295  0.551  0.565-   6 1.01  13 1.04 148 1.29
 196  0.795  0.049  0.565-   7 1.01  14 1.04 150 1.30
 197  0.043  0.205  0.659-  44 1.00  52 1.02 151 1.34
 198  0.043  0.703  0.658-  45 1.00  53 1.02 152 1.34
 199  0.547  0.207  0.659-  46 1.00  54 1.02 153 1.34
 200  0.543  0.706  0.657-  47 1.03  55 1.07 154 1.30
 201  0.207  0.453  0.659-  48 0.99  56 1.04 155 1.33
 202  0.203  0.955  0.659-  49 0.99  57 1.04 156 1.33
 203  0.705  0.450  0.661-  58 0.98  50 1.07 157 1.31
 204  0.707  0.957  0.660-  51 0.99  59 1.04 158 1.33
 205  0.454  0.298  0.658-  60 1.01  36 1.03 153 1.29
 206  0.452  0.795  0.658-  61 1.01  37 1.04 154 1.29
 207  0.950  0.295  0.656-  62 1.05  38 1.06 151 1.30
 208  0.952  0.796  0.659-  39 0.98  63 1.01 152 1.32
 209  0.296  0.046  0.659-  64 0.99  40 1.04 156 1.31
 210  0.298  0.545  0.659-  65 1.01  41 1.04 155 1.29
 211  0.798  0.049  0.658-  66 1.00  42 1.04 158 1.29
 212  0.793  0.546  0.657-  67 0.98  43 1.02 157 1.35
 213  0.046  0.204  0.753-  92 1.02  84 1.02 161 1.31
 214  0.046  0.704  0.753-  93 1.02  85 1.02 162 1.31
 215  0.546  0.204  0.753-  94 1.02  86 1.02 159 1.31
 216  0.546  0.704  0.753-  95 1.02  87 1.02 160 1.31
 217  0.204  0.454  0.753-  96 1.02  88 1.02 164 1.31
 218  0.204  0.954  0.753-  97 1.02  89 1.02 163 1.31
 219  0.704  0.454  0.753-  98 1.02  90 1.02 166 1.31
 220  0.704  0.954  0.753-  99 1.02  91 1.02 165 1.31
 221  0.454  0.296  0.753-  76 1.02 100 1.02 159 1.31
 222  0.454  0.796  0.753-  77 1.02 101 1.02 160 1.31
 223  0.954  0.296  0.753-  78 1.02 102 1.02 161 1.31
 224  0.954  0.796  0.753-  79 1.02 103 1.02 162 1.31
 225  0.296  0.046  0.753-  80 1.02 104 1.02 163 1.31
 226  0.296  0.546  0.753-  81 1.02 105 1.02 164 1.31
 227  0.796  0.046  0.753-  82 1.02 106 1.02 165 1.31
 228  0.796  0.546  0.753-  83 1.02 107 1.02 166 1.31
 229  0.793  0.542  0.562- 174 1.42 176 1.42 173 1.50 175 1.55
 230  0.495  0.998  0.554- 304 3.05
 231  0.493  0.493  0.553- 305 3.06
 232  0.994  0.997  0.553- 302 3.06
 233  0.007  0.503  0.554- 303 3.14
 234  0.256  0.247  0.554- 306 3.10
 235  0.249  0.748  0.552- 307 3.19
 236  0.744  0.244  0.554- 308 3.08
 237  0.744  0.756  0.550- 309 3.36
 238  0.001  0.993  0.655- 310 3.14 302 3.26
 239  0.996  0.501  0.653- 303 3.10 311 3.21
 240  0.494  0.993  0.654- 312 3.16 304 3.24
 241  0.501  0.501  0.654- 313 3.15 305 3.28
 242  0.249  0.251  0.654- 314 3.16 306 3.20
 243  0.249  0.748  0.654- 315 3.15 307 3.24
 244  0.749  0.249  0.654- 316 3.15 308 3.22
 245  0.749  0.751  0.654- 309 3.11 317 3.21
 246  0.144  0.100  0.607- 302 3.19 306 3.31
 247  0.141  0.605  0.606- 303 3.13 307 3.30
 248  0.642  0.106  0.607- 304 3.18 308 3.30
 249  0.637  0.613  0.609- 305 3.23 309 3.27
 250  0.356  0.392  0.607- 306 3.22 305 3.27
 251  0.356  0.892  0.607- 307 3.19 304 3.29
 252  0.863  0.386  0.609- 308 3.20 303 3.28
 253  0.856  0.891  0.607- 309 3.14 302 3.28
 254  0.106  0.358  0.606- 303 3.08 306 3.29
 255  0.108  0.856  0.607- 307 3.22 302 3.29
 256  0.613  0.361  0.606- 308 3.14 305 3.21
 257  0.608  0.856  0.607- 309 3.11 304 3.27
 258  0.392  0.142  0.607- 306 3.21 304 3.22
 259  0.392  0.644  0.607- 307 3.20 305 3.30
 260  0.894  0.142  0.607- 302 3.18 308 3.31
 261  0.899  0.650  0.609- 309 3.36 303 3.38
 262  0.000  0.000  0.755- 310 3.13 318 3.27
 263  0.000  0.500  0.755- 311 3.13 319 3.27
 264  0.500  0.000  0.755- 312 3.13 320 3.27
 265  0.500  0.500  0.755- 313 3.13 321 3.27
 266  0.250  0.250  0.755- 314 3.13 322 3.27
 267  0.250  0.750  0.755- 315 3.13 323 3.27
 268  0.750  0.250  0.755- 316 3.13 324 3.27
 269  0.750  0.750  0.755- 317 3.13 325 3.27
 270  0.136  0.114  0.705- 310 3.20 314 3.20
 271  0.136  0.614  0.705- 311 3.20 315 3.20
 272  0.636  0.114  0.705- 312 3.20 316 3.20
 273  0.636  0.614  0.705- 313 3.20 317 3.20
 274  0.364  0.386  0.705- 313 3.20 314 3.20
 275  0.364  0.886  0.705- 312 3.20 315 3.20
 276  0.864  0.386  0.705- 311 3.20 316 3.20
 277  0.864  0.886  0.705- 310 3.20 317 3.20
 278  0.114  0.364  0.705- 314 3.21 311 3.21
 279  0.114  0.864  0.705- 315 3.21 310 3.21
 280  0.614  0.364  0.705- 316 3.21 313 3.21
 281  0.614  0.864  0.705- 317 3.21 312 3.21
 282  0.386  0.136  0.705- 314 3.21 312 3.21
 283  0.386  0.636  0.705- 315 3.21 313 3.21
 284  0.886  0.136  0.705- 316 3.21 310 3.21
 285  0.886  0.636  0.705- 317 3.21 311 3.21
 286  0.135  0.115  0.801- 318 3.22 322 3.22
 287  0.135  0.615  0.801- 319 3.22 323 3.22
 288  0.635  0.115  0.801- 320 3.22 324 3.22
 289  0.635  0.615  0.801- 321 3.22 325 3.22
 290  0.365  0.385  0.801- 321 3.22 322 3.22
 291  0.365  0.885  0.801- 320 3.22 323 3.22
 292  0.865  0.385  0.801- 319 3.22 324 3.22
 293  0.865  0.885  0.801- 318 3.22 325 3.22
 294  0.115  0.365  0.801- 319 3.23 322 3.23
 295  0.115  0.865  0.801- 318 3.23 323 3.23
 296  0.615  0.365  0.801- 321 3.23 324 3.23
 297  0.615  0.865  0.801- 320 3.23 325 3.23
 298  0.385  0.135  0.801- 320 3.23 322 3.23
 299  0.385  0.635  0.801- 321 3.23 323 3.23
 300  0.885  0.135  0.801- 318 3.23 324 3.23
 301  0.885  0.635  0.801- 319 3.23 325 3.23
 302  0.999  0.001  0.602- 232 3.06 260 3.18 246 3.19 238 3.26 253 3.28 255 3.29
 303  0.006  0.497  0.604- 254 3.08 239 3.10 247 3.13 233 3.14 252 3.28 261 3.38
 304  0.501  0.001  0.603- 230 3.05 248 3.18 258 3.22 240 3.24 257 3.27 251 3.29
 305  0.501  0.499  0.602- 231 3.06 256 3.21 249 3.23 250 3.27 241 3.28 259 3.30
 306  0.251  0.249  0.603- 234 3.10 242 3.20 258 3.21 250 3.22 254 3.29 246 3.31
 307  0.251  0.751  0.603- 235 3.19 251 3.19 259 3.20 255 3.22 243 3.24 247 3.30
 308  0.749  0.253  0.603- 236 3.08 256 3.14 252 3.20 244 3.22 248 3.30 260 3.31
 309  0.748  0.755  0.604- 245 3.11 257 3.11 253 3.14 249 3.27 237 3.36 261 3.36
 310  0.000  0.000  0.705- 262 3.13 238 3.14 270 3.20 277 3.20 279 3.21 284 3.21
 311  0.000  0.500  0.705- 263 3.13 271 3.20 276 3.20 278 3.21 285 3.21 239 3.21
 312  0.500  0.000  0.705- 264 3.13 240 3.16 272 3.20 275 3.20 281 3.21 282 3.21
 313  0.500  0.500  0.705- 265 3.13 241 3.15 273 3.20 274 3.20 280 3.21 283 3.21
 314  0.250  0.250  0.705- 266 3.13 242 3.16 270 3.20 274 3.20 282 3.21 278 3.21
 315  0.250  0.750  0.705- 267 3.13 243 3.15 271 3.20 275 3.20 283 3.21 279 3.21
 316  0.750  0.250  0.705- 268 3.13 244 3.15 272 3.20 276 3.20 284 3.21 280 3.21
 317  0.750  0.750  0.705- 269 3.13 273 3.20 277 3.20 285 3.21 281 3.21 245 3.21
 318  0.000  0.000  0.807- 286 3.22 293 3.22 300 3.23 295 3.23 262 3.27
 319  0.000  0.500  0.807- 287 3.22 292 3.22 301 3.23 294 3.23 263 3.27
 320  0.500  0.000  0.807- 288 3.22 291 3.22 298 3.23 297 3.23 264 3.27
 321  0.500  0.500  0.807- 289 3.22 290 3.22 299 3.23 296 3.23 265 3.27
 322  0.250  0.250  0.807- 290 3.22 286 3.22 294 3.23 298 3.23 266 3.27
 323  0.250  0.750  0.807- 291 3.22 287 3.22 299 3.23 295 3.23 267 3.27
 324  0.750  0.250  0.807- 292 3.22 288 3.22 296 3.23 300 3.23 268 3.27
 325  0.750  0.750  0.807- 293 3.22 289 3.22 297 3.23 301 3.23 269 3.27
 

IMPORTANT INFORMATION: All symmetrisations will be switched off!
NOSYMM: (Re-)initialisation of all symmetry stuff for point group C_1.


----------------------------------------------------------------------------------------

                                     Primitive cell                                     

  volume of cell :   20385.2105

  direct lattice vectors                    reciprocal lattice vectors
    18.060800552  0.000000000  0.000000000     0.055368531  0.000015077 -0.000000000
    -0.004918649 18.062799454  0.000000000     0.000000000  0.055362404  0.000000000
     0.000000000  0.000000000 62.487499237     0.000000000 -0.000000000  0.016003201

  length of vectors
    18.060800552 18.062800123 62.487499237     0.055368533  0.055362404  0.016003201

  position of ions in fractional coordinates (direct lattice)
     0.452195213  0.301714373  0.581119710
     0.440140422  0.796889033  0.582323503
     0.944666295  0.296949301  0.582536497
     0.951161563  0.799157222  0.581175752
     0.297365320  0.051517817  0.580809406
     0.301990031  0.559576083  0.580950182
     0.796356090  0.057156701  0.580776685
     0.078398457  0.172474269  0.557668669
     0.088596830  0.677754976  0.556327825
     0.587317703  0.179214212  0.557214782
     0.578980791  0.683431574  0.557764453
     0.332888631  0.073874506  0.555894145
     0.325539023  0.585786816  0.555197167
     0.829275992  0.083353152  0.555878333
     0.056543481  0.201127938  0.582522395
     0.051196611  0.703364555  0.581160184
     0.554836942  0.207596159  0.581141321
     0.546979357  0.702421746  0.582574469
     0.207774337  0.453601643  0.583818736
     0.191117514  0.957255993  0.580858305
     0.701909417  0.951174697  0.580790787
     0.417440449  0.327120469  0.557266245
     0.417163344  0.829129739  0.557489923
     0.912896145  0.319251526  0.557899551
     0.923436218  0.834454651  0.556314517
     0.176457871  0.417966599  0.559750812
     0.164526560  0.924542421  0.555973201
     0.679509001  0.915338969  0.555899639
     0.500295265  0.255308387  0.538825972
     0.501493115  0.758454311  0.539223757
     0.990323361  0.238992656  0.540356308
     0.007622370  0.758763547  0.537875282
     0.248882565  0.499143621  0.540161567
     0.252250436  0.996032424  0.538674697
     0.757625031  0.995590789  0.538637336
     0.447990359  0.302870828  0.674226773
     0.447503673  0.799047297  0.674970635
     0.944232499  0.300965860  0.672488388
     0.947526130  0.803927600  0.674319259
     0.302254879  0.051239025  0.675223371
     0.303783263  0.552390738  0.675172274
     0.806103401  0.058856186  0.673794618
     0.798842062  0.555384104  0.673455866
     0.077178005  0.171054961  0.650665847
     0.074039162  0.669537172  0.649348139
     0.580816857  0.175760002  0.650260981
     0.571562042  0.670216098  0.647122780
     0.175578114  0.420205169  0.649912888
     0.170259885  0.922922600  0.649912827
     0.671164968  0.412025485  0.652313942
     0.674622289  0.922875030  0.651844732
     0.044401646  0.200003704  0.675061962
     0.049172444  0.697286166  0.674615705
     0.551315817  0.201297749  0.675347053
     0.548711942  0.695423463  0.673966894
     0.201289673  0.448201652  0.675227888
     0.198058823  0.948696545  0.675238633
     0.701891168  0.446443013  0.676901502
     0.703861555  0.954822732  0.676437481
     0.422745680  0.331310231  0.648607329
     0.419168221  0.829537865  0.650139008
     0.918078574  0.326273515  0.645191729
     0.918530956  0.827653356  0.649730235
     0.328423709  0.078578663  0.649889263
     0.331216345  0.578382625  0.649829803
     0.827358382  0.081623163  0.647591501
     0.819942465  0.579425538  0.647989713
     0.000650034  0.247787591  0.630047160
     0.991343717  0.745687193  0.631427624
     0.506323825  0.255422641  0.631719186
     0.495750801  0.752124923  0.630994371
     0.248350645  0.004229861  0.632144259
     0.256944000  0.498163326  0.632115567
     0.749849367  0.001316760  0.632063432
     0.739259566  0.489347588  0.633124313
     0.448745018  0.301283966  0.768889017
     0.448745007  0.801283913  0.768889017
     0.948744965  0.301283966  0.768889017
     0.948745007  0.801283913  0.768889017
     0.301275995  0.051294496  0.768872961
     0.301276011  0.551294499  0.768872961
     0.801275943  0.051294496  0.768872961
     0.801275984  0.551294499  0.768872961
     0.078771004  0.171180501  0.743441971
     0.078771006  0.671180448  0.743441971
     0.578771004  0.171180501  0.743441971
     0.578770992  0.671180448  0.743441971
     0.171199499  0.421174482  0.743421032
     0.171199501  0.921174508  0.743421032
     0.671199512  0.421174482  0.743421032
     0.671199501  0.921174508  0.743421032
     0.051256000  0.198714991  0.768889017
     0.051256002  0.698714925  0.768889017
     0.551256027  0.198714991  0.768889017
     0.551256016  0.698714925  0.768889017
     0.198723491  0.448703970  0.768872046
     0.198723493  0.948703970  0.768872046
     0.698723518  0.448703970  0.768872046
     0.698723507  0.948703970  0.768872046
     0.421231519  0.328817467  0.743441971
     0.421231508  0.828817440  0.743441971
     0.921231466  0.328817467  0.743441971
     0.921231508  0.828817440  0.743441971
     0.328800503  0.078824997  0.743421032
     0.328800492  0.578824964  0.743421032
     0.828800477  0.078824997  0.743421032
     0.828800519  0.578824964  0.743421032
     0.000003500  0.250001478  0.725821992
     0.000003500  0.750001452  0.725821992
     0.500003506  0.250001478  0.725821992
     0.500003495  0.750001452  0.725821992
     0.250000502  0.000000000  0.725803983
     0.250000517  0.500000000  0.725803983
     0.750000502  0.000000000  0.725803983
     0.750000490  0.500000000  0.725803983
     0.790203288  0.537125655  0.528182303
     0.874518472  0.527090501  0.539532168
     0.795389946  0.638832774  0.547080675
     0.792191617  0.642064574  0.574811197
     0.690662346  0.481187862  0.567696676
     0.694002041  0.576690775  0.573873204
     0.802900667  0.444740024  0.576534687
     0.875477761  0.505205801  0.581145899
     0.852835154  0.403133348  0.549846182
     0.759510015  0.404128743  0.544309857
     0.779780973  0.417094275  0.505809481
     0.873595614  0.444455761  0.508431038
     0.921889242  0.639240689  0.545608518
     0.925782625  0.598012071  0.571228388
     0.901259716  0.686457622  0.569994072
     0.610968055  0.563744990  0.544257418
     0.669939960  0.509481675  0.527894587
     0.695732063  0.606620103  0.534734029
     0.730230015  0.483581234  0.602983763
     0.756254406  0.575698970  0.599775663
     0.815077504  0.518888642  0.613222261
     0.827459870  0.290634010  0.521647976
     0.838282575  0.309771883  0.494875440
     0.941706872  0.203125196  0.496907493
     0.961147899  0.413792360  0.525684184
     0.079035439  0.185899814  0.501432538
     0.097461453  0.400360281  0.531765173
     0.155242429  0.281537467  0.519206997
     0.993306564  0.242923445  0.557838747
     0.007565202  0.757858964  0.555099796
     0.500235187  0.253414454  0.556244618
     0.498132201  0.755083548  0.556593259
     0.251291085  0.502218190  0.556877923
     0.248414718  0.999561785  0.555364498
     0.753984915  0.999670375  0.555325916
     0.997722598  0.248575439  0.647482837
     0.995741899  0.748924115  0.648565024
     0.501468519  0.253993645  0.648851885
     0.496162565  0.750777050  0.648186225
     0.253838779  0.499703066  0.649293624
     0.249751778  0.001189435  0.649324758
     0.744966020  0.495070648  0.649703679
     0.752603674  0.002171788  0.649250830
     0.499988984  0.249994984  0.743277021
     0.499989025  0.749994958  0.743277021
     0.999988984  0.249994984  0.743277021
     0.999989025  0.749994958  0.743277021
     0.250000502  0.000001000  0.743255960
     0.250000517  0.500001003  0.743255960
     0.750000502  0.000001000  0.743255960
     0.750000491  0.500001003  0.743255960
     0.940759744  0.313092120  0.511964277
     0.976029218  0.245153488  0.504445561
     0.986299654  0.363576861  0.521199217
     0.051787424  0.235877459  0.506918437
     0.065102251  0.355276613  0.523369023
     0.096033337  0.292590112  0.516036014
     0.819047541  0.508428678  0.541478481
     0.818189644  0.616043332  0.561454766
     0.707592502  0.536516845  0.561406539
     0.816007508  0.500185795  0.580388179
     0.810862678  0.427202263  0.539102578
     0.830628776  0.405440846  0.515203572
     0.896322986  0.635192847  0.561196047
     0.670506751  0.555036589  0.540285737
     0.777069274  0.520925947  0.600079801
     0.858881313  0.327108115  0.510178702
     0.043019669  0.203921254  0.566673217
     0.050381514  0.711432308  0.564702913
     0.546275163  0.209921792  0.565647804
     0.544469369  0.710476089  0.567028330
     0.453344637  0.295884292  0.565662822
     0.448864302  0.795124217  0.565879235
     0.949157026  0.287258652  0.566757218
     0.959050821  0.798332416  0.564707492
     0.210119677  0.455993696  0.567727139
     0.199248198  0.958639293  0.564922501
     0.709871371  0.953394280  0.564864017
     0.294958362  0.043519153  0.564881355
     0.294819296  0.551284943  0.565155824
     0.795044348  0.048831183  0.564849305
     0.042948984  0.204549190  0.658722634
     0.043062987  0.703136310  0.658432293
     0.546568787  0.206952185  0.659083302
     0.543034216  0.705608246  0.657106771
     0.207174483  0.453001808  0.658789237
     0.202966783  0.954570246  0.658801629
     0.704818097  0.449845720  0.661288088
     0.707406063  0.957017694  0.659897368
     0.454231179  0.297909269  0.657832502
     0.452432200  0.794986837  0.658440656
     0.950451083  0.294821501  0.655683574
     0.952157015  0.795641265  0.658871162
     0.296291560  0.046379423  0.658787527
     0.298164843  0.545443141  0.658739361
     0.798165332  0.049330365  0.657550708
     0.793153925  0.545565473  0.657455596
     0.045862501  0.204119496  0.752725994
     0.045862500  0.704119456  0.752725994
     0.545862507  0.204119496  0.752725994
     0.545862496  0.704119456  0.752725994
     0.204119002  0.454101003  0.752704994
     0.204118991  0.954100951  0.752704994
     0.704118976  0.454101003  0.752704994
     0.704118964  0.954100951  0.752704994
     0.454140018  0.295888490  0.752726971
     0.454140007  0.795888516  0.752726971
     0.954140018  0.295888490  0.752726971
     0.954140060  0.795888516  0.752726971
     0.295882492  0.045900498  0.752704994
     0.295882481  0.545900528  0.752704994
     0.795882439  0.045900498  0.752704994
     0.795882481  0.545900528  0.752704994
     0.793036386  0.541501687  0.562168471
     0.495216273  0.998292966  0.553782699
     0.493358263  0.493443000  0.553030413
     0.993509396  0.997153840  0.553455363
     0.006543268  0.502558154  0.553683619
     0.256297753  0.246745576  0.553676782
     0.248774070  0.748351841  0.551668080
     0.743739133  0.243609472  0.553756388
     0.743510824  0.756498737  0.550065098
     0.000860292  0.993385473  0.654615489
     0.995861235  0.500912080  0.653482572
     0.493617093  0.993355484  0.654369224
     0.500911062  0.500972639  0.654402983
     0.249090988  0.250896927  0.654316723
     0.249096709  0.747707920  0.654421236
     0.748937660  0.248524172  0.654492845
     0.748717410  0.750867123  0.653519017
     0.144251723  0.100235996  0.607085536
     0.141425854  0.605193087  0.606425064
     0.642108665  0.105714847  0.607086391
     0.636605850  0.613322138  0.609311079
     0.355864747  0.392238833  0.606954162
     0.355927567  0.892122361  0.606952086
     0.863458445  0.386495103  0.609320785
     0.855521284  0.891397871  0.606603323
     0.105805226  0.358290623  0.606289844
     0.107787963  0.855797119  0.606800017
     0.613249106  0.361291934  0.606356936
     0.608141516  0.855678008  0.606627497
     0.392173983  0.141682147  0.607104155
     0.391908861  0.644162807  0.606923760
     0.894017932  0.141670267  0.607145484
     0.899404599  0.649534340  0.609358451
     0.000000000  0.000000000  0.754927972
     0.000000000  0.500000000  0.754927972
     0.500000000  0.000000000  0.754927972
     0.499999989  0.500000000  0.754927972
     0.250000496  0.250000000  0.754939022
     0.250000511  0.749999974  0.754939022
     0.750000470  0.250000000  0.754939022
     0.750000458  0.749999974  0.754939022
     0.135790500  0.114209997  0.704782994
     0.135790502  0.614209984  0.704782994
     0.635790447  0.114209997  0.704782994
     0.635790488  0.614209984  0.704782994
     0.364209516  0.385789989  0.704782994
     0.364209505  0.885789963  0.704782994
     0.864209542  0.385789989  0.704782994
     0.864209531  0.885789963  0.704782994
     0.114217990  0.364218986  0.704780979
     0.114217992  0.864218986  0.704780979
     0.614218004  0.364218986  0.704780979
     0.614217992  0.864218986  0.704780979
     0.385782012  0.135781489  0.704782017
     0.385782001  0.635781489  0.704782017
     0.885781985  0.135781489  0.704782017
     0.885782027  0.635781489  0.704782017
     0.134667000  0.115332001  0.801256025
     0.134666989  0.615331988  0.801256025
     0.634666987  0.115332001  0.801256025
     0.634666976  0.615331988  0.801256025
     0.365333002  0.384667985  0.801256025
     0.365332990  0.884667959  0.801256025
     0.865332949  0.384667985  0.801256025
     0.865332938  0.884667959  0.801256025
     0.115328503  0.365337004  0.801264999
     0.115328505  0.865336978  0.801264999
     0.615328503  0.365337004  0.801264999
     0.615328492  0.865336978  0.801264999
     0.384671513  0.134662996  0.801264999
     0.384671501  0.634662970  0.801264999
     0.884671486  0.134662996  0.801264999
     0.884671528  0.634662970  0.801264999
     0.999115677  0.001307732  0.602458390
     0.006400480  0.496889107  0.603982132
     0.500994440  0.001131153  0.602557286
     0.501439428  0.498696002  0.601926545
     0.250900878  0.248943465  0.603180397
     0.251028271  0.750939298  0.602658808
     0.749081945  0.253075809  0.602970638
     0.747628470  0.755233124  0.603772068
     0.000000500  0.000000500  0.704828963
     0.000000500  0.500000475  0.704828963
     0.500000475  0.000000500  0.704828963
     0.500000464  0.500000475  0.704828963
     0.249999994  0.249999472  0.704824995
     0.250000010  0.749999498  0.704824995
     0.749999994  0.249999472  0.704824995
     0.749999983  0.749999498  0.704824995
     0.000000000  0.000000000  0.807317968
     0.000000000  0.500000000  0.807317968
     0.500000000  0.000000000  0.807317968
     0.499999989  0.500000000  0.807317968
     0.249999994  0.250000000  0.807317968
     0.250000010  0.749999974  0.807317968
     0.749999994  0.250000000  0.807317968
     0.749999983  0.749999974  0.807317968

  ion indices of the primitive-cell ions
   primitive index   ion index
                 1           1
                 2           2
                 3           3
                 4           4
                 5           5
                 6           6
                 7           7
                 8           8
                 9           9
                10          10
                11          11
                12          12
                13          13
                14          14
                15          15
                16          16
                17          17
                18          18
                19          19
                20          20
                21          21
                22          22
                23          23
                24          24
                25          25
                26          26
                27          27
                28          28
                29          29
                30          30
                31          31
                32          32
                33          33
                34          34
                35          35
                36          36
                37          37
                38          38
                39          39
                40          40
                41          41
                42          42
                43          43
                44          44
                45          45
                46          46
                47          47
                48          48
                49          49
                50          50
                51          51
                52          52
                53          53
                54          54
                55          55
                56          56
                57          57
                58          58
                59          59
                60          60
                61          61
                62          62
                63          63
                64          64
                65          65
                66          66
                67          67
                68          68
                69          69
                70          70
                71          71
                72          72
                73          73
                74          74
                75          75
                76          76
                77          77
                78          78
                79          79
                80          80
                81          81
                82          82
                83          83
                84          84
                85          85
                86          86
                87          87
                88          88
                89          89
                90          90
                91          91
                92          92
                93          93
                94          94
                95          95
                96          96
                97          97
                98          98
                99          99
               100         100
               101         101
               102         102
               103         103
               104         104
               105         105
               106         106
               107         107
               108         108
               109         109
               110         110
               111         111
               112         112
               113         113
               114         114
               115         115
               116         116
               117         117
               118         118
               119         119
               120         120
               121         121
               122         122
               123         123
               124         124
               125         125
               126         126
               127         127
               128         128
               129         129
               130         130
               131         131
               132         132
               133         133
               134         134
               135         135
               136         136
               137         137
               138         138
               139         139
               140         140
               141         141
               142         142
               143         143
               144         144
               145         145
               146         146
               147         147
               148         148
               149         149
               150         150
               151         151
               152         152
               153         153
               154         154
               155         155
               156         156
               157         157
               158         158
               159         159
               160         160
               161         161
               162         162
               163         163
               164         164
               165         165
               166         166
               167         167
               168         168
               169         169
               170         170
               171         171
               172         172
               173         173
               174         174
               175         175
               176         176
               177         177
               178         178
               179         179
               180         180
               181         181
               182         182
               183         183
               184         184
               185         185
               186         186
               187         187
               188         188
               189         189
               190         190
               191         191
               192         192
               193         193
               194         194
               195         195
               196         196
               197         197
               198         198
               199         199
               200         200
               201         201
               202         202
               203         203
               204         204
               205         205
               206         206
               207         207
               208         208
               209         209
               210         210
               211         211
               212         212
               213         213
               214         214
               215         215
               216         216
               217         217
               218         218
               219         219
               220         220
               221         221
               222         222
               223         223
               224         224
               225         225
               226         226
               227         227
               228         228
               229         229
               230         230
               231         231
               232         232
               233         233
               234         234
               235         235
               236         236
               237         237
               238         238
               239         239
               240         240
               241         241
               242         242
               243         243
               244         244
               245         245
               246         246
               247         247
               248         248
               249         249
               250         250
               251         251
               252         252
               253         253
               254         254
               255         255
               256         256
               257         257
               258         258
               259         259
               260         260
               261         261
               262         262
               263         263
               264         264
               265         265
               266         266
               267         267
               268         268
               269         269
               270         270
               271         271
               272         272
               273         273
               274         274
               275         275
               276         276
               277         277
               278         278
               279         279
               280         280
               281         281
               282         282
               283         283
               284         284
               285         285
               286         286
               287         287
               288         288
               289         289
               290         290
               291         291
               292         292
               293         293
               294         294
               295         295
               296         296
               297         297
               298         298
               299         299
               300         300
               301         301
               302         302
               303         303
               304         304
               305         305
               306         306
               307         307
               308         308
               309         309
               310         310
               311         311
               312         312
               313         313
               314         314
               315         315
               316         316
               317         317
               318         318
               319         319
               320         320
               321         321
               322         322
               323         323
               324         324
               325         325

----------------------------------------------------------------------------------------

 
 
 KPOINTS: Automatic Mesh                          

Automatic generation of k-mesh.
 Grid dimensions read from file:
 generate k-points for:    3    3    1

 Generating k-lattice:

  Cartesian coordinates                     Fractional coordinates (reciprocal lattice)
     0.018456177  0.000005026 -0.000000000     0.333333333  0.000000000  0.000000000
     0.000000000  0.018454135  0.000000000     0.000000000  0.333333333  0.000000000
     0.000000000 -0.000000000  0.016003201     0.000000000  0.000000000  1.000000000

  Length of vectors
     0.018456178  0.018454135  0.016003201

  Shift w.r.t. Gamma in fractional coordinates (k-lattice)
     0.000000000  0.000000000  0.000000000

 
 Subroutine IBZKPT returns following result:
 ===========================================
 
 Found      5 irreducible k-points:
 
 Following reciprocal coordinates:
            Coordinates               Weight
  0.000000  0.000000  0.000000      1.000000
  0.333333  0.000000  0.000000      2.000000
  0.000000  0.333333  0.000000      2.000000
  0.333333  0.333333  0.000000      2.000000
 -0.333333  0.333333  0.000000      2.000000
 
 Following cartesian coordinates:
            Coordinates               Weight
  0.000000  0.000000  0.000000      1.000000
  0.018456  0.000005  0.000000      2.000000
  0.000000  0.018454  0.000000      2.000000
  0.018456  0.018459  0.000000      2.000000
 -0.018456  0.018449  0.000000      2.000000
 


--------------------------------------------------------------------------------------------------------




 Dimension of arrays:
   k-points           NKPTS =      5   k-points in BZ     NKDIM =      5   number of bands    NBANDS=    732
   number of dos      NEDOS =    301   number of ions     NIONS =    325
   non local maximal  LDIM  =      5   non local SUM 2l+1 LMDIM =     13
   total plane-waves  NPLWV = ******
   max r-space proj   IRMAX =   3336   max aug-charges    IRDMAX=  19845
   dimension x,y,z NGX =   100 NGY =  100 NGZ =  350
   dimension x,y,z NGXF=   200 NGYF=  200 NGZF=  700
   support grid    NGXF=   200 NGYF=  200 NGZF=  700
   ions per type =             143  39  47  72  24
   NGX,Y,Z   is equivalent  to a cutoff of   9.20,  9.20,  9.31 a.u.
   NGXF,Y,Z  is equivalent  to a cutoff of  18.41, 18.41, 18.62 a.u.

 SYSTEM =  PSC                                     
 POSCAR =   H  C  N  I Pb                          

 Startparameter for this run:
   NWRITE =      2    write-flag & timer
   PREC   = normal    normal or accurate (medium, high low for compatibility)
   ISTART =      0    job   : 0-new  1-cont  2-samecut
   ICHARG =      1    charge: 1-file 2-atom 10-const
   ISPIN  =      1    spin polarized calculation?
   LNONCOLLINEAR =      F non collinear calculations
   LSORBIT =      F    spin-orbit coupling
   INIWAV =      1    electr: 0-lowe 1-rand  2-diag
   LASPH  =      F    aspherical Exc in radial PAW
 Electronic Relaxation 1
   ENCUT  =  500.0 eV  36.75 Ry    6.06 a.u.  32.93 32.93113.93*2*pi/ulx,y,z
   ENINI  =  500.0     initial cutoff
   ENAUG  =  644.9 eV  augmentation charge cutoff
   NELM   =    600;   NELMIN=  2; NELMDL=  0     # of ELM steps 
   EDIFF  = 0.1E-03   stopping-criterion for ELM
   LREAL  =      T    real-space projection
   NLSPLINE    = F    spline interpolate recip. space projectors
   LCOMPAT=      F    compatible to vasp.4.4
   GGA_COMPAT  = F    GGA compatible to vasp.4.4-vasp.4.6
   LMAXPAW     = -100 max onsite density
   LMAXMIX     =    2 max onsite mixed and CHGCAR
   VOSKOWN=      0    Vosko Wilk Nusair interpolation
   ROPT   =   -0.00050  -0.00050  -0.00050  -0.00050
   ROPT   =   -0.00050
 Ionic relaxation
   EDIFFG = 0.1E-02   stopping-criterion for IOM
   NSW    =      0    number of steps for IOM
   NBLOCK =      1;   KBLOCK =      1    inner block; outer block 
   IBRION =     -1    ionic relax: 0-MD 1-quasi-New 2-CG
   NFREE  =      0    steps in history (QN), initial steepest desc. (CG)
   ISIF   =      2    stress and relaxation
   IWAVPR =     10    prediction:  0-non 1-charg 2-wave 3-comb
   ISYM   =      0    0-nonsym 1-usesym 2-fastsym
   LCORR  =      T    Harris-Foulkes like correction to forces

   POTIM  = 0.5000    time-step for ionic-motion
   TEIN   =    0.0    initial temperature
   TEBEG  =    0.0;   TEEND  =   0.0 temperature during run
   SMASS  =  -3.00    Nose mass-parameter (am)
   estimated Nose-frequenzy (Omega)   =  0.10E-29 period in steps = 0.13E+47 mass=  -0.745E-26a.u.
   SCALEE = 1.0000    scale energy and forces
   NPACO  =    256;   APACO  = 16.0  distance and # of slots for P.C.
   PSTRESS=    0.0 pullay stress

  Mass of Ions in am
   POMASS =   1.00 12.01 14.00126.90207.20
  Ionic Valenz
   ZVAL   =   1.00  4.00  5.00  7.00  4.00
  Atomic Wigner-Seitz radii
   RWIGS  =  -1.00 -1.00 -1.00 -1.00 -1.00
  virtual crystal weights 
   VCA    =   1.00  1.00  1.00  1.00  1.00
   NELECT =    1134.0000    total number of electrons
   NUPDOWN=      -1.0000    fix difference up-down

 DOS related values:
   EMIN   =  10.00;   EMAX   =-10.00  energy-range for DOS
   EFERMI =   0.00
   ISMEAR =     0;   SIGMA  =   0.05  broadening in eV -4-tet -1-fermi 0-gaus

 Electronic relaxation 2 (details)
   IALGO  =     38    algorithm
   LDIAG  =      T    sub-space diagonalisation (order eigenvalues)
   LSUBROT=      F    optimize rotation matrix (better conditioning)
   TURBO    =      0    0=normal 1=particle mesh
   IRESTART =      0    0=no restart 2=restart with 2 vectors
   NREBOOT  =      0    no. of reboots
   NMIN     =      0    reboot dimension
   EREF     =   0.00    reference energy to select bands
   IMIX   =      4    mixing-type and parameters
     AMIX     =   0.40;   BMIX     =  0.01
     AMIX_MAG =   1.60;   BMIX_MAG =  0.01
     AMIN     =   0.01
     WC   =   100.;   INIMIX=   1;  MIXPRE=   1;  MAXMIX= -45

 Intra band minimization:
   WEIMIN = 0.0000     energy-eigenvalue tresh-hold
   EBREAK =  0.34E-07  absolut break condition
   DEPER  =   0.30     relativ break condition  

   TIME   =   0.40     timestep for ELM

  volume/ion in A,a.u.               =      62.72       423.28
  Fermi-wavevector in a.u.,A,eV,Ry     =   0.624944  1.180972  5.313816  0.390554
  Thomas-Fermi vector in A             =   1.685677
 
 Write flags
   LWAVE        =      F    write WAVECAR
   LDOWNSAMPLE  =      F    k-point downsampling of WAVECAR
   LCHARG       =      T    write CHGCAR
   LVTOT        =      T    write LOCPOT, total local potential
   LVHAR        =      F    write LOCPOT, Hartree potential only
   LELF         =      F    write electronic localiz. function (ELF)
   LORBIT       =      0    0 simple, 1 ext, 2 COOP (PROOUT), +10 PAW based schemes


 Dipole corrections
   LMONO  =      F    monopole corrections only (constant potential shift)
   LDIPOL =      T    correct potential (dipole corrections)
   IDIPOL =      3    1-x, 2-y, 3-z, 4-all directions 
   EPSILON=  1.0000000 bulk dielectric constant

 Exchange correlation treatment:
   GGA     =    --    GGA type
   LEXCH   =     8    internal setting for exchange type
   VOSKOWN=      0    Vosko Wilk Nusair interpolation
   LHFCALC =     F    Hartree Fock is set to
   LHFONE  =     F    Hartree Fock one center treatment
   AEXX    =    0.0000 exact exchange contribution

 Linear response parameters
   LEPSILON=     F    determine dielectric tensor
   LRPA    =     F    only Hartree local field effects (RPA)
   LNABLA  =     F    use nabla operator in PAW spheres
   LVEL    =     F    velocity operator in full k-point grid
   LINTERFAST=   F  fast interpolation
   KINTER  =     0    interpolate to denser k-point grid
   CSHIFT  =0.1000    complex shift for real part using Kramers Kronig
   OMEGAMAX=  -1.0    maximum frequency
   DEG_THRESHOLD= 0.2000000E-02 threshold for treating states as degnerate
   RTIME   =   -0.100 relaxation time in fs
  (WPLASMAI=    0.000 imaginary part of plasma frequency in eV, 0.658/RTIME)
   DFIELD  = 0.0000000 0.0000000 0.0000000 field for delta impulse in time
 
 Orbital magnetization related:
   ORBITALMAG=     F  switch on orbital magnetization
   LCHIMAG   =     F  perturbation theory with respect to B field
   DQ        =  0.001000  dq finite difference perturbation B field
   LLRAUG    =     F  two centre corrections for induced B field



--------------------------------------------------------------------------------------------------------


 Static calculation
 charge density and potential will be updated during run
 non-spin polarized calculation
 Variant of blocked Davidson
 Davidson routine will perform the subspace rotation
 perform sub-space diagonalisation
    after iterative eigenvector-optimisation
 modified Broyden-mixing scheme, WC =      100.0
 initial mixing is a Kerker type mixing with AMIX =  0.4000 and BMIX =      0.0100
 Hartree-type preconditioning will be used
 using additional bands           165
 real space projection scheme for non local part
[...]
     13.54561      0.00000     45.35368         0.000759     -0.000945      0.011867
     13.54315      9.03140     45.35368         0.003444      0.002185      0.011030
     14.26906      9.70199     33.00479        -0.159472     -0.055068      0.496518
     15.79191      9.52073     33.71402         1.196353     -0.204466     -0.017104
     14.36224     11.53911     34.18570        -0.573167      0.077010     -0.329617
     14.30446     11.59748     35.91851        -0.460547      0.513210      0.602248
     12.47155      8.69160     35.47395         0.341061      0.434635     -0.292418
     12.53140     10.41665     35.85990        -0.590684      0.044223     -0.223138
     14.49884      8.03325     36.02621        -0.032704     -1.188953     -0.279174
     15.80934      9.12543     36.31435         0.474923      0.000739      0.058848
     15.40090      7.28172     34.35851         0.040082     -0.266902     -0.046621
     13.71537      7.29970     34.01256        -1.004954     -0.256305      0.021281
     14.08142      7.53389     31.60677         0.252762     -0.204662      0.050157
     15.77565      8.02812     31.77058        -0.658320     -0.167469      0.499689
     16.64691     11.54648     34.09371         0.080654     -0.082090     -0.480154
     16.71743     10.80177     35.69463         0.786806     -0.445063      0.081518
     16.27410     12.39935     35.61750        -0.123957      0.467891     -0.384528
     11.03180     10.18281     34.00928         0.569012      0.126206     -0.204912
     12.09715      9.20267     32.98681         0.281021      0.727782      0.680041
     12.56249     10.95726     33.41419        -0.269483      0.122195     -0.528433
     13.18616      8.73483     37.67895        -0.025922      0.010786      0.010080
     13.65573     10.39874     37.47848        -0.040131      0.847403     -0.149826
     14.71840      9.37258     38.31873         0.235962      0.065989      0.480659
     14.94316      5.24966     32.59648         0.525765      0.020385     -0.389337
     15.13853      5.59535     30.92353        -0.146416     -0.171938     -0.937546
     17.00698      3.66901     31.05051        -0.002989     -0.212067     -0.038241
     17.35707      7.47425     32.84869        -0.234786      1.074499      0.553180
      1.42653      3.35787     31.33327        -0.003410     -0.265664     -0.080222
      1.75826      7.23163     33.22868        -0.686235     -0.855005     -0.658504
      2.80242      5.08535     32.44395        -0.375303      0.077876     -0.331644
     17.93872      4.38788     34.85795         0.338297     -0.327367     -2.962513
      0.13291     13.68905     34.68680        -0.203570     -0.188447     -0.579518
      9.03340      4.57737     34.75834         0.058061      0.004167     -1.565679
      8.99295     13.63892     34.78012         1.131406     -1.042075      0.611647
      4.53605      9.07147     34.79791        -0.380916     -0.436218      1.165550
      4.48165     18.05488     34.70334         0.096739     -0.004875      1.115423
     13.61265     18.05685     34.70093         0.014119     -0.038044      1.090172
     18.01845      4.48997     40.45958         0.938474     -0.707457      0.609344
     17.98021     13.52767     40.52721         0.587126     -0.520544      2.252651
      9.05567      4.58784     40.54513         1.358647     -1.354574      0.866524
      8.95740     13.56114     40.50354         0.382499     -0.194752      0.316901
      4.58207      9.02604     40.57273        -1.002037     -1.184072      0.481695
      4.51071      0.02148     40.57468        -0.600058     -0.432230      0.867649
     13.45225      8.94236     40.59836         1.272861      1.193997      2.500824
     13.59261      0.03923     40.57006        -1.244972     -0.979413      0.639577
      9.02897      4.51561     46.44552         0.014440     -0.000479      0.044821
      9.02651     13.54701     46.44552         0.005536      0.011146      0.041088
     18.05937      4.51561     46.44552         0.018928     -0.002877      0.044103
     18.05691     13.54701     46.44552         0.014579      0.002725      0.038481
      4.51521      0.00002     46.44421        -0.004130     -0.005206      0.050969
      4.51275      9.03142     46.44421        -0.000263     -0.000522      0.054073
     13.54561      0.00002     46.44421        -0.003133     -0.003038      0.052995
     13.54315      9.03142     46.44421        -0.001432     -0.001967      0.054567
     16.98933      5.65532     31.99137         0.344577     -1.966304     -0.932511
     17.62666      4.42816     31.52154        -0.765638      1.127260      0.367654
     17.81157      6.56722     32.56844         1.907544      0.363112     -0.219724
      0.93416      4.26061     31.67607         0.012455      0.428771     -0.168450
      1.17405      6.41729     32.70402        -1.578770      1.934932      0.763630
      1.73300      5.28500     32.24580         1.332438     -2.009202     -0.168309
     14.79015      9.18365     33.83564        -0.808934      0.426322     -1.032287
     14.77413     11.12747     35.08390        -0.952880      1.093101     -0.289470
     12.77705      9.69100     35.08089        -0.178258     -0.092271      0.336867
     14.73529      9.03476     36.26701         0.716280     -0.251754     -0.021148
     14.64273      7.71647     33.68717         2.225457     -0.764371     -0.985954
     14.99983      7.32340     32.19378         0.112383      1.023291     -0.234977
     16.18519     11.47336     35.06774         0.636222      0.251016      0.054169
     12.10716     10.02551     33.76110        -0.098673     -0.367198      0.134430
     14.03193      9.40938     37.49749        -0.300867     -0.361773      0.465079
     15.51048      5.90849     31.87979        -0.814181     -0.385109      1.468472
      0.77597      3.68339     35.40999         2.711706     -2.168272      1.249938
      0.90643     12.85046     35.28687         2.079730     -1.965551      0.442572
      9.86513      3.79178     35.34592         2.309867     -1.905248     -1.858609
      9.83006     12.83319     35.43218        -1.460538      1.325873     -2.221567
      8.18631      5.34450     35.34686        -0.637711      0.530064     -1.198974
      8.10294     14.36217     35.36038        -0.467431      0.211732      1.677300
     17.14112      5.18870     35.41524        -2.816283      2.568270      0.667181
     17.31730     14.42012     35.28716        -2.007354      2.079552      0.545967
      3.79269      8.23652     35.47585        -0.867557     -1.034493     -1.042862
      3.59387     17.31571     35.30059        -1.097631     -1.055980     -0.999198
     12.81616     17.22097     35.29694        -1.076371     -1.011252     -0.855303
      5.32697      0.78608     35.29802         1.083966      0.966791     -0.904436
      5.32196      9.95775     35.31517         1.134019      1.251366     -0.970525
     14.35890      0.88203     35.29602         0.995995      1.058537     -0.968939
      0.77469      3.69473     41.16193        -0.979497      0.856112     -0.420113
      0.77429     12.70061     41.14379        -0.998234      0.994256     -0.500130
      9.87045      3.73814     41.18447        -1.022729      1.029970     -0.223069
      9.80416     12.74526     41.06096         0.877125     -1.330713      1.470776
      3.73951      8.18248     41.16609         1.115357      1.246538      0.837834
      3.66105     17.24221     41.16687         1.400384      1.277568      0.850545
     12.72737      8.12547     41.32224        -1.035231     -1.092872     -3.366271
     12.77161     17.28642     41.23534         1.187925      1.189613      0.745157
      8.20231      5.38108     41.10631        -0.371394      0.376815      1.056037
      8.16738     14.35969     41.14431        -0.844185      0.744625      1.146888
     17.16446      5.32530     40.97203        -0.703336      0.652353      1.171756
     17.19280     14.37151     41.17121         0.159556     -0.345437     -2.634465
      5.35103      0.83774     41.16599        -0.773488     -0.778780      1.335146
      5.38241      9.85223     41.16298         0.504992      0.584289      1.322156
     14.41526      0.89104     41.08870         0.358817      0.358278      1.353660
     14.32231      9.85444     41.08276        -2.177761     -2.234723      0.681665
      0.82731      3.68697     47.03596         0.015361     -0.018105     -0.090918
      0.82485     12.71837     47.03596         0.017234     -0.022775     -0.083907
      9.85771      3.68697     47.03596         0.019035     -0.019872     -0.093013
      9.85525     12.71837     47.03596         0.024689     -0.026365     -0.084981
      3.68432      8.20234     47.03465        -0.010540     -0.011134     -0.076568
      3.68186     17.23373     47.03465        -0.007328     -0.007671     -0.072945
     12.71472      8.20234     47.03465        -0.011889     -0.011991     -0.079610
     12.71226     17.23373     47.03465        -0.007511     -0.009924     -0.074281
      8.20068      5.34457     47.03603        -0.020636      0.019379     -0.093076
      8.19822     14.37597     47.03603        -0.015327      0.013044     -0.090911
     17.23108      5.34457     47.03603        -0.023357      0.020789     -0.088878
     17.22862     14.37597     47.03603        -0.023466      0.017708     -0.086688
      5.34365      0.82909     47.03465         0.013866      0.014019     -0.071739
      5.34119      9.86049     47.03465         0.011875      0.009044     -0.074575
     14.37405      0.82909     47.03465         0.011371      0.013852     -0.075644
     14.37159      9.86049     47.03465         0.009121      0.010139     -0.070956
     14.32021      9.78104     35.12850        -1.604298     -1.722272     -3.114808
      8.93909     18.03197     34.60450         0.013502      0.018865     -0.273232
      8.90802      8.91296     34.55749        -0.482898     -0.144885     -0.009089
     17.93867     18.01139     34.58404         0.044727      0.032221     -0.285842
      0.11570      9.07761     34.59830         1.335224     -0.174044      0.449187
      4.62773      4.45692     34.59788         0.028208      0.009315     -0.094681
      4.48938     13.51733     34.47236         0.021030      0.015675      0.025066
     13.43133      4.40027     34.60285        -0.134689     -0.212825     -0.019051
     13.42468     13.66448     34.37219        -0.871449      1.953079     -0.158035
      0.01065     17.94332     40.90528        -0.020084      0.082209     -0.004428
     17.98359      9.04787     40.83449         0.052763     -0.027747      0.355927
      8.91023     17.94278     40.88990         0.096108      0.088792      0.062189
      9.04439      9.04897     40.89201        -0.000549     -0.022094     -0.019236
      4.49755      4.53190     40.88662        -0.009878     -0.014645      0.039132
      4.49521     13.50570     40.89315        -0.010017     -0.006204     -0.045960
     13.52519      4.48904     40.89762        -0.036916     -0.019087      0.010528
     13.51874     13.56276     40.83677        -0.011814      0.016347      0.139016
      2.60481      1.81054     37.93526         0.081678      0.169998     -0.020372
      2.55129     10.93148     37.89399         0.178850      0.090843      0.070391
     11.59648      1.90951     37.93531         0.072565      0.073422      0.019487
     11.49459     11.07831     38.07433        -1.510420      0.810989      0.696406
      6.42527      7.08493     37.92705         0.045309      0.017714      0.077451
      6.42395     16.11423     37.92692        -0.014724      0.022268      0.041315
     15.59285      6.98118     38.07493         0.941993     -2.025138      1.091188
     15.44701     16.10114     37.90512         0.047180      0.106674      0.032961
      1.90916      6.47173     37.88554         0.190411     -0.305276      0.071326
      1.94253     15.45809     37.91742        -0.060109      0.029730      0.033739
     11.07399      6.52594     37.88973        -0.091149      0.060226      0.022545
     10.97931     15.45594     37.90664        -0.154801      0.170145      0.043731
      7.08228      2.55918     37.93642         0.011977      0.049836      0.052555
      7.07502     11.63538     37.92515         0.093453     -0.120613      0.029365
     16.14598      2.55896     37.93900        -0.126773      0.004575      0.048946
     16.24077     11.73241     38.07729         0.315556      0.458669      1.456756
      0.00000      0.00000     47.17356        -0.002802      0.001026      0.480821
     -0.00246      9.03140     47.17356        -0.002060     -0.000748      0.389220
      9.03040      0.00000     47.17356         0.000145      0.000844      0.466872
      9.02794      9.03140     47.17356         0.001506     -0.001187      0.452982
      4.51398      4.51570     47.17425         0.000930      0.000755      0.434356
      4.51152     13.54710     47.17425         0.001395     -0.002880      0.450885
     13.54438      4.51570     47.17425        -0.001234     -0.000597      0.435405
     13.54192     13.54710     47.17425        -0.000652     -0.001102      0.347450
      2.45192      2.06295     44.04013         0.002468      0.005324     -0.038318
      2.44946     11.09435     44.04013        -0.014447     -0.020317     -0.033761
     11.48232      2.06295     44.04013         0.007238     -0.000044     -0.038288
     11.47986     11.09435     44.04013        -0.016666      0.026846     -0.071810
      6.57602      6.96845     44.04013         0.015218     -0.004620     -0.044031
      6.57356     15.99985     44.04013        -0.011092     -0.013367     -0.011961
     15.60642      6.96845     44.04013         0.016853     -0.031040     -0.067097
     15.60396     15.99985     44.04013        -0.038271     -0.004757     -0.008703
      2.06108      6.57881     44.04000        -0.007477      0.010151     -0.035190
      2.05862     15.61021     44.04000         0.008199     -0.007789     -0.003026
     11.09148      6.57881     44.04000        -0.051154     -0.058788      0.039845
     11.08902     15.61021     44.04000         0.012038     -0.015797     -0.016591
      6.96686      2.45259     44.04007         0.002146      0.015446     -0.029217
      6.96440     11.48399     44.04007         0.014968     -0.009564     -0.027621
     15.99726      2.45259     44.04007        -0.018423      0.009556     -0.055533
     15.99481     11.48399     44.04007        -0.027797     -0.003189     -0.052898
      2.43163      2.08322     50.06849         0.012014     -0.007744      0.022174
      2.42917     11.11462     50.06849         0.003512     -0.017581      0.022621
     11.46203      2.08322     50.06849         0.013260     -0.007103      0.020916
     11.45957     11.11462     50.06849         0.017436     -0.004307      0.021211
      6.59631      6.94818     50.06849        -0.008630      0.011193      0.021382
      6.59385     15.97958     50.06849        -0.010979      0.008257      0.022313
     15.62671      6.94818     50.06849        -0.006641      0.014507      0.021299
     15.62425     15.97958     50.06849        -0.021084     -0.000357      0.022005
      2.08113      6.59901     50.06905        -0.016021     -0.004324      0.022021
      2.07867     15.63041     50.06905        -0.008811     -0.012026      0.023278
     11.11153      6.59901     50.06905        -0.009198     -0.010138      0.020765
     11.10907     15.63041     50.06905         0.000090     -0.020241      0.021726
      6.94681      2.43239     50.06905         0.008450      0.012169      0.021965
      6.94435     11.46379     50.06905         0.012268      0.007277      0.022143
     15.97721      2.43239     50.06905         0.005886      0.013340      0.021722
     15.97475     11.46379     50.06905         0.007206      0.011833      0.021860
     18.04482      0.02362     37.64612        -0.015061     -0.139485      0.218788
      0.11315      8.97521     37.74133        -0.036319      0.231479      0.012611
      9.04836      0.02043     37.65230        -0.036451     -0.069675      0.188583
      9.05394      9.00785     37.61288        -0.076414      0.115787      0.179755
      4.53025      4.49662     37.69123        -0.014892     -0.035962      0.069826
      4.53008     13.56407     37.65864        -0.131102      0.026494      0.000884
     13.52777      4.57126     37.67813         0.137439     -0.143120      0.175815
     13.49905     13.64162     37.72821         0.144041     -0.052067     -0.130938
      0.00001      0.00001     44.04300         0.031880     -0.020892     -0.045786
     -0.00245      9.03141     44.04300         0.012761     -0.002790     -0.059668
      9.03041      0.00001     44.04300        -0.003116     -0.021769     -0.072348
      9.02795      9.03141     44.04300        -0.002253      0.003961     -0.026768
      4.51397      4.51569     44.04275        -0.023156     -0.019304      0.008260
      4.51151     13.54709     44.04275        -0.022807      0.029325     -0.018262
     13.54437      4.51569     44.04275         0.000726      0.000506      0.038294
     13.54191     13.54709     44.04275        -0.008249      0.028327      0.023484
      0.00000      0.00000     50.44728         0.006665      0.002097     -0.646665
     -0.00246      9.03140     50.44728         0.006082     -0.003564     -0.621845
      9.03040      0.00000     50.44728        -0.006300      0.002995     -0.643555
      9.02794      9.03140     50.44728        -0.006428     -0.002690     -0.637135
      4.51397      4.51570     50.44728         0.002607     -0.007128     -0.634550
      4.51151     13.54710     50.44728         0.001550      0.006720     -0.639095
     13.54437      4.51570     50.44728        -0.001656     -0.007054     -0.633115
     13.54191     13.54710     50.44728        -0.002639      0.006412     -0.611107
 -----------------------------------------------------------------------------------
    total drift:                                0.003436      0.087359      0.420066


--------------------------------------------------------------------------------------------------------



  FREE ENERGIE OF THE ION-ELECTRON SYSTEM (eV)
  ---------------------------------------------------
  free  energy   TOTEN  =     -1567.24183858 eV

  energy  without entropy=    -1567.24183858  energy(sigma->0) =    -1567.24183858
 


--------------------------------------------------------------------------------------------------------


    POTLOK:  cpu time    0.5005: real time    0.5004


--------------------------------------------------------------------------------------------------------


     LOOP+:  cpu time  343.2414: real time  343.7897
 vacuum level on the upper side and lower side of the slab         2.434         1.436
    4ORBIT:  cpu time    0.0000: real time    0.0000

 total amount of memory used by VASP MPI-rank0  8653573. kBytes
=======================================================================

   base      :      30000. kBytes
   nonlr-proj:      53611. kBytes
   fftplans  :     249280. kBytes
   grid      :     701440. kBytes
   one-center:       2636. kBytes
   wavefun   :    7616606. kBytes
 
  
  
 General timing and accounting informations for this job:
 ========================================================
  
                  Total CPU time used (sec):      555.669
                            User time (sec):      444.605
                          System time (sec):      111.064
                         Elapsed time (sec):      558.216
  
                   Maximum memory used (kb):    10352364.
                   Average memory used (kb):          N/A
  
                          Minor page faults:      3897129
                          Major page faults:           11
                 Voluntary context switches:        11461
