 vasp.6.2.1 16May21 (build Nov 15 2021 14:57:28) complex                         
 executed on             LinuxPGI date 2023.07.25  01:47:51
 running on    4 total cores
 distrk:  each k-point on    4 cores,    1 groups
 distr:  one band on NCORE=   1 cores,    4 groups


--------------------------------------------------------------------------------------------------------


 INCAR:
   SYSTEM = PSC
   ISTART = 1
   ICHARG = 1
   PREC = Normal
   ENCUT = 500
   GGA_COMPAT = F
   NELM = 600
   ISYM = 0
   LREAL = Auto
   ISMEAR = 0
   SIGMA = 0.05
   AMIN = 0.01
   BMIX = 0.01
   LVTOT = T
   LWAVE = F
   LDIPOL = T
   IDIPOL = 3
   LVDW = T
   IVDW = 12

 POTCAR:    PAW_PBE H 15Jun2001                   
 POTCAR:    PAW_PBE C 08Apr2002                   
 POTCAR:    PAW_PBE N 08Apr2002                   
 POTCAR:    PAW_PBE I 08Apr2002                   
 POTCAR:    PAW_PBE Pb 08Apr2002                  
 WARNING: For LVTOT=.TRUE., VASP.5.x writes the TOTAL local potential to the
     file LOCPOT. If you want only the Hartree contributions, use LVHAR=.TRUE.
     instead. 

 POTCAR:    PAW_PBE H 15Jun2001                   
   SHA256 =  030f79b5d3ab3cf0e668861823c8fb652ff669f3e15e46930bd03bfd63a607b6 H/POTCAR              
   COPYR  = (c) Copyright 15Jun2001 Georg Kresse                                                    
   COPYR  = This file is part of the software VASP. Any use, copying, and all other rights are regul
   COPYR  = If you do not have a valid VASP license, you may not use, copy or distribute this file. 
   VRHFIN =H: ultrasoft test                                                                        
   LEXCH  = PE                                                                                      
   EATOM  =    12.4884 eV,    0.9179 Ry                                                             
                                                                                                    
   TITEL  = PAW_PBE H 15Jun2001                                                                     
   LULTRA =        F    use ultrasoft PP ?                                                          
   IUNSCR =        0    unscreen: 0-lin 1-nonlin 2-no                                               
   RPACOR =    0.000    partial core radius                                                         
   POMASS =    1.000; ZVAL   =    1.000    mass and valenz                                          
   RCORE  =    1.100    outmost cutoff radius                                                       
   RWIGS  =    0.700; RWIGS  =    0.370    wigner-seitz radius (au A)                               
   ENMAX  =  250.000; ENMIN  =  200.000 eV                                                          
   RCLOC  =    0.701    cutoff for local pot                                                        
   LCOR   =        T    correct aug charges                                                         
   LPAW   =        T    paw PP                                                                      
   EAUG   =  400.000                                                                                
   RMAX   =    1.123    core radius for proj-oper                                                   
   RAUG   =    1.200    factor for augmentation sphere                                              
   RDEP   =    1.112    radius for radial grids                                                     
   RDEPT  =    0.926    core radius for aug-charge                                                  
                                                                                                    
   Atomic configuration                                                                             
    2 entries                                                                                       
     n  l   j            E        occ.                                                              
     1  0  0.50        -6.4927   1.0000                                                             
     2  1  0.50        -3.4015   0.0000                                                             
   Description                                                                                      
     l       E           TYP  RCUT    TYP  RCUT                                                     
     0     -6.4927494     23  1.100                                                                 
     0      6.8029130     23  1.100                                                                 
     1     -4.0817478     23  1.100                                                                 
  local pseudopotential read in
  atomic valenz-charges read in
  non local Contribution for L=            0  read in
    real space projection operators read in
  non local Contribution for L=            0  read in
    real space projection operators read in
  non local Contribution for L=            1  read in
    real space projection operators read in
    PAW grid and wavefunctions read in
 
   number of l-projection  operators is LMAX  =            3
   number of lm-projection operators is LMMAX =            5
 
 POTCAR:    PAW_PBE C 08Apr2002                   
   SHA256 =  253f7b50bb8d59471dbedb8285d89021f4a42ed1a2c5d38a03a736e69125dd95 C/POTCAR              
   COPYR  = (c) Copyright 08Apr2002 Georg Kresse                                                    
   COPYR  = This file is part of the software VASP. Any use, copying, and all other rights are regul
   COPYR  = If you do not have a valid VASP license, you may not use, copy or distribute this file. 
   VRHFIN =C: s2p2                                                                                  
   LEXCH  = PE                                                                                      
   EATOM  =   147.1560 eV,   10.8157 Ry                                                             
                                                                                                    
   TITEL  = PAW_PBE C 08Apr2002                                                                     
   LULTRA =        F    use ultrasoft PP ?                                                          
   IUNSCR =        1    unscreen: 0-lin 1-nonlin 2-no                                               
   RPACOR =    1.200    partial core radius                                                         
   POMASS =   12.011; ZVAL   =    4.000    mass and valenz                                          
   RCORE  =    1.500    outmost cutoff radius                                                       
   RWIGS  =    1.630; RWIGS  =    0.863    wigner-seitz radius (au A)                               
   ENMAX  =  400.000; ENMIN  =  300.000 eV                                                          
   ICORE  =        2    local potential                                                             
   LCOR   =        T    correct aug charges                                                         
   LPAW   =        T    paw PP                                                                      
   EAUG   =  644.873                                                                                
   DEXC   =    0.000                                                                                
   RMAX   =    1.529    core radius for proj-oper                                                   
   RAUG   =    1.300    factor for augmentation sphere                                              
   RDEP   =    1.501    radius for radial grids                                                     
   RDEPT  =    1.300    core radius for aug-charge                                                  
                                                                                                    
   Atomic configuration                                                                             
    4 entries                                                                                       
     n  l   j            E        occ.                                                              
     1  0  0.50      -273.3789   2.0000                                                             
     2  0  0.50       -13.7508   2.0000                                                             
     2  1  0.50        -5.2854   2.0000                                                             
     3  2  1.50        -5.4423   0.0000                                                             
   Description                                                                                      
     l       E           TYP  RCUT    TYP  RCUT                                                     
     0    -13.7508458     23  1.200                                                                 
     0     -8.2022199     23  1.200                                                                 
     1     -5.2854383     23  1.500                                                                 
     1     34.0145650     23  1.500                                                                 
     2     -5.4423304      7  1.500                                                                 
  local pseudopotential read in
  partial core-charges read in
  partial kinetic energy density read in
  atomic valenz-charges read in
  non local Contribution for L=            0  read in
    real space projection operators read in
  non local Contribution for L=            0  read in
    real space projection operators read in
  non local Contribution for L=            1  read in
    real space projection operators read in
  non local Contribution for L=            1  read in
    real space projection operators read in
    PAW grid and wavefunctions read in
 
   number of l-projection  operators is LMAX  =            4
   number of lm-projection operators is LMMAX =            8
 
 POTCAR:    PAW_PBE N 08Apr2002                   
   SHA256 =  e053789ff3a61a86a1b75d8a110fcc91f86041011e7b0817c7c99e4e8a6349d7 N/POTCAR              
   COPYR  = (c) Copyright 08Apr2002 Georg Kresse                                                    
   COPYR  = This file is part of the software VASP. Any use, copying, and all other rights are regul
   COPYR  = If you do not have a valid VASP license, you may not use, copy or distribute this file. 
   VRHFIN =N: s2p3                                                                                  
   LEXCH  = PE                                                                                      
   EATOM  =   264.5486 eV,   19.4438 Ry                                                             
                                                                                                    
   TITEL  = PAW_PBE N 08Apr2002                                                                     
   LULTRA =        F    use ultrasoft PP ?                                                          
   IUNSCR =        1    unscreen: 0-lin 1-nonlin 2-no                                               
   RPACOR =    1.200    partial core radius                                                         
   POMASS =   14.001; ZVAL   =    5.000    mass and valenz                                          
   RCORE  =    1.500    outmost cutoff radius                                                       
   RWIGS  =    1.400; RWIGS  =    0.741    wigner-seitz radius (au A)                               
   ENMAX  =  400.000; ENMIN  =  300.000 eV                                                          
   ICORE  =        2    local potential                                                             
   LCOR   =        T    correct aug charges                                                         
   LPAW   =        T    paw PP                                                                      
   EAUG   =  627.112                                                                                
   DEXC   =    0.000                                                                                
   RMAX   =    1.529    core radius for proj-oper                                                   
   RAUG   =    1.300    factor for augmentation sphere                                              
   RDEP   =    1.514    radius for radial grids                                                     
   RDEPT  =    1.338    core radius for aug-charge                                                  
                                                                                                    
   Atomic configuration                                                                             
    4 entries                                                                                       
     n  l   j            E        occ.                                                              
     1  0  0.50      -384.7179   2.0000                                                             
     2  0  0.50       -18.5828   2.0000                                                             
     2  1  0.50        -7.0898   3.0000                                                             
     3  2  1.50        -6.8029   0.0000                                                             
   Description                                                                                      
     l       E           TYP  RCUT    TYP  RCUT                                                     
     0    -18.5828119     23  1.200                                                                 
     0    -13.5018863     23  1.200                                                                 
     1     -7.0897853     23  1.500                                                                 
     1      9.5240782     23  1.500                                                                 
     2     -6.8029130      7  1.500                                                                 
  local pseudopotential read in
  partial core-charges read in
  partial kinetic energy density read in
  atomic valenz-charges read in
  non local Contribution for L=            0  read in
    real space projection operators read in
  non local Contribution for L=            0  read in
    real space projection operators read in
  non local Contribution for L=            1  read in
    real space projection operators read in
  non local Contribution for L=            1  read in
    real space projection operators read in
    PAW grid and wavefunctions read in
 
   number of l-projection  operators is LMAX  =            4
   number of lm-projection operators is LMMAX =            8
 
 POTCAR:    PAW_PBE I 08Apr2002                   
   SHA256 =  e40f3f59b681c1fc3e3091736183c4589116986673d2b852a5012aec72758799 I/POTCAR              
   COPYR  = (c) Copyright 08Apr2002 Georg Kresse                                                    
   COPYR  = This file is part of the software VASP. Any use, copying, and all other rights are regul
   COPYR  = If you do not have a valid VASP license, you may not use, copy or distribute this file. 
   VRHFIN =I : s2p5                                                                                 
   LEXCH  = PE                                                                                      
   EATOM  =   315.8678 eV,   23.2156 Ry                                                             
                                                                                                    
   TITEL  = PAW_PBE I 08Apr2002                                                                     
   LULTRA =        F    use ultrasoft PP ?                                                          
   IUNSCR =        1    unscreen: 0-lin 1-nonlin 2-no                                               
   RPACOR =    2.200    partial core radius                                                         
   POMASS =  126.904; ZVAL   =    7.000    mass and valenz                                          
   RCORE  =    2.300    outmost cutoff radius                                                       
   RWIGS  =    2.810; RWIGS  =    1.487    wigner-seitz radius (au A)                               
   ENMAX  =  175.647; ENMIN  =  131.735 eV                                                          
   ICORE  =        3    local potential                                                             
   LCOR   =        T    correct aug charges                                                         
   LPAW   =        T    paw PP                                                                      
   EAUG   =  370.139                                                                                
   DEXC   =    0.000                                                                                
   RMAX   =    2.359    core radius for proj-oper                                                   
   RAUG   =    1.300    factor for augmentation sphere                                              
   RDEP   =    2.392    radius for radial grids                                                     
   RDEPT  =    2.170    core radius for aug-charge                                                  
                                                                                                    
   Atomic configuration                                                                             
   13 entries                                                                                       
     n  l   j            E        occ.                                                              
     1  0  0.50    -32976.3739   2.0000                                                             
     2  0  0.50     -5094.5933   2.0000                                                             
     2  1  1.50     -4572.0131   6.0000                                                             
     3  0  0.50     -1028.2813   2.0000                                                             
     3  1  1.50      -859.0250   6.0000                                                             
     3  2  2.50      -605.7620  10.0000                                                             
     4  0  0.50      -180.5540   2.0000                                                             
     4  1  1.50      -127.5306   6.0000                                                             
     4  2  2.50       -50.2720  10.0000                                                             
     5  0  0.50       -17.4058   2.0000                                                             
     5  1  0.50        -7.0851   5.0000                                                             
     5  2  1.50        -7.0750   0.0000                                                             
     4  3  2.50        -7.0750   0.0000                                                             
   Description                                                                                      
     l       E           TYP  RCUT    TYP  RCUT                                                     
     0    -17.4058016     23  2.300                                                                 
     0    -18.7663842     23  2.300                                                                 
     1     -7.0850686     23  2.300                                                                 
     1     -4.2150896     23  2.300                                                                 
     2     -7.0750295     23  2.300                                                                 
     3     -1.3605826     23  2.300                                                                 
  local pseudopotential read in
  partial core-charges read in
  partial kinetic energy density read in
  atomic valenz-charges read in
  non local Contribution for L=            0  read in
    real space projection operators read in
  non local Contribution for L=            0  read in
    real space projection operators read in
  non local Contribution for L=            1  read in
    real space projection operators read in
  non local Contribution for L=            1  read in
    real space projection operators read in
  non local Contribution for L=            2  read in
    real space projection operators read in
    PAW grid and wavefunctions read in
 
   number of l-projection  operators is LMAX  =            5
   number of lm-projection operators is LMMAX =           13
 
 POTCAR:    PAW_PBE Pb 08Apr2002                  
   SHA256 =  797118a27cf1bcd06b9881c67a26cdde129e3cd1a551dd4a281f9681ce847303 Pb/POTCAR             
   COPYR  = (c) Copyright 08Apr2002 Georg Kresse                                                    
   COPYR  = This file is part of the software VASP. Any use, copying, and all other rights are regul
   COPYR  = If you do not have a valid VASP license, you may not use, copy or distribute this file. 
   VRHFIN =Pb:                                                                                      
   LEXCH  = PE                                                                                      
   EATOM  =    96.9868 eV,    7.1283 Ry                                                             
                                                                                                    
   TITEL  = PAW_PBE Pb 08Apr2002                                                                    
   LULTRA =        F    use ultrasoft PP ?                                                          
   IUNSCR =        1    unscreen: 0-lin 1-nonlin 2-no                                               
   RPACOR =    2.200    partial core radius                                                         
   POMASS =  207.200; ZVAL   =    4.000    mass and valenz                                          
   RCORE  =    3.100    outmost cutoff radius                                                       
   RWIGS  =    3.260; RWIGS  =    1.725    wigner-seitz radius (au A)                               
   ENMAX  =   97.973; ENMIN  =   73.480 eV                                                          
   ICORE  =        3    local potential                                                             
   LCOR   =        T    correct aug charges                                                         
   LPAW   =        T    paw PP                                                                      
   EAUG   =  234.873                                                                                
   DEXC   =    0.000                                                                                
   RMAX   =    3.158    core radius for proj-oper                                                   
   RAUG   =    1.300    factor for augmentation sphere                                              
   RDEP   =    3.202    radius for radial grids                                                     
   RDEPT  =    2.659    core radius for aug-charge                                                  
                                                                                                    
   Atomic configuration                                                                             
   17 entries                                                                                       
     n  l   j            E        occ.                                                              
     1  0  0.50    -88091.8466   2.0000                                                             
     2  0  0.50    -15753.4197   2.0000                                                             
     2  1  1.50    -13508.1797   6.0000                                                             
     3  0  0.50     -3781.7194   2.0000                                                             
     3  1  1.50     -3138.2529   6.0000                                                             
     3  2  2.50     -2483.2977  10.0000                                                             
     4  0  0.50      -856.2895   2.0000                                                             
     4  1  1.50      -645.4943   6.0000                                                             
     4  2  2.50      -401.8768  10.0000                                                             
     4  3  3.50      -132.9059  14.0000                                                             
     5  0  0.50      -144.0950   2.0000                                                             
     5  1  1.50       -85.7879   6.0000                                                             
     5  2  2.50       -21.1769  10.0000                                                             
     6  0  0.50       -12.0372   2.0000                                                             
     6  1  1.50        -3.4971   2.0000                                                             
     6  2  2.50        -1.3606   0.0000                                                             
     5  3  2.50        -2.7212   0.0000                                                             
   Description                                                                                      
     l       E           TYP  RCUT    TYP  RCUT                                                     
     0    -12.0371566     23  3.100                                                                 
     0    -13.3977392     23  3.100                                                                 
     1     -3.4971341     23  3.100                                                                 
     1     -5.4423304     23  3.100                                                                 
     2     -1.3605826     23  3.100                                                                 
     3     -1.3605826     23  3.100                                                                 
  local pseudopotential read in
  partial core-charges read in
  partial kinetic energy density read in
  atomic valenz-charges read in
  non local Contribution for L=            0  read in
    real space projection operators read in
  non local Contribution for L=            0  read in
    real space projection operators read in
  non local Contribution for L=            1  read in
    real space projection operators read in
  non local Contribution for L=            1  read in
    real space projection operators read in
  non local Contribution for L=            2  read in
    real space projection operators read in
    PAW grid and wavefunctions read in
 
   number of l-projection  operators is LMAX  =            5
   number of lm-projection operators is LMMAX =           13
 
 Optimization of the real space projectors (new method)

 maximal supplied QI-value         = 34.20
 optimisation between [QCUT,QGAM] = [ 11.29, 22.57] = [ 35.68,142.71] Ry 
 Optimized for a Real-space Cutoff    1.16 Angstroem

   l    n(q)    QCUT    max X(q) W(low)/X(q) W(high)/X(q)  e(spline) 
   0      8    11.287    19.460    0.40E-03    0.73E-03    0.16E-06
   0      8    11.287    12.209    0.38E-03    0.70E-03    0.15E-06
   1      7    11.287     4.655    0.22E-03    0.25E-04    0.22E-06
 Optimization of the real space projectors (new method)

 maximal supplied QI-value         = 25.13
 optimisation between [QCUT,QGAM] = [ 11.31, 22.87] = [ 35.82,146.48] Ry 
 Optimized for a Real-space Cutoff    1.00 Angstroem

   l    n(q)    QCUT    max X(q) W(low)/X(q) W(high)/X(q)  e(spline) 
   0      7    11.310   115.676    0.43E-03    0.13E-02    0.19E-06
   0      7    11.310    87.132    0.43E-03    0.13E-02    0.18E-06
   1      6    11.310     4.429    0.42E-03    0.74E-03    0.11E-06
   1      6    11.310     2.733    0.34E-03    0.55E-03    0.92E-07
 Optimization of the real space projectors (new method)

 maximal supplied QI-value         = 25.13
 optimisation between [QCUT,QGAM] = [ 11.31, 22.87] = [ 35.82,146.48] Ry 
 Optimized for a Real-space Cutoff    1.27 Angstroem

   l    n(q)    QCUT    max X(q) W(low)/X(q) W(high)/X(q)  e(spline) 
   0      9    11.310    79.467    0.75E-04    0.16E-03    0.36E-06
   0      9    11.310    66.151    0.74E-04    0.16E-03    0.36E-06
   1      8    11.310    17.416    0.35E-03    0.12E-03    0.95E-06
   1      8    11.310    12.382    0.37E-03    0.13E-03    0.98E-06
 Optimization of the real space projectors (new method)

 maximal supplied QI-value         = 16.25
 optimisation between [QCUT,QGAM] = [ 11.38, 22.75] = [ 36.24,144.96] Ry 
 Optimized for a Real-space Cutoff    1.31 Angstroem

   l    n(q)    QCUT    max X(q) W(low)/X(q) W(high)/X(q)  e(spline) 
   0      9    11.376   194.483    0.24E-03    0.23E-03    0.67E-07
   0      9    11.376   190.334    0.23E-03    0.22E-03    0.65E-07
   1      8    11.376   116.687    0.25E-03    0.63E-04    0.16E-06
   1      8    11.376    88.696    0.25E-03    0.61E-04    0.16E-06
   2      8    11.376     4.877    0.17E-03    0.14E-03    0.29E-07
 Optimization of the real space projectors (new method)

 maximal supplied QI-value         = 12.09
 optimisation between [QCUT,QGAM] = [ 11.37, 22.86] = [ 36.19,146.31] Ry 
 Optimized for a Real-space Cutoff    1.66 Angstroem

   l    n(q)    QCUT    max X(q) W(low)/X(q) W(high)/X(q)  e(spline) 
   0     11    11.369   135.111    0.12E-03    0.69E-04    0.19E-05
   0     11    11.369   146.850    0.11E-03    0.65E-04    0.18E-05
   1     11    11.369   148.016    0.17E-03    0.32E-03    0.89E-06
   1     11    11.369   122.989    0.17E-03    0.32E-03    0.91E-06
   2     10    11.369     8.916    0.12E-03    0.45E-04    0.33E-06
  PAW_PBE H 15Jun2001                   :
 energy of atom  1       EATOM=  -12.4884
 kinetic energy error for atom=    0.0020 (will be added to EATOM!!)
  PAW_PBE C 08Apr2002                   :
 energy of atom  2       EATOM= -147.1560
 kinetic energy error for atom=    0.0076 (will be added to EATOM!!)
  PAW_PBE N 08Apr2002                   :
 energy of atom  3       EATOM= -264.5486
 kinetic energy error for atom=    0.0138 (will be added to EATOM!!)
  PAW_PBE I 08Apr2002                   :
 energy of atom  4       EATOM= -315.8678
 kinetic energy error for atom=    0.0009 (will be added to EATOM!!)
  PAW_PBE Pb 08Apr2002                  :
 energy of atom  5       EATOM=  -96.9868
 kinetic energy error for atom=    0.0000 (will be added to EATOM!!)
 
 
 POSCAR:  H  C  N  I Pb
  positions in cartesian coordinates
  No initial velocities read in
 exchange correlation table for  LEXCH =        8
   RHO(1)=    0.500       N(1)  =     2000
   RHO(2)=  100.500       N(2)  =     4000
 


--------------------------------------------------------------------------------------------------------


 ion  position               nearest neighbor table
   1  0.449  0.333  0.565- 187 1.01
   2  0.426  0.831  0.569- 188 1.03
   3  0.960  0.326  0.577- 189 1.04
   4  0.946  0.815  0.573- 190 1.03
   5  0.327  0.953  0.574- 194 1.04
   6  0.353  0.549  0.561- 195 1.04
   7  0.806  0.087  0.568- 196 1.04
   8  0.012  0.142  0.560- 183 1.03
   9  0.069  0.657  0.569- 184 1.02
  10  0.557  0.166  0.556- 185 1.02
  11  0.496  0.646  0.561- 186 1.02
  12  0.364  0.023  0.558- 194 1.01
  13  0.298  0.628  0.554- 195 1.02
  14  0.876  0.024  0.560- 196 1.02
  15  0.958  0.190  0.578- 183 1.02
  16  0.991  0.690  0.583- 184 1.03
  17  0.565  0.255  0.567- 185 1.02
  18  0.431  0.695  0.575- 186 1.03
  19  0.281  0.436  0.572- 191 1.03
  20  0.193  0.929  0.571- 192 1.03
  21  0.678  0.034  0.570- 193 1.02
  22  0.371  0.289  0.554- 187 1.03
  23  0.495  0.869  0.552- 188 1.02
  24  0.018  0.368  0.558- 189 1.03
  25  0.996  0.864  0.554- 190 1.02
  26  0.187  0.439  0.567- 191 1.02
  27  0.139  0.992  0.557- 192 1.02
  28  0.669  0.942  0.562- 193 1.01
  29  0.435  0.182  0.547- 146 1.10
  30  0.548  0.752  0.546- 147 1.09
  31  0.061  0.252  0.545- 144 1.09
  32  0.083  0.767  0.550- 145 1.10
  33  0.188  0.560  0.555- 148 1.09
  34  0.244  0.061  0.546- 149 1.09
  35  0.793  0.927  0.555- 150 1.09
  36  0.485  0.339  0.664- 205 1.01
  37  0.449  0.812  0.674- 206 1.02
  38  0.966  0.282  0.677- 207 1.02
  39  0.928  0.725  0.673- 208 1.03
  40  0.309  0.055  0.671- 209 1.01
  41  0.299  0.549  0.675- 210 1.02
  42  0.801  0.057  0.675- 211 1.01
  43  0.755  0.598  0.659- 212 1.03
  44  0.085  0.162  0.645- 197 1.03
  45  0.113  0.718  0.650- 198 1.03
  46  0.576  0.165  0.650- 199 1.03
  47  0.563  0.663  0.651- 200 1.02
  48  0.179  0.413  0.648- 201 1.02
  49  0.175  0.921  0.649- 202 1.01
  50  0.705  0.403  0.662- 203 1.02
  51  0.674  0.924  0.650- 204 1.02
  52  0.063  0.179  0.672- 197 1.03
  53  0.058  0.675  0.669- 198 1.03
  54  0.596  0.254  0.659- 199 1.03
  55  0.531  0.695  0.676- 200 1.01
  56  0.200  0.445  0.674- 201 1.01
  57  0.207  0.953  0.674- 202 1.02
  58  0.668  0.491  0.666- 203 1.02
  59  0.696  0.961  0.675- 204 1.02
  60  0.399  0.299  0.658- 205 1.03
  61  0.435  0.845  0.648- 206 1.02
  62  0.937  0.326  0.654- 207 1.02
  63  0.903  0.796  0.656- 208 1.02
  64  0.333  0.078  0.645- 209 1.02
  65  0.331  0.576  0.650- 210 1.02
  66  0.837  0.076  0.649- 211 1.02
  67  0.842  0.575  0.650- 212 1.01
  68  0.009  0.253  0.632- 151 1.09
  69  0.021  0.800  0.640- 152 1.09
  70  0.449  0.186  0.648- 153 1.10
  71  0.506  0.754  0.632- 154 1.11
  72  0.251  0.997  0.629- 156 1.09
  73  0.260  0.492  0.632- 155 1.09
  74  0.761  0.993  0.632- 158 1.09
  75  0.818  0.448  0.650- 157 1.09
  76  0.449  0.301  0.769- 221 1.02
  77  0.449  0.801  0.769- 222 1.02
  78  0.949  0.301  0.769- 223 1.02
  79  0.949  0.801  0.769- 224 1.02
  80  0.301  0.051  0.769- 225 1.02
  81  0.301  0.551  0.769- 226 1.02
  82  0.801  0.051  0.769- 227 1.02
  83  0.801  0.551  0.769- 228 1.02
  84  0.079  0.171  0.743- 213 1.02
  85  0.079  0.671  0.743- 214 1.02
  86  0.579  0.171  0.743- 215 1.02
  87  0.579  0.671  0.743- 216 1.02
  88  0.171  0.421  0.743- 217 1.02
  89  0.171  0.921  0.743- 218 1.02
  90  0.671  0.421  0.743- 219 1.02
  91  0.671  0.921  0.743- 220 1.02
  92  0.051  0.199  0.769- 213 1.02
  93  0.051  0.699  0.769- 214 1.02
  94  0.551  0.199  0.769- 215 1.02
  95  0.551  0.699  0.769- 216 1.02
  96  0.199  0.449  0.769- 217 1.02
  97  0.199  0.949  0.769- 218 1.02
  98  0.699  0.449  0.769- 219 1.02
  99  0.699  0.949  0.769- 220 1.02
 100  0.421  0.329  0.743- 221 1.02
 101  0.421  0.829  0.743- 222 1.02
 102  0.921  0.329  0.743- 223 1.02
 103  0.921  0.829  0.743- 224 1.02
 104  0.329  0.079  0.743- 225 1.02
 105  0.329  0.579  0.743- 226 1.02
 106  0.829  0.079  0.743- 227 1.02
 107  0.829  0.579  0.743- 228 1.02
 108  0.000  0.250  0.726- 161 1.09
 109  0.000  0.750  0.726- 162 1.09
 110  0.500  0.250  0.726- 159 1.09
 111  0.500  0.750  0.726- 160 1.09
 112  0.250  0.000  0.726- 163 1.09
 113  0.250  0.500  0.726- 164 1.09
 114  0.750  0.000  0.726- 165 1.09
 115  0.750  0.500  0.726- 166 1.09
 116  0.776  0.557  0.520- 173 1.11
 117  0.721  0.478  0.525- 173 1.10
 118  0.869  0.501  0.540- 174 1.10
 119  0.858  0.481  0.567- 174 1.10
 120  0.744  0.642  0.560- 175 1.10
 121  0.810  0.596  0.577- 175 1.10
 122  0.666  0.549  0.569- 176 1.10
 123  0.679  0.455  0.561- 176 1.10
 124  0.617  0.557  0.537- 177 1.10
 125  0.673  0.637  0.535- 177 1.09
 126  0.606  0.646  0.504- 178 1.10
 127  0.687  0.602  0.495- 178 1.11
 128  0.785  0.391  0.530- 179 1.10
 129  0.779  0.370  0.558- 179 1.10
 130  0.866  0.368  0.545- 179 1.10
 131  0.863  0.695  0.554- 180 1.10
 132  0.844  0.647  0.530- 180 1.10
 133  0.908  0.610  0.549- 180 1.10
 134  0.766  0.529  0.598- 181 1.10
 135  0.772  0.435  0.589- 181 1.09
 136  0.689  0.469  0.600- 181 1.09
 137  0.536  0.530  0.504- 182 1.10
 138  0.576  0.548  0.478- 182 1.10
 139  0.698  0.479  0.469- 168 1.08
 140  0.558  0.415  0.522- 169 1.10
 141  0.763  0.359  0.471- 170 1.09
 142  0.624  0.294  0.524- 171 1.09
 143  0.728  0.266  0.499- 172 1.09
 144  0.019  0.255  0.558-  31 1.09 189 1.31 183 1.32
 145  0.036  0.761  0.561-  32 1.10 184 1.31 190 1.32
 146  0.465  0.228  0.554-  29 1.10 185 1.31 187 1.32
 147  0.499  0.757  0.555-  30 1.09 186 1.31 188 1.31
 148  0.240  0.533  0.559-  33 1.09 195 1.31 191 1.32
 149  0.251  0.012  0.556-  34 1.09 192 1.31 194 1.32
 150  0.773  0.981  0.560-  35 1.09 196 1.31 193 1.32
 151  0.011  0.244  0.649-  68 1.09 197 1.30 207 1.32
 152  0.009  0.759  0.652-  69 1.09 198 1.30 208 1.32
 153  0.486  0.231  0.653-  70 1.10 199 1.31 205 1.32
 154  0.499  0.754  0.649-  71 1.11 206 1.31 200 1.31
 155  0.255  0.494  0.649-  73 1.09 210 1.31 201 1.31
 156  0.254  1.000  0.647-  72 1.09 202 1.31 209 1.32
 157  0.775  0.486  0.655-  75 1.09 203 1.31 212 1.32
 158  0.755  1.000  0.649-  74 1.09 204 1.31 211 1.32
 159  0.500  0.250  0.743- 110 1.09 221 1.31 215 1.31
 160  0.500  0.750  0.743- 111 1.09 222 1.31 216 1.31
 161  1.000  0.250  0.743- 108 1.09 223 1.31 213 1.31
 162  1.000  0.750  0.743- 109 1.09 224 1.31 214 1.31
 163  0.250  0.000  0.743- 112 1.09 225 1.31 218 1.31
 164  0.250  0.500  0.743- 113 1.09 226 1.31 217 1.31
 165  0.750  0.000  0.743- 114 1.09 227 1.31 220 1.31
 166  0.750  0.500  0.743- 115 1.09 228 1.31 219 1.31
 167  0.625  0.456  0.495- 168 1.40 169 1.41 182 1.51
 168  0.682  0.439  0.481- 139 1.08 167 1.40 170 1.40
 169  0.604  0.402  0.511- 140 1.10 171 1.40 167 1.41
 170  0.719  0.371  0.483- 141 1.09 172 1.40 168 1.40
 171  0.640  0.334  0.512- 142 1.09 169 1.40 172 1.40
 172  0.699  0.319  0.498- 143 1.09 170 1.40 171 1.40
 173  0.732  0.535  0.530- 117 1.10 116 1.11 229 1.52 177 1.52
 174  0.831  0.478  0.551- 118 1.10 119 1.10 179 1.52 229 1.52
 175  0.792  0.605  0.560- 121 1.10 120 1.10 229 1.51 180 1.52
 176  0.706  0.503  0.568- 123 1.10 122 1.10 181 1.52 229 1.53
 177  0.663  0.583  0.528- 125 1.09 124 1.10 173 1.52 178 1.54
 178  0.638  0.594  0.505- 126 1.10 127 1.11 177 1.54 182 1.55
 179  0.813  0.398  0.546- 128 1.10 129 1.10 130 1.10 174 1.52
 180  0.855  0.640  0.547- 133 1.10 131 1.10 132 1.10 175 1.52
 181  0.736  0.483  0.590- 135 1.09 136 1.09 134 1.10 176 1.52
 182  0.589  0.532  0.495- 137 1.10 138 1.10 167 1.51 178 1.55
 183  0.996  0.192  0.566-  15 1.02   8 1.03 144 1.32
 184  0.032  0.699  0.572-   9 1.02  16 1.03 145 1.31
 185  0.535  0.218  0.558-  10 1.02  17 1.02 146 1.31
 186  0.472  0.696  0.564-  11 1.02  18 1.03 147 1.31
 187  0.427  0.289  0.558-   1 1.01  22 1.03 146 1.32
 188  0.469  0.823  0.558-  23 1.02   2 1.03 147 1.31
 189  0.995  0.320  0.564-  24 1.03   3 1.04 144 1.31
 190  0.987  0.814  0.562-  25 1.02   4 1.03 145 1.32
 191  0.237  0.463  0.565-  26 1.02  19 1.03 148 1.32
 192  0.191  0.974  0.561-  27 1.02  20 1.03 149 1.31
 193  0.701  0.988  0.563-  28 1.01  21 1.02 150 1.32
 194  0.318  0.995  0.563-  12 1.01   5 1.04 149 1.32
 195  0.301  0.573  0.558-  13 1.02   6 1.04 148 1.31
 196  0.822  0.033  0.564-  14 1.02   7 1.04 150 1.31
 197  0.055  0.192  0.656-  44 1.03  52 1.03 151 1.30
 198  0.061  0.713  0.657-  53 1.03  45 1.03 152 1.30
 199  0.557  0.216  0.654-  46 1.03  54 1.03 153 1.31
 200  0.533  0.700  0.659-  55 1.01  47 1.02 154 1.31
 201  0.209  0.448  0.658-  56 1.01  48 1.02 155 1.31
 202  0.209  0.956  0.657-  49 1.01  57 1.02 156 1.31
 203  0.711  0.459  0.661-  58 1.02  50 1.02 157 1.31
 204  0.706  0.959  0.659-  59 1.02  51 1.02 158 1.31
 205  0.455  0.295  0.659-  36 1.01  60 1.03 153 1.32
 206  0.459  0.807  0.658-  61 1.02  37 1.02 154 1.31
 207  0.969  0.287  0.661-  38 1.02  62 1.02 151 1.32
 208  0.943  0.762  0.661-  63 1.02  39 1.03 152 1.32
 209  0.302  0.047  0.655-  40 1.01  64 1.02 156 1.32
 210  0.298  0.542  0.659-  41 1.02  65 1.02 155 1.31
 211  0.800  0.047  0.659-  42 1.01  66 1.02 158 1.32
 212  0.792  0.557  0.655-  67 1.01  43 1.03 157 1.32
 213  0.046  0.204  0.753-  92 1.02  84 1.02 161 1.31
 214  0.046  0.704  0.753-  93 1.02  85 1.02 162 1.31
 215  0.546  0.204  0.753-  94 1.02  86 1.02 159 1.31
 216  0.546  0.704  0.753-  95 1.02  87 1.02 160 1.31
 217  0.204  0.454  0.753-  96 1.02  88 1.02 164 1.31
 218  0.204  0.954  0.753-  97 1.02  89 1.02 163 1.31
 219  0.704  0.454  0.753-  98 1.02  90 1.02 166 1.31
 220  0.704  0.954  0.753-  99 1.02  91 1.02 165 1.31
 221  0.454  0.296  0.753-  76 1.02 100 1.02 159 1.31
 222  0.454  0.796  0.753-  77 1.02 101 1.02 160 1.31
 223  0.954  0.296  0.753-  78 1.02 102 1.02 161 1.31
 224  0.954  0.796  0.753-  79 1.02 103 1.02 162 1.31
 225  0.296  0.046  0.753-  80 1.02 104 1.02 163 1.31
 226  0.296  0.546  0.753-  81 1.02 105 1.02 164 1.31
 227  0.796  0.046  0.753-  82 1.02 106 1.02 165 1.31
 228  0.796  0.546  0.753-  83 1.02 107 1.02 166 1.31
 229  0.765  0.530  0.552- 175 1.51 173 1.52 174 1.52 176 1.53
 230  0.510  0.017  0.551- 304 3.24
 231  0.479  0.498  0.555- 305 3.14
 232  0.006  0.005  0.549- 302 3.52
 233  0.039  0.505  0.553- 303 3.28
 234  0.235  0.243  0.552- 306 3.16
 235  0.256  0.765  0.553- 307 3.17
 236  0.736  0.202  0.555- 308 3.10
 237  0.703  0.792  0.554- 309 3.22
 238  1.000  0.984  0.654- 302 3.06 310 3.19
 239  0.996  0.503  0.655- 311 3.11 303 3.13
 240  0.501  0.013  0.654- 304 3.18 312 3.18
 241  0.512  0.489  0.655- 313 3.10 305 3.17
 242  0.261  0.246  0.654- 314 3.17 306 3.24
 243  0.261  0.753  0.655- 315 3.15 307 3.18
 244  0.752  0.263  0.654- 316 3.16 308 3.24
 245  0.743  0.751  0.655- 317 3.14 309 3.21
 246  0.135  0.111  0.607- 306 3.17 302 3.20
 247  0.152  0.603  0.609- 307 3.14 303 3.20
 248  0.649  0.105  0.611- 308 3.10 304 3.19
 249  0.616  0.630  0.610- 309 3.19 305 3.30
 250  0.361  0.385  0.606- 305 3.14 306 3.25
 251  0.373  0.881  0.607- 304 3.28 307 3.31
 252  0.891  0.365  0.610- 303 3.25 308 3.47
 253  0.872  0.876  0.605- 302 3.19 309 3.25
 254  0.125  0.368  0.609- 306 3.15 303 3.22
 255  0.123  0.866  0.608- 307 3.20 302 3.26
 256  0.590  0.336  0.602- 308 3.19 305 3.29
 257  0.618  0.872  0.612- 309 3.08 304 3.27
 258  0.385  0.133  0.604- 304 3.11 306 3.22
 259  0.386  0.630  0.611- 305 3.22 307 3.23
 260  0.886  0.132  0.612- 302 3.21 308 3.36
 261  0.899  0.642  0.611- 303 3.23 309 3.58
 262  0.000  0.000  0.755- 310 3.13 318 3.27
 263  0.000  0.500  0.755- 311 3.13 319 3.27
 264  0.500  0.000  0.755- 312 3.13 320 3.27
 265  0.500  0.500  0.755- 313 3.13 321 3.27
 266  0.250  0.250  0.755- 314 3.13 322 3.27
 267  0.250  0.750  0.755- 315 3.13 323 3.27
 268  0.750  0.250  0.755- 316 3.13 324 3.27
 269  0.750  0.750  0.755- 317 3.13 325 3.27
 270  0.136  0.114  0.705- 310 3.20 314 3.20
 271  0.136  0.614  0.705- 311 3.20 315 3.20
 272  0.636  0.114  0.705- 312 3.20 316 3.20
 273  0.636  0.614  0.705- 313 3.20 317 3.20
 274  0.364  0.386  0.705- 313 3.20 314 3.20
 275  0.364  0.886  0.705- 312 3.20 315 3.20
 276  0.864  0.386  0.705- 311 3.20 316 3.20
 277  0.864  0.886  0.705- 310 3.20 317 3.20
 278  0.114  0.364  0.705- 314 3.21 311 3.21
 279  0.114  0.864  0.705- 315 3.21 310 3.21
 280  0.614  0.364  0.705- 316 3.21 313 3.21
 281  0.614  0.864  0.705- 317 3.21 312 3.21
 282  0.386  0.136  0.705- 314 3.21 312 3.21
 283  0.386  0.636  0.705- 315 3.21 313 3.21
 284  0.886  0.136  0.705- 316 3.21 310 3.21
 285  0.886  0.636  0.705- 317 3.21 311 3.21
 286  0.135  0.115  0.801- 318 3.22 322 3.22
 287  0.135  0.615  0.801- 319 3.22 323 3.22
 288  0.635  0.115  0.801- 320 3.22 324 3.22
 289  0.635  0.615  0.801- 321 3.22 325 3.22
 290  0.365  0.385  0.801- 321 3.22 322 3.22
 291  0.365  0.885  0.801- 320 3.22 323 3.22
 292  0.865  0.385  0.801- 319 3.22 324 3.22
 293  0.865  0.885  0.801- 318 3.22 325 3.22
 294  0.115  0.365  0.801- 319 3.23 322 3.23
 295  0.115  0.865  0.801- 318 3.23 323 3.23
 296  0.615  0.365  0.801- 321 3.23 324 3.23
 297  0.615  0.865  0.801- 320 3.23 325 3.23
 298  0.385  0.135  0.801- 320 3.23 322 3.23
 299  0.385  0.635  0.801- 321 3.23 323 3.23
 300  0.885  0.135  0.801- 318 3.23 324 3.23
 301  0.885  0.635  0.801- 319 3.23 325 3.23
 302  1.000  0.998  0.605- 238 3.06 253 3.19 246 3.20 260 3.21 255 3.26 232 3.52
 303  0.007  0.502  0.605- 239 3.13 247 3.20 254 3.22 261 3.23 252 3.25 233 3.28
 304  0.503  0.008  0.603- 258 3.11 240 3.18 248 3.19 230 3.24 257 3.27 251 3.28
 305  0.498  0.492  0.605- 231 3.14 250 3.14 241 3.17 259 3.22 256 3.29 249 3.30
 306  0.247  0.246  0.602- 254 3.15 234 3.16 246 3.17 258 3.22 242 3.24 250 3.25
 307  0.251  0.745  0.604- 247 3.14 235 3.17 243 3.18 255 3.20 259 3.23 251 3.31
 308  0.743  0.246  0.603- 236 3.10 248 3.10 256 3.19 244 3.24 260 3.36 252 3.47
 309  0.738  0.755  0.603- 257 3.08 249 3.19 245 3.21 237 3.22 253 3.25 261 3.58
 310  0.000  0.000  0.705- 262 3.13 238 3.19 270 3.20 277 3.20 279 3.21 284 3.21
 311  0.000  0.500  0.705- 239 3.11 263 3.13 271 3.20 276 3.20 278 3.21 285 3.21
 312  0.500  0.000  0.705- 264 3.13 240 3.18 272 3.20 275 3.20 281 3.21 282 3.21
 313  0.500  0.500  0.705- 241 3.10 265 3.13 273 3.20 274 3.20 280 3.21 283 3.21
 314  0.250  0.250  0.705- 266 3.13 242 3.17 270 3.20 274 3.20 282 3.21 278 3.21
 315  0.250  0.750  0.705- 267 3.13 243 3.15 271 3.20 275 3.20 283 3.21 279 3.21
 316  0.750  0.250  0.705- 268 3.13 244 3.16 272 3.20 276 3.20 284 3.21 280 3.21
 317  0.750  0.750  0.705- 269 3.13 245 3.14 273 3.20 277 3.20 285 3.21 281 3.21
 318  0.000  0.000  0.807- 286 3.22 293 3.22 300 3.23 295 3.23 262 3.27
 319  0.000  0.500  0.807- 287 3.22 292 3.22 301 3.23 294 3.23 263 3.27
 320  0.500  0.000  0.807- 288 3.22 291 3.22 298 3.23 297 3.23 264 3.27
 321  0.500  0.500  0.807- 289 3.22 290 3.22 299 3.23 296 3.23 265 3.27
 322  0.250  0.250  0.807- 290 3.22 286 3.22 294 3.23 298 3.23 266 3.27
 323  0.250  0.750  0.807- 291 3.22 287 3.22 299 3.23 295 3.23 267 3.27
 324  0.750  0.250  0.807- 292 3.22 288 3.22 296 3.23 300 3.23 268 3.27
 325  0.750  0.750  0.807- 293 3.22 289 3.22 297 3.23 301 3.23 269 3.27
 

IMPORTANT INFORMATION: All symmetrisations will be switched off!
NOSYMM: (Re-)initialisation of all symmetry stuff for point group C_1.


----------------------------------------------------------------------------------------

                                     Primitive cell                                     

  volume of cell :   20385.2105

  direct lattice vectors                    reciprocal lattice vectors
    18.060800552  0.000000000  0.000000000     0.055368531  0.000015077 -0.000000000
    -0.004918649 18.062799454  0.000000000     0.000000000  0.055362404  0.000000000
     0.000000000  0.000000000 62.487499237     0.000000000 -0.000000000  0.016003201

  length of vectors
    18.060800552 18.062800123 62.487499237     0.055368533  0.055362404  0.016003201

  position of ions in fractional coordinates (direct lattice)
     0.449269693  0.333153452  0.565343361
     0.426162802  0.831325912  0.568534368
     0.960391088  0.326430166  0.576797923
     0.946306815  0.814707835  0.573410588
     0.326577302  0.952845025  0.573747813
     0.352800340  0.549460677  0.560767006
     0.805962861  0.086860556  0.568059847
     0.011805070  0.141899106  0.560133030
     0.068533550  0.657428864  0.569066640
     0.556595410  0.166313041  0.556315066
     0.496022229  0.645941879  0.561069496
     0.363528314  0.022697303  0.557878611
     0.297594000  0.627908031  0.554497381
     0.875964845  0.023866786  0.560137059
     0.957693786  0.189576487  0.578424469
     0.991337335  0.690127326  0.583143858
     0.564571212  0.255445766  0.567142183
     0.430844414  0.695400021  0.575403540
     0.280654349  0.436115308  0.572152157
     0.192649673  0.928650056  0.571096099
     0.678292967  0.034118648  0.569876983
     0.370647155  0.288999366  0.554370036
     0.494967206  0.869078434  0.552268236
     0.018012127  0.368363976  0.557723612
     0.995964448  0.864013920  0.554315399
     0.186692154  0.438730299  0.566539768
     0.139242338  0.991543662  0.556960520
     0.668918340  0.941860193  0.561794983
     0.434731706  0.181691613  0.546668422
     0.548380697  0.752396567  0.545503883
     0.061092226  0.251674294  0.545232222
     0.082945392  0.766630669  0.549788675
     0.188179050  0.559771751  0.555059810
     0.243596557  0.061428471  0.546400669
     0.792991474  0.927345431  0.555067563
     0.485394101  0.338860804  0.663626325
     0.448872912  0.811614418  0.673614834
     0.966288675  0.282302770  0.677163029
     0.927563050  0.724993292  0.673157955
     0.308792295  0.054512143  0.670831990
     0.298596943  0.549160522  0.675091814
     0.801030414  0.056750984  0.674555635
     0.754835314  0.598394485  0.659003574
     0.084858174  0.161985741  0.644797058
     0.113094896  0.718202135  0.650225329
     0.575890649  0.165264663  0.649887859
     0.562863672  0.662887354  0.650832079
     0.179360004  0.413058762  0.648454101
     0.175326887  0.921421502  0.649082095
     0.704838962  0.402950906  0.661521839
     0.673556000  0.924323522  0.649879129
     0.062850689  0.178964770  0.671701609
     0.057694225  0.674594717  0.669121931
     0.596189314  0.253989500  0.659136169
     0.530677094  0.695199707  0.675574271
     0.199732293  0.444884003  0.674041311
     0.207209079  0.952898358  0.673609645
     0.667710354  0.490957971  0.665720249
     0.696457569  0.960914851  0.674947254
     0.398767845  0.299092228  0.658451767
     0.435009448  0.844872113  0.647814629
     0.937202484  0.326118818  0.653651795
     0.902968491  0.796173307  0.655696760
     0.332667132  0.078279372  0.644733447
     0.331176698  0.575795854  0.649994326
     0.836821646  0.076281349  0.649348750
     0.841703513  0.574652625  0.649782613
     0.009280742  0.253423377  0.631679627
     0.020567565  0.799520681  0.639516522
     0.448760199  0.186017645  0.648345742
     0.505832534  0.753694176  0.631526276
     0.250592391  0.996852568  0.629275704
     0.260113866  0.491922479  0.631604051
     0.760575857  0.992898122  0.631960934
     0.818369130  0.447773410  0.649914109
     0.448745018  0.301283966  0.768889017
     0.448745007  0.801283913  0.768889017
     0.948744965  0.301283966  0.768889017
     0.948745007  0.801283913  0.768889017
     0.301275995  0.051294496  0.768872961
     0.301276011  0.551294499  0.768872961
     0.801275943  0.051294496  0.768872961
     0.801275984  0.551294499  0.768872961
     0.078771004  0.171180501  0.743441971
     0.078771006  0.671180448  0.743441971
     0.578771004  0.171180501  0.743441971
     0.578770992  0.671180448  0.743441971
     0.171199499  0.421174482  0.743421032
     0.171199501  0.921174508  0.743421032
     0.671199512  0.421174482  0.743421032
     0.671199501  0.921174508  0.743421032
     0.051256000  0.198714991  0.768889017
     0.051256002  0.698714925  0.768889017
     0.551256027  0.198714991  0.768889017
     0.551256016  0.698714925  0.768889017
     0.198723491  0.448703970  0.768872046
     0.198723493  0.948703970  0.768872046
     0.698723518  0.448703970  0.768872046
     0.698723507  0.948703970  0.768872046
     0.421231519  0.328817467  0.743441971
     0.421231508  0.828817440  0.743441971
     0.921231466  0.328817467  0.743441971
     0.921231508  0.828817440  0.743441971
     0.328800503  0.078824997  0.743421032
     0.328800492  0.578824964  0.743421032
     0.828800477  0.078824997  0.743421032
     0.828800519  0.578824964  0.743421032
     0.000003500  0.250001478  0.725821992
     0.000003500  0.750001452  0.725821992
     0.500003506  0.250001478  0.725821992
     0.500003495  0.750001452  0.725821992
     0.250000502  0.000000000  0.725803983
     0.250000517  0.500000000  0.725803983
     0.750000502  0.000000000  0.725803983
     0.750000490  0.500000000  0.725803983
     0.776362557  0.557010854  0.519529755
     0.720646322  0.478123800  0.525146479
     0.869071899  0.501136101  0.539558663
     0.857904764  0.481058032  0.567121305
     0.744055978  0.641944829  0.560190597
     0.809502216  0.595577041  0.576598786
     0.665999614  0.548502821  0.569297643
     0.679022528  0.455343756  0.560532829
     0.617031796  0.557321674  0.536916533
     0.672613046  0.637299159  0.535244873
     0.606190837  0.645849536  0.503838140
     0.686914807  0.601914086  0.494606648
     0.785004291  0.391469201  0.530451067
     0.779247149  0.370247903  0.558195569
     0.865839447  0.368211021  0.544930526
     0.862998565  0.695116128  0.554084518
     0.843793312  0.647334841  0.530290330
     0.907815094  0.609784692  0.549377521
     0.766021018  0.529025959  0.597722823
     0.772151032  0.434593995  0.589416780
     0.689064973  0.468733148  0.600217097
     0.536184491  0.530346113  0.503758198
     0.576332896  0.547872944  0.478476744
     0.697990866  0.478941108  0.469363959
     0.558336764  0.414683506  0.521750780
     0.763427838  0.358797322  0.471450161
     0.623697274  0.294336580  0.524279850
     0.727871335  0.266239121  0.499359827
     0.019076975  0.254787669  0.557783194
     0.035658062  0.760575512  0.560730500
     0.464733131  0.227962107  0.554046546
     0.498513195  0.756694934  0.555350823
     0.240395060  0.532998089  0.559311637
     0.250558578  0.012102150  0.556330450
     0.773020724  0.981342384  0.560384728
     0.011103300  0.243861818  0.648902982
     0.008784629  0.759362696  0.652141606
     0.485804237  0.230905130  0.653451621
     0.499233153  0.753719677  0.649115427
     0.255491507  0.494192622  0.648992599
     0.253683594  0.999584558  0.646693922
     0.775318959  0.486282682  0.655121022
     0.755442358  0.999521699  0.649270243
     0.499988984  0.249994984  0.743277021
     0.499989025  0.749994958  0.743277021
     0.999988984  0.249994984  0.743277021
     0.999989025  0.749994958  0.743277021
     0.250000502  0.000001000  0.743255960
     0.250000517  0.500001003  0.743255960
     0.750000502  0.000001000  0.743255960
     0.750000491  0.500001003  0.743255960
     0.624566373  0.455865661  0.495459846
     0.682339508  0.438938031  0.481334096
     0.603815742  0.402357011  0.510715003
     0.718981433  0.370733668  0.482624424
     0.640442590  0.334439683  0.512122756
     0.698585791  0.318741447  0.498063516
     0.732015984  0.535332117  0.529979965
     0.830898018  0.477751682  0.551392146
     0.792273382  0.604929362  0.559993170
     0.706308877  0.503082171  0.568088905
     0.663040890  0.583076868  0.528158189
     0.637696742  0.593631816  0.504872587
     0.812832490  0.398027230  0.545945988
     0.855354840  0.639507053  0.547390124
     0.736234469  0.483015243  0.590035678
     0.588961219  0.531725506  0.495115783
     0.995690885  0.192233149  0.566290633
     0.031980092  0.699335984  0.571969320
     0.534993609  0.217782010  0.558425168
     0.471909577  0.696090034  0.563999526
     0.426857174  0.289328613  0.557508054
     0.469407425  0.822688894  0.558066332
     0.995259311  0.320354417  0.563747644
     0.986775158  0.814401133  0.561778989
     0.237359374  0.462578836  0.564724524
     0.191113167  0.974352222  0.561352878
     0.701162796  0.987509859  0.563367136
     0.317829297  0.994570702  0.562680353
     0.301001944  0.572852910  0.558197218
     0.821772386  0.033486217  0.563972665
     0.054655680  0.191842288  0.655740470
     0.061439761  0.713136670  0.657087419
     0.556706289  0.216306446  0.654476362
     0.532809703  0.700165648  0.659448060
     0.208746259  0.448247005  0.658101355
     0.209299226  0.955749546  0.657372755
     0.710730614  0.459144187  0.660576765
     0.705613043  0.959070112  0.658876534
     0.455384549  0.294741275  0.658609452
     0.459263276  0.806764421  0.657580193
     0.968764938  0.286501164  0.660892074
     0.943111195  0.761595933  0.661308112
     0.301611307  0.046675486  0.654891484
     0.297726010  0.542211024  0.658900404
     0.800201212  0.047342077  0.658605179
     0.791747263  0.557289309  0.655255449
     0.045862501  0.204119496  0.752725994
     0.045862500  0.704119456  0.752725994
     0.545862507  0.204119496  0.752725994
     0.545862496  0.704119456  0.752725994
     0.204119002  0.454101003  0.752704994
     0.204118991  0.954100951  0.752704994
     0.704118976  0.454101003  0.752704994
     0.704118964  0.954100951  0.752704994
     0.454140018  0.295888490  0.752726971
     0.454140007  0.795888516  0.752726971
     0.954140018  0.295888490  0.752726971
     0.954140060  0.795888516  0.752726971
     0.295882492  0.045900498  0.752704994
     0.295882481  0.545900528  0.752704994
     0.795882439  0.045900498  0.752704994
     0.795882481  0.545900528  0.752704994
     0.765013679  0.530361266  0.552273425
     0.509801268  0.016596953  0.551395137
     0.478556443  0.497773785  0.555009202
     0.006254422  0.004676131  0.548892805
     0.039161210  0.505375968  0.553425511
     0.234801449  0.242650560  0.552056707
     0.256351081  0.764707618  0.553330888
     0.736356097  0.201956744  0.555005600
     0.702610789  0.792393889  0.553947161
     0.999943169  0.983740613  0.653980108
     0.996062092  0.503008202  0.655067789
     0.501326202  0.013139823  0.654058859
     0.512300626  0.489329637  0.655427236
     0.261193970  0.246001181  0.654146157
     0.260778297  0.753205005  0.654510976
     0.751963979  0.262636338  0.654461100
     0.743414217  0.751349113  0.654640580
     0.135498175  0.111140458  0.607373679
     0.151838882  0.603244218  0.608747123
     0.648505313  0.104842325  0.610663888
     0.616381061  0.629507907  0.610369335
     0.360817297  0.384964444  0.605653548
     0.373127050  0.881051950  0.606528601
     0.891196803  0.364857416  0.610385756
     0.872039409  0.875550957  0.605455632
     0.124749775  0.368431821  0.609088622
     0.122541146  0.865654292  0.607565979
     0.590498244  0.336357058  0.601584802
     0.617745690  0.871772648  0.612225236
     0.384925326  0.133449533  0.604078526
     0.385911837  0.629742752  0.610969125
     0.886269501  0.132221327  0.611591503
     0.898758103  0.641889338  0.611377776
     0.000000000  0.000000000  0.754927972
     0.000000000  0.500000000  0.754927972
     0.500000000  0.000000000  0.754927972
     0.499999989  0.500000000  0.754927972
     0.250000496  0.250000000  0.754939022
     0.250000511  0.749999974  0.754939022
     0.750000470  0.250000000  0.754939022
     0.750000458  0.749999974  0.754939022
     0.135790500  0.114209997  0.704782994
     0.135790502  0.614209984  0.704782994
     0.635790447  0.114209997  0.704782994
     0.635790488  0.614209984  0.704782994
     0.364209516  0.385789989  0.704782994
     0.364209505  0.885789963  0.704782994
     0.864209542  0.385789989  0.704782994
     0.864209531  0.885789963  0.704782994
     0.114217990  0.364218986  0.704780979
     0.114217992  0.864218986  0.704780979
     0.614218004  0.364218986  0.704780979
     0.614217992  0.864218986  0.704780979
     0.385782012  0.135781489  0.704782017
     0.385782001  0.635781489  0.704782017
     0.885781985  0.135781489  0.704782017
     0.885782027  0.635781489  0.704782017
     0.134667000  0.115332001  0.801256025
     0.134666989  0.615331988  0.801256025
     0.634666987  0.115332001  0.801256025
     0.634666976  0.615331988  0.801256025
     0.365333002  0.384667985  0.801256025
     0.365332990  0.884667959  0.801256025
     0.865332949  0.384667985  0.801256025
     0.865332938  0.884667959  0.801256025
     0.115328503  0.365337004  0.801264999
     0.115328505  0.865336978  0.801264999
     0.615328503  0.365337004  0.801264999
     0.615328492  0.865336978  0.801264999
     0.384671513  0.134662996  0.801264999
     0.384671501  0.634662970  0.801264999
     0.884671486  0.134662996  0.801264999
     0.884671528  0.634662970  0.801264999
     0.999736325  0.997526290  0.605192152
     0.007071835  0.501510331  0.605109738
     0.502936350  0.007939176  0.603211348
     0.497521565  0.492304207  0.604872203
     0.246963145  0.245979957  0.602445387
     0.251288707  0.744767510  0.603737271
     0.742512020  0.246089380  0.602882180
     0.738342507  0.755291782  0.603277462
     0.000000500  0.000000500  0.704828963
     0.000000500  0.500000475  0.704828963
     0.500000475  0.000000500  0.704828963
     0.500000464  0.500000475  0.704828963
     0.249999994  0.249999472  0.704824995
     0.250000010  0.749999498  0.704824995
     0.749999994  0.249999472  0.704824995
     0.749999983  0.749999498  0.704824995
     0.000000000  0.000000000  0.807317968
     0.000000000  0.500000000  0.807317968
     0.500000000  0.000000000  0.807317968
     0.499999989  0.500000000  0.807317968
     0.249999994  0.250000000  0.807317968
     0.250000010  0.749999974  0.807317968
     0.749999994  0.250000000  0.807317968
     0.749999983  0.749999974  0.807317968

  ion indices of the primitive-cell ions
   primitive index   ion index
                 1           1
                 2           2
                 3           3
                 4           4
                 5           5
                 6           6
                 7           7
                 8           8
                 9           9
                10          10
                11          11
                12          12
                13          13
                14          14
                15          15
                16          16
                17          17
                18          18
                19          19
                20          20
                21          21
                22          22
                23          23
                24          24
                25          25
                26          26
                27          27
                28          28
                29          29
                30          30
                31          31
                32          32
                33          33
                34          34
                35          35
                36          36
                37          37
                38          38
                39          39
                40          40
                41          41
                42          42
                43          43
                44          44
                45          45
                46          46
                47          47
                48          48
                49          49
                50          50
                51          51
                52          52
                53          53
                54          54
                55          55
                56          56
                57          57
                58          58
                59          59
                60          60
                61          61
                62          62
                63          63
                64          64
                65          65
                66          66
                67          67
                68          68
                69          69
                70          70
                71          71
                72          72
                73          73
                74          74
                75          75
                76          76
                77          77
                78          78
                79          79
                80          80
                81          81
                82          82
                83          83
                84          84
                85          85
                86          86
                87          87
                88          88
                89          89
                90          90
                91          91
                92          92
                93          93
                94          94
                95          95
                96          96
                97          97
                98          98
                99          99
               100         100
               101         101
               102         102
               103         103
               104         104
               105         105
               106         106
               107         107
               108         108
               109         109
               110         110
               111         111
               112         112
               113         113
               114         114
               115         115
               116         116
               117         117
               118         118
               119         119
               120         120
               121         121
               122         122
               123         123
               124         124
               125         125
               126         126
               127         127
               128         128
               129         129
               130         130
               131         131
               132         132
               133         133
               134         134
               135         135
               136         136
               137         137
               138         138
               139         139
               140         140
               141         141
               142         142
               143         143
               144         144
               145         145
               146         146
               147         147
               148         148
               149         149
               150         150
               151         151
               152         152
               153         153
               154         154
               155         155
               156         156
               157         157
               158         158
               159         159
               160         160
               161         161
               162         162
               163         163
               164         164
               165         165
               166         166
               167         167
               168         168
               169         169
               170         170
               171         171
               172         172
               173         173
               174         174
               175         175
               176         176
               177         177
               178         178
               179         179
               180         180
               181         181
               182         182
               183         183
               184         184
               185         185
               186         186
               187         187
               188         188
               189         189
               190         190
               191         191
               192         192
               193         193
               194         194
               195         195
               196         196
               197         197
               198         198
               199         199
               200         200
               201         201
               202         202
               203         203
               204         204
               205         205
               206         206
               207         207
               208         208
               209         209
               210         210
               211         211
               212         212
               213         213
               214         214
               215         215
               216         216
               217         217
               218         218
               219         219
               220         220
               221         221
               222         222
               223         223
               224         224
               225         225
               226         226
               227         227
               228         228
               229         229
               230         230
               231         231
               232         232
               233         233
               234         234
               235         235
               236         236
               237         237
               238         238
               239         239
               240         240
               241         241
               242         242
               243         243
               244         244
               245         245
               246         246
               247         247
               248         248
               249         249
               250         250
               251         251
               252         252
               253         253
               254         254
               255         255
               256         256
               257         257
               258         258
               259         259
               260         260
               261         261
               262         262
               263         263
               264         264
               265         265
               266         266
               267         267
               268         268
               269         269
               270         270
               271         271
               272         272
               273         273
               274         274
               275         275
               276         276
               277         277
               278         278
               279         279
               280         280
               281         281
               282         282
               283         283
               284         284
               285         285
               286         286
               287         287
               288         288
               289         289
               290         290
               291         291
               292         292
               293         293
               294         294
               295         295
               296         296
               297         297
               298         298
               299         299
               300         300
               301         301
               302         302
               303         303
               304         304
               305         305
               306         306
               307         307
               308         308
               309         309
               310         310
               311         311
               312         312
               313         313
               314         314
               315         315
               316         316
               317         317
               318         318
               319         319
               320         320
               321         321
               322         322
               323         323
               324         324
               325         325

----------------------------------------------------------------------------------------

 
 
 KPOINTS: Automatic Mesh                          

Automatic generation of k-mesh.
 Grid dimensions read from file:
 generate k-points for:    3    3    1

 Generating k-lattice:

  Cartesian coordinates                     Fractional coordinates (reciprocal lattice)
     0.018456177  0.000005026 -0.000000000     0.333333333  0.000000000  0.000000000
     0.000000000  0.018454135  0.000000000     0.000000000  0.333333333  0.000000000
     0.000000000 -0.000000000  0.016003201     0.000000000  0.000000000  1.000000000

  Length of vectors
     0.018456178  0.018454135  0.016003201

  Shift w.r.t. Gamma in fractional coordinates (k-lattice)
     0.000000000  0.000000000  0.000000000

 
 Subroutine IBZKPT returns following result:
 ===========================================
 
 Found      5 irreducible k-points:
 
 Following reciprocal coordinates:
            Coordinates               Weight
  0.000000  0.000000  0.000000      1.000000
  0.333333  0.000000  0.000000      2.000000
  0.000000  0.333333  0.000000      2.000000
  0.333333  0.333333  0.000000      2.000000
 -0.333333  0.333333  0.000000      2.000000
 
 Following cartesian coordinates:
            Coordinates               Weight
  0.000000  0.000000  0.000000      1.000000
  0.018456  0.000005  0.000000      2.000000
  0.000000  0.018454  0.000000      2.000000
  0.018456  0.018459  0.000000      2.000000
 -0.018456  0.018449  0.000000      2.000000
 


--------------------------------------------------------------------------------------------------------




 Dimension of arrays:
   k-points           NKPTS =      5   k-points in BZ     NKDIM =      5   number of bands    NBANDS=    732
   number of dos      NEDOS =    301   number of ions     NIONS =    325
   non local maximal  LDIM  =      5   non local SUM 2l+1 LMDIM =     13
   total plane-waves  NPLWV = ******
   max r-space proj   IRMAX =   3336   max aug-charges    IRDMAX=  19845
   dimension x,y,z NGX =   100 NGY =  100 NGZ =  350
   dimension x,y,z NGXF=   200 NGYF=  200 NGZF=  700
   support grid    NGXF=   200 NGYF=  200 NGZF=  700
   ions per type =             143  39  47  72  24
   NGX,Y,Z   is equivalent  to a cutoff of   9.20,  9.20,  9.31 a.u.
   NGXF,Y,Z  is equivalent  to a cutoff of  18.41, 18.41, 18.62 a.u.

 SYSTEM =  PSC                                     
 POSCAR =   H  C  N  I Pb                          

 Startparameter for this run:
   NWRITE =      2    write-flag & timer
   PREC   = normal    normal or accurate (medium, high low for compatibility)
   ISTART =      0    job   : 0-new  1-cont  2-samecut
   ICHARG =      1    charge: 1-file 2-atom 10-const
   ISPIN  =      1    spin polarized calculation?
   LNONCOLLINEAR =      F non collinear calculations
   LSORBIT =      F    spin-orbit coupling
   INIWAV =      1    electr: 0-lowe 1-rand  2-diag
   LASPH  =      F    aspherical Exc in radial PAW
 Electronic Relaxation 1
   ENCUT  =  500.0 eV  36.75 Ry    6.06 a.u.  32.93 32.93113.93*2*pi/ulx,y,z
   ENINI  =  500.0     initial cutoff
   ENAUG  =  644.9 eV  augmentation charge cutoff
   NELM   =    600;   NELMIN=  2; NELMDL=  0     # of ELM steps 
   EDIFF  = 0.1E-03   stopping-criterion for ELM
   LREAL  =      T    real-space projection
   NLSPLINE    = F    spline interpolate recip. space projectors
   LCOMPAT=      F    compatible to vasp.4.4
   GGA_COMPAT  = F    GGA compatible to vasp.4.4-vasp.4.6
   LMAXPAW     = -100 max onsite density
   LMAXMIX     =    2 max onsite mixed and CHGCAR
   VOSKOWN=      0    Vosko Wilk Nusair interpolation
   ROPT   =   -0.00050  -0.00050  -0.00050  -0.00050
   ROPT   =   -0.00050
 Ionic relaxation
   EDIFFG = 0.1E-02   stopping-criterion for IOM
   NSW    =      0    number of steps for IOM
   NBLOCK =      1;   KBLOCK =      1    inner block; outer block 
   IBRION =     -1    ionic relax: 0-MD 1-quasi-New 2-CG
   NFREE  =      0    steps in history (QN), initial steepest desc. (CG)
   ISIF   =      2    stress and relaxation
   IWAVPR =     10    prediction:  0-non 1-charg 2-wave 3-comb
   ISYM   =      0    0-nonsym 1-usesym 2-fastsym
   LCORR  =      T    Harris-Foulkes like correction to forces

   POTIM  = 0.5000    time-step for ionic-motion
   TEIN   =    0.0    initial temperature
   TEBEG  =    0.0;   TEEND  =   0.0 temperature during run
   SMASS  =  -3.00    Nose mass-parameter (am)
   estimated Nose-frequenzy (Omega)   =  0.10E-29 period in steps = 0.13E+47 mass=  -0.745E-26a.u.
   SCALEE = 1.0000    scale energy and forces
   NPACO  =    256;   APACO  = 16.0  distance and # of slots for P.C.
   PSTRESS=    0.0 pullay stress

  Mass of Ions in am
   POMASS =   1.00 12.01 14.00126.90207.20
  Ionic Valenz
   ZVAL   =   1.00  4.00  5.00  7.00  4.00
  Atomic Wigner-Seitz radii
   RWIGS  =  -1.00 -1.00 -1.00 -1.00 -1.00
  virtual crystal weights 
   VCA    =   1.00  1.00  1.00  1.00  1.00
   NELECT =    1134.0000    total number of electrons
   NUPDOWN=      -1.0000    fix difference up-down

 DOS related values:
   EMIN   =  10.00;   EMAX   =-10.00  energy-range for DOS
   EFERMI =   0.00
   ISMEAR =     0;   SIGMA  =   0.05  broadening in eV -4-tet -1-fermi 0-gaus

 Electronic relaxation 2 (details)
   IALGO  =     38    algorithm
   LDIAG  =      T    sub-space diagonalisation (order eigenvalues)
   LSUBROT=      F    optimize rotation matrix (better conditioning)
   TURBO    =      0    0=normal 1=particle mesh
   IRESTART =      0    0=no restart 2=restart with 2 vectors
   NREBOOT  =      0    no. of reboots
   NMIN     =      0    reboot dimension
   EREF     =   0.00    reference energy to select bands
   IMIX   =      4    mixing-type and parameters
     AMIX     =   0.40;   BMIX     =  0.01
     AMIX_MAG =   1.60;   BMIX_MAG =  0.01
     AMIN     =   0.01
     WC   =   100.;   INIMIX=   1;  MIXPRE=   1;  MAXMIX= -45

 Intra band minimization:
   WEIMIN = 0.0000     energy-eigenvalue tresh-hold
   EBREAK =  0.34E-07  absolut break condition
   DEPER  =   0.30     relativ break condition  

   TIME   =   0.40     timestep for ELM

  volume/ion in A,a.u.               =      62.72       423.28
  Fermi-wavevector in a.u.,A,eV,Ry     =   0.624944  1.180972  5.313816  0.390554
  Thomas-Fermi vector in A             =   1.685677
 
 Write flags
   LWAVE        =      F    write WAVECAR
   LDOWNSAMPLE  =      F    k-point downsampling of WAVECAR
   LCHARG       =      T    write CHGCAR
   LVTOT        =      T    write LOCPOT, total local potential
   LVHAR        =      F    write LOCPOT, Hartree potential only
   LELF         =      F    write electronic localiz. function (ELF)
   LORBIT       =      0    0 simple, 1 ext, 2 COOP (PROOUT), +10 PAW based schemes


 Dipole corrections
   LMONO  =      F    monopole corrections only (constant potential shift)
   LDIPOL =      T    correct potential (dipole corrections)
   IDIPOL =      3    1-x, 2-y, 3-z, 4-all directions 
   EPSILON=  1.0000000 bulk dielectric constant

 Exchange correlation treatment:
   GGA     =    --    GGA type
   LEXCH   =     8    internal setting for exchange type
   VOSKOWN=      0    Vosko Wilk Nusair interpolation
   LHFCALC =     F    Hartree Fock is set to
   LHFONE  =     F    Hartree Fock one center treatment
   AEXX    =    0.0000 exact exchange contribution

 Linear response parameters
   LEPSILON=     F    determine dielectric tensor
   LRPA    =     F    only Hartree local field effects (RPA)
   LNABLA  =     F    use nabla operator in PAW spheres
   LVEL    =     F    velocity operator in full k-point grid
   LINTERFAST=   F  fast interpolation
   KINTER  =     0    interpolate to denser k-point grid
   CSHIFT  =0.1000    complex shift for real part using Kramers Kronig
   OMEGAMAX=  -1.0    maximum frequency
   DEG_THRESHOLD= 0.2000000E-02 threshold for treating states as degnerate
   RTIME   =   -0.100 relaxation time in fs
  (WPLASMAI=    0.000 imaginary part of plasma frequency in eV, 0.658/RTIME)
   DFIELD  = 0.0000000 0.0000000 0.0000000 field for delta impulse in time
 
 Orbital magnetization related:
   ORBITALMAG=     F  switch on orbital magnetization
   LCHIMAG   =     F  perturbation theory with respect to B field
   DQ        =  0.001000  dq finite difference perturbation B field
   LLRAUG    =     F  two centre corrections for induced B field



--------------------------------------------------------------------------------------------------------


 Static calculation
 charge density and potential will be updated during run
 non-spin polarized calculation
 Variant of blocked Davidson
 Davidson routine will perform the subspace rotation
 perform sub-space diagonalisation
    after iterative eigenvector-optimisation
 modified Broyden-mixing scheme, WC =      100.0
 initial mixing is a Kerker type mixing with AMIX =  0.4000 and BMIX =      0.0100
 Hartree-type preconditioning will be used
 using additional bands           165
 real space projection scheme for non local part
[...]
     13.54561      0.00000     45.35368        -0.001677     -0.002605      0.015054
     13.54315      9.03140     45.35368        -0.000507     -0.007742     -0.009329
     14.01899     10.06118     32.46412        -0.129519     -0.104948      0.142625
     13.01310      8.63625     32.81509        -0.032750      0.112958     -0.021727
     15.69367      9.05192     33.71567         0.000325      0.018281      0.039357
     15.49208      8.68925     35.43799        -0.011061      0.065148     -0.061444
     13.43509     11.59532     35.00491         0.022016     -0.043953     -0.020078
     14.61733     10.75779     36.03022         0.079050      0.125114     -0.040011
     12.02579      9.90750     35.57399         0.020454     -0.113014      0.000170
     12.26145      8.22478     35.02629         0.009144      0.062920      0.009029
     11.14135     10.06679     33.55057        -0.029288     -0.004728      0.136249
     12.14480     11.51141     33.44611         0.094460      0.347745      0.105963
     10.94512     11.66585     31.48359         0.036557     -0.069638      0.027983
     12.40327     10.87225     30.90673        -0.071900      0.001205      0.020453
     14.17588      7.07103     33.14656         0.042111     -0.038165      0.034869
     14.07201      6.68771     34.88025         0.038169      0.034187     -0.055487
     15.63594      6.65092     34.05135        -0.098804     -0.006473      0.019206
     15.58303     12.55574     34.62336        -0.005591      0.082300      0.001421
     15.23640     11.69268     33.13652        -0.074717     -0.048438      0.024927
     16.39287     11.01442     34.32923         0.016408     -0.060650     -0.041523
     13.83235      9.55569     37.35020        -0.058354     -0.133667      0.016247
     13.94353      7.84998     36.83118         0.126066     -0.092917      0.044152
     12.44276      8.46663     37.50607        -0.024981      0.024658      0.033002
      9.68131      9.57954     31.47859        -0.118798     -0.074285      0.089800
     10.40634      9.89612     29.89882         0.005037     -0.052361      0.059405
     12.60392      8.65102     29.32938         0.193610      0.310174     -0.362183
     10.08197      7.49035     32.60290         0.090244      0.001457     -0.066082
     13.78635      6.48088     29.45974         0.154647     -0.084633     -0.098844
     11.26302      5.31654     32.76094         0.080373     -0.004249     -0.056563
     13.14463      4.80902     31.20375         0.029964     -0.058243     -0.020713
      0.34329      4.60218     34.85448        -0.234070     -0.131763      0.214247
      0.64027     13.73812     35.03865         0.166870     -0.082478     -0.149854
      8.39233      4.11763     34.62098        -0.518302      0.197469     -0.021391
      8.99983     13.66803     34.70248        -0.131099      0.136187      0.057122
      4.33911      9.62744     34.94999         0.018831      0.127120     -0.033822
      4.52523      0.21860     34.76370         0.267181      0.003591      0.010484
     13.95655     17.72579     35.01704        -0.091158     -0.155860      0.205700
      0.19934      4.40483     40.54832        -0.535494      0.610487     -0.125780
      0.15492     13.71622     40.75070        -0.585806      0.319525      0.043260
      8.77288      4.17079     40.83256        -0.370290      0.112355      0.254701
      9.01284     13.61429     40.56160         0.078440      0.006245     -0.707318
      4.61195      8.92650     40.55392        -0.104477     -0.133936     -0.025409
      4.57681     18.05530     40.41029         0.302193      0.282958     -0.117991
     14.00049      8.78363     40.93687         0.058460      0.439391      0.030817
     13.63898     18.05416     40.57127         0.401185      0.336062     -0.130745
      9.02897      4.51561     46.44552         0.013425     -0.001546     -0.006572
      9.02651     13.54701     46.44552         0.012741      0.003938      0.035618
     18.05937      4.51561     46.44552        -0.003771      0.020030      0.046198
     18.05691     13.54701     46.44552         0.005041      0.015307      0.006002
      4.51521      0.00002     46.44421         0.006141      0.003404      0.054340
      4.51275      9.03142     46.44421        -0.001908     -0.005204      0.034411
     13.54561      0.00002     46.44421        -0.009785     -0.010778      0.013721
     13.54315      9.03142     46.44421        -0.015019     -0.019015      0.003892
     11.27793      8.23421     30.96005        -0.098170      0.061249      0.160837
     12.32144      7.92845     30.07736        -0.148591     -0.498082      0.374951
     10.90342      7.26769     31.91330        -0.115339      0.130193     -0.030008
     12.98356      6.69649     30.15799        -0.132931      0.235910     -0.012857
     11.56526      6.04092     32.00127        -0.056524      0.125268     -0.082051
     12.61545      5.75736     31.12274        -0.013143     -0.061765      0.141808
     13.21816      9.66960     33.11712         0.120656     -0.004795     -0.108756
     15.00433      8.62953     34.45512        -0.091261     -0.102092      0.025014
     14.30612     10.92672     34.99257        -0.018334      0.014622     -0.064502
     12.75403      9.08707     35.49846         0.024259      0.037766     -0.029660
     11.97218     10.53200     33.00328        -0.304191     -0.390453     -0.138552
     11.51439     10.72265     31.54823         0.204188      0.133246     -0.304849
     14.67845      7.18949     34.11480         0.035037      0.001458      0.014768
     15.44525     11.55129     34.20504        -0.042206      0.033953      0.101503
     13.29461      8.72461     36.86985        -0.008798      0.204342     -0.281381
     10.63450      9.60445     30.93855         0.208788      0.004146      0.047859
     17.98203      3.47227     35.38609         0.174747     -0.034292     -0.387801
      0.57415     12.63197     35.74093         0.192222      0.145738     -0.348696
      9.66134      3.93375     34.89459        -0.164343      0.000116     -0.049367
      8.51964     12.57333     35.24292         0.034073     -0.142230      0.031572
      7.70796      5.22608     34.83728         0.090262     -0.565470     -0.259372
      8.47383     14.86006     34.87217        -0.061593     -0.008892      0.139433
     17.97360      5.78650     35.22718         0.029377     -0.087078      0.033841
     17.81794     14.71036     35.10416        -0.123827     -0.142637      0.181717
      4.28463      8.35547     35.28822         0.095510      0.059717      0.110691
      3.44686     17.59953     35.07754         0.075450     -0.262397      0.202070
     12.65870     17.83719     35.20340         0.285984      0.330591      0.114778
      5.73536     17.96473     35.16049        -0.545676     -0.338303      0.178997
      5.43352     10.34733     34.88035         0.296255     -0.494945      0.078444
     14.84170      0.60485     35.24124        -0.252537      0.393939      0.006252
      0.98618      3.46521     40.97558         0.593440     -0.683220      0.569181
      1.10614     12.88124     41.05975         0.748887     -0.443422      0.147191
     10.05350      3.90710     40.89659         0.461632     -0.116567     -0.053834
      9.61953     12.64695     41.20726        -0.176996      0.261705     -0.085444
      3.76792      8.09660     41.12311         0.038745      0.014133     -0.550042
      3.77541     17.26351     41.07758         0.047778      0.044432      0.112997
     12.83411      8.29343     41.27779         0.069407     -0.190372      0.036485
     12.73922     17.32349     41.17155        -0.111888     -0.118620      0.147236
      8.22316      5.32385     41.15486        -0.116361     -0.564754     -0.186674
      8.29069     14.57242     41.09054         0.015343     -0.048293      0.139833
     17.49526      5.17501     41.29749         0.110375     -0.089197     -0.043459
     17.02960     13.75655     41.32349         0.086482     -0.124124     -0.013901
      5.44711      0.84309     40.92253        -0.287484     -0.265829     -0.352796
      5.37450      9.79385     41.17304         0.091228      0.095058      0.060404
     14.45204      0.85513     41.15459        -0.196027     -0.267549     -0.535859
     14.29685     10.06621     40.94527        -0.263121     -0.132332     -0.041461
      0.82731      3.68697     47.03596         0.028933     -0.035849     -0.088198
      0.82485     12.71837     47.03596         0.030786     -0.034020     -0.068334
      9.85771      3.68697     47.03596         0.020457     -0.026114     -0.062275
      9.85525     12.71837     47.03596         0.022280     -0.025482     -0.093862
      3.68432      8.20234     47.03465        -0.015579     -0.010244     -0.067080
      3.68186     17.23373     47.03465        -0.014388     -0.010251     -0.059747
     12.71472      8.20234     47.03465        -0.009267     -0.005938     -0.063676
     12.71226     17.23373     47.03465        -0.011020     -0.011157     -0.057638
      8.20068      5.34457     47.03603        -0.027900      0.024109     -0.062086
      8.19822     14.37597     47.03603        -0.023733      0.017672     -0.089373
     17.23108      5.34457     47.03603        -0.007968      0.006680     -0.088816
     17.22862     14.37597     47.03603        -0.014201      0.015532     -0.066417
      5.34365      0.82909     47.03465         0.003515      0.006064     -0.064410
      5.34119      9.86049     47.03465         0.012126      0.019319     -0.069163
     14.37405      0.82909     47.03465         0.026465      0.021550     -0.056114
     14.37159      9.86049     47.03465         0.028787      0.030201     -0.067714
     13.81415      9.57981     34.51019         0.068560     -0.210576     -0.047680
      9.20734      0.29979     34.45530         0.012261      0.034776      0.012891
      8.64066      8.99119     34.68114         0.113373     -0.046256     -0.043687
      0.11294      0.08446     34.29894         0.009546      0.000724     -0.003653
      0.70480      9.12850     34.58218        -0.030564      0.032787     -0.011735
      4.23951      4.38295     34.49664         0.010587     -0.007619     -0.002214
      4.62614     13.81276     34.57626        -0.020257      0.009683      0.011537
     13.29819      3.64790     34.68091         0.021733      0.135943     -0.032130
     12.68582     14.31285     34.61477        -0.002859     -0.076181     -0.028277
     18.05494     17.76911     40.86558         0.028030     -0.010032     -0.008102
     17.98720      9.08574     40.93355         0.026180      0.000814     -0.003084
      9.05429      0.23734     40.87050        -0.025770      0.002442     -0.012253
      9.25015      8.83866     40.95601        -0.012311      0.005136     -0.088382
      4.71616      4.44347     40.87596        -0.011223      0.001561      0.021659
      4.70616     13.60499     40.89875        -0.070027      0.004714      0.020837
     13.57978      4.74395     40.89564        -0.016022      0.045494      0.025622
     13.42296     13.57147     40.90685         0.023567      0.001047     -0.032425
      2.44666      2.00751     37.95326        -0.008967     -0.010186      0.009677
      2.73936     10.89628     38.03909        -0.022442      0.042413     -0.006074
     11.71201      1.89375     38.15886        -0.034656     -0.008300     -0.041740
     11.12924     11.37068     38.14045         0.025262      0.030139     -0.090193
      6.51476      6.95354     37.84578        -0.041979      0.024884     -0.029084
      6.73464     15.91426     37.90046         0.035260      0.001055      0.021373
     16.09393      6.59035     38.14148        -0.031199     -0.034762     -0.084517
     15.74542     15.81490     37.83341        -0.042480     -0.036857     -0.007034
      2.25127      6.65491     38.06042        -0.021915     -0.037194      0.034291
      2.20893     15.63614     37.96528         0.038578      0.008773     -0.017433
     10.66322      6.07555     37.59153        -0.007635      0.010011     -0.008947
     11.15269     15.74665     38.25642        -0.024922      0.027512      0.007582
      6.95140      2.41047     37.74736         0.014477      0.012664      0.029824
      6.96678     11.37492     38.17793        -0.028556     -0.022321      0.017101
     16.00609      2.38829     38.21682         0.006069      0.031720     -0.041576
     16.22913     11.59432     38.20347        -0.037592      0.058646     -0.156960
      0.00000      0.00000     47.17356         0.002656      0.005036      0.308576
     -0.00246      9.03140     47.17356        -0.000738      0.002868      0.420670
      9.03040      0.00000     47.17356        -0.003282     -0.002942      0.382636
      9.02794      9.03140     47.17356         0.002777      0.003501      0.437973
      4.51398      4.51570     47.17425        -0.005731     -0.003420      0.416274
      4.51152     13.54710     47.17425         0.004764     -0.001574      0.410496
     13.54438      4.51570     47.17425         0.005036      0.001122      0.423983
     13.54192     13.54710     47.17425        -0.005106     -0.006409      0.412014
      2.45192      2.06295     44.04013        -0.023002     -0.016212     -0.071943
      2.44946     11.09435     44.04013         0.016699     -0.022086     -0.079009
     11.48232      2.06295     44.04013         0.054615     -0.030840     -0.062916
     11.47986     11.09435     44.04013        -0.007153     -0.016770     -0.075045
      6.57602      6.96845     44.04013        -0.041122      0.053959     -0.023684
      6.57356     15.99985     44.04013         0.006880      0.005516     -0.050000
     15.60642      6.96845     44.04013         0.067921     -0.019646     -0.009299
     15.60396     15.99985     44.04013        -0.030540      0.025445     -0.020563
      2.06108      6.57881     44.04000         0.001619     -0.001381     -0.049821
      2.05862     15.61021     44.04000         0.066433      0.041179     -0.034792
     11.09148      6.57881     44.04000        -0.019667     -0.047708     -0.019672
     11.08902     15.61021     44.04000        -0.029433      0.008116     -0.042068
      6.96686      2.45259     44.04007        -0.063553     -0.069260     -0.029289
      6.96440     11.48399     44.04007         0.030358      0.003981     -0.045649
     15.99726      2.45259     44.04007         0.048845      0.018152     -0.053416
     15.99481     11.48399     44.04007         0.005051      0.011421     -0.015998
      2.43163      2.08322     50.06849         0.000992     -0.019061      0.021641
      2.42917     11.11462     50.06849         0.012892     -0.008519      0.023433
     11.46203      2.08322     50.06849         0.007905     -0.014836      0.026512
     11.45957     11.11462     50.06849         0.012620     -0.006243      0.022509
      6.59631      6.94818     50.06849        -0.015542      0.007887      0.025087
      6.59385     15.97958     50.06849        -0.011126      0.009263      0.022075
     15.62671      6.94818     50.06849        -0.007242      0.011710      0.023161
     15.62425     15.97958     50.06849        -0.002623      0.018453      0.024516
      2.08113      6.59901     50.06905        -0.011052     -0.010604      0.022691
      2.07867     15.63041     50.06905        -0.016603     -0.003083      0.022992
     11.11153      6.59901     50.06905        -0.008074     -0.011264      0.024982
     11.10907     15.63041     50.06905        -0.011959     -0.010792      0.024376
      6.94681      2.43239     50.06905         0.009266      0.007452      0.024198
      6.94435     11.46379     50.06905         0.005527      0.014759      0.022840
     15.97721      2.43239     50.06905         0.021782     -0.000037      0.023946
     15.97475     11.46379     50.06905         0.009067      0.010410      0.023429
     18.05113     18.01812     37.81694        -0.013196      0.040599     -0.017348
      0.12526      9.05868     37.81179         0.024035      0.042939     -0.007954
      9.08339      0.14340     37.69317         0.055264     -0.058140      0.049504
      8.98322      8.89239     37.79695         0.030713      0.011812      0.009320
      4.45914      4.44309     37.64531        -0.005801     -0.002637     -0.016402
      4.53481     13.45259     37.72603        -0.015247     -0.007980      0.017846
     13.40915      4.44506     37.67260         0.029806     -0.011791     -0.016281
     13.33134     13.64268     37.69730        -0.039641      0.010698     -0.059137
      0.00001      0.00001     44.04300        -0.048985     -0.132981      0.159695
     -0.00245      9.03141     44.04300        -0.037524     -0.066162      0.191728
      9.03041      0.00001     44.04300         0.046576      0.099400      0.097540
      9.02795      9.03141     44.04300        -0.049040     -0.078482      0.311114
      4.51397      4.51569     44.04275         0.103359      0.028865      0.041245
      4.51151     13.54709     44.04275        -0.061114      0.039761      0.097167
     13.54437      4.51569     44.04275        -0.068689      0.012295      0.160361
     13.54191     13.54709     44.04275         0.002232      0.104551      0.170736
      0.00000      0.00000     50.44728        -0.003711      0.001318     -0.604625
     -0.00246      9.03140     50.44728        -0.003297     -0.001746     -0.632157
      9.03040      0.00000     50.44728         0.003469      0.004741     -0.627730
      9.02794      9.03140     50.44728         0.002489     -0.005210     -0.639649
      4.51397      4.51570     50.44728         0.008421      0.007399     -0.634460
      4.51151     13.54710     50.44728         0.005432     -0.007543     -0.630389
     13.54437      4.51570     50.44728        -0.009836      0.006046     -0.639932
     13.54191     13.54710     50.44728        -0.005500     -0.007246     -0.633514
 -----------------------------------------------------------------------------------
    total drift:                                0.099417      0.086486      0.094214


--------------------------------------------------------------------------------------------------------



  FREE ENERGIE OF THE ION-ELECTRON SYSTEM (eV)
  ---------------------------------------------------
  free  energy   TOTEN  =     -1576.07854481 eV

  energy  without entropy=    -1576.07854481  energy(sigma->0) =    -1576.07854481
 


--------------------------------------------------------------------------------------------------------


    POTLOK:  cpu time    0.5041: real time    0.5040


--------------------------------------------------------------------------------------------------------


     LOOP+:  cpu time  266.7969: real time  267.1675
 vacuum level on the upper side and lower side of the slab         2.306         1.583
    4ORBIT:  cpu time    0.0000: real time    0.0000

 total amount of memory used by VASP MPI-rank0  8653580. kBytes
=======================================================================

   base      :      30000. kBytes
   nonlr-proj:      53618. kBytes
   fftplans  :     249280. kBytes
   grid      :     701440. kBytes
   one-center:       2636. kBytes
   wavefun   :    7616606. kBytes
 
  
  
 General timing and accounting informations for this job:
 ========================================================
  
                  Total CPU time used (sec):      479.472
                            User time (sec):      392.368
                          System time (sec):       87.105
                         Elapsed time (sec):      482.097
  
                   Maximum memory used (kb):    10307748.
                   Average memory used (kb):          N/A
  
                          Minor page faults:      3542759
                          Major page faults:           12
                 Voluntary context switches:        10633
