 vasp.6.2.1 16May21 (build Nov 15 2021 14:57:28) complex                         
 executed on             LinuxPGI date 2023.07.30  17:08:24
 running on    4 total cores
 distrk:  each k-point on    4 cores,    1 groups
 distr:  one band on NCORE=   1 cores,    4 groups


--------------------------------------------------------------------------------------------------------


 INCAR:
   SYSTEM = PSC
   ISTART = 1
   ICHARG = 1
   PREC = Normal
   ENCUT = 500
   GGA_COMPAT = F
   NELM = 600
   ISYM = 0
   LREAL = Auto
   ISMEAR = 0
   SIGMA = 0.05
   AMIN = 0.01
   BMIX = 0.01
   LVTOT = T
   LWAVE = F
   LDIPOL = T
   IDIPOL = 3
   LVDW = T
   IVDW = 12

 POTCAR:    PAW_PBE H 15Jun2001                   
 POTCAR:    PAW_PBE C 08Apr2002                   
 POTCAR:    PAW_PBE N 08Apr2002                   
 POTCAR:    PAW_PBE I 08Apr2002                   
 POTCAR:    PAW_PBE Pb 08Apr2002                  
 WARNING: For LVTOT=.TRUE., VASP.5.x writes the TOTAL local potential to the
     file LOCPOT. If you want only the Hartree contributions, use LVHAR=.TRUE.
     instead. 

 POTCAR:    PAW_PBE H 15Jun2001                   
   SHA256 =  030f79b5d3ab3cf0e668861823c8fb652ff669f3e15e46930bd03bfd63a607b6 H/POTCAR              
   COPYR  = (c) Copyright 15Jun2001 Georg Kresse                                                    
   COPYR  = This file is part of the software VASP. Any use, copying, and all other rights are regul
   COPYR  = If you do not have a valid VASP license, you may not use, copy or distribute this file. 
   VRHFIN =H: ultrasoft test                                                                        
   LEXCH  = PE                                                                                      
   EATOM  =    12.4884 eV,    0.9179 Ry                                                             
                                                                                                    
   TITEL  = PAW_PBE H 15Jun2001                                                                     
   LULTRA =        F    use ultrasoft PP ?                                                          
   IUNSCR =        0    unscreen: 0-lin 1-nonlin 2-no                                               
   RPACOR =    0.000    partial core radius                                                         
   POMASS =    1.000; ZVAL   =    1.000    mass and valenz                                          
   RCORE  =    1.100    outmost cutoff radius                                                       
   RWIGS  =    0.700; RWIGS  =    0.370    wigner-seitz radius (au A)                               
   ENMAX  =  250.000; ENMIN  =  200.000 eV                                                          
   RCLOC  =    0.701    cutoff for local pot                                                        
   LCOR   =        T    correct aug charges                                                         
   LPAW   =        T    paw PP                                                                      
   EAUG   =  400.000                                                                                
   RMAX   =    1.123    core radius for proj-oper                                                   
   RAUG   =    1.200    factor for augmentation sphere                                              
   RDEP   =    1.112    radius for radial grids                                                     
   RDEPT  =    0.926    core radius for aug-charge                                                  
                                                                                                    
   Atomic configuration                                                                             
    2 entries                                                                                       
     n  l   j            E        occ.                                                              
     1  0  0.50        -6.4927   1.0000                                                             
     2  1  0.50        -3.4015   0.0000                                                             
   Description                                                                                      
     l       E           TYP  RCUT    TYP  RCUT                                                     
     0     -6.4927494     23  1.100                                                                 
     0      6.8029130     23  1.100                                                                 
     1     -4.0817478     23  1.100                                                                 
  local pseudopotential read in
  atomic valenz-charges read in
  non local Contribution for L=            0  read in
    real space projection operators read in
  non local Contribution for L=            0  read in
    real space projection operators read in
  non local Contribution for L=            1  read in
    real space projection operators read in
    PAW grid and wavefunctions read in
 
   number of l-projection  operators is LMAX  =            3
   number of lm-projection operators is LMMAX =            5
 
 POTCAR:    PAW_PBE C 08Apr2002                   
   SHA256 =  253f7b50bb8d59471dbedb8285d89021f4a42ed1a2c5d38a03a736e69125dd95 C/POTCAR              
   COPYR  = (c) Copyright 08Apr2002 Georg Kresse                                                    
   COPYR  = This file is part of the software VASP. Any use, copying, and all other rights are regul
   COPYR  = If you do not have a valid VASP license, you may not use, copy or distribute this file. 
   VRHFIN =C: s2p2                                                                                  
   LEXCH  = PE                                                                                      
   EATOM  =   147.1560 eV,   10.8157 Ry                                                             
                                                                                                    
   TITEL  = PAW_PBE C 08Apr2002                                                                     
   LULTRA =        F    use ultrasoft PP ?                                                          
   IUNSCR =        1    unscreen: 0-lin 1-nonlin 2-no                                               
   RPACOR =    1.200    partial core radius                                                         
   POMASS =   12.011; ZVAL   =    4.000    mass and valenz                                          
   RCORE  =    1.500    outmost cutoff radius                                                       
   RWIGS  =    1.630; RWIGS  =    0.863    wigner-seitz radius (au A)                               
   ENMAX  =  400.000; ENMIN  =  300.000 eV                                                          
   ICORE  =        2    local potential                                                             
   LCOR   =        T    correct aug charges                                                         
   LPAW   =        T    paw PP                                                                      
   EAUG   =  644.873                                                                                
   DEXC   =    0.000                                                                                
   RMAX   =    1.529    core radius for proj-oper                                                   
   RAUG   =    1.300    factor for augmentation sphere                                              
   RDEP   =    1.501    radius for radial grids                                                     
   RDEPT  =    1.300    core radius for aug-charge                                                  
                                                                                                    
   Atomic configuration                                                                             
    4 entries                                                                                       
     n  l   j            E        occ.                                                              
     1  0  0.50      -273.3789   2.0000                                                             
     2  0  0.50       -13.7508   2.0000                                                             
     2  1  0.50        -5.2854   2.0000                                                             
     3  2  1.50        -5.4423   0.0000                                                             
   Description                                                                                      
     l       E           TYP  RCUT    TYP  RCUT                                                     
     0    -13.7508458     23  1.200                                                                 
     0     -8.2022199     23  1.200                                                                 
     1     -5.2854383     23  1.500                                                                 
     1     34.0145650     23  1.500                                                                 
     2     -5.4423304      7  1.500                                                                 
  local pseudopotential read in
  partial core-charges read in
  partial kinetic energy density read in
  atomic valenz-charges read in
  non local Contribution for L=            0  read in
    real space projection operators read in
  non local Contribution for L=            0  read in
    real space projection operators read in
  non local Contribution for L=            1  read in
    real space projection operators read in
  non local Contribution for L=            1  read in
    real space projection operators read in
    PAW grid and wavefunctions read in
 
   number of l-projection  operators is LMAX  =            4
   number of lm-projection operators is LMMAX =            8
 
 POTCAR:    PAW_PBE N 08Apr2002                   
   SHA256 =  e053789ff3a61a86a1b75d8a110fcc91f86041011e7b0817c7c99e4e8a6349d7 N/POTCAR              
   COPYR  = (c) Copyright 08Apr2002 Georg Kresse                                                    
   COPYR  = This file is part of the software VASP. Any use, copying, and all other rights are regul
   COPYR  = If you do not have a valid VASP license, you may not use, copy or distribute this file. 
   VRHFIN =N: s2p3                                                                                  
   LEXCH  = PE                                                                                      
   EATOM  =   264.5486 eV,   19.4438 Ry                                                             
                                                                                                    
   TITEL  = PAW_PBE N 08Apr2002                                                                     
   LULTRA =        F    use ultrasoft PP ?                                                          
   IUNSCR =        1    unscreen: 0-lin 1-nonlin 2-no                                               
   RPACOR =    1.200    partial core radius                                                         
   POMASS =   14.001; ZVAL   =    5.000    mass and valenz                                          
   RCORE  =    1.500    outmost cutoff radius                                                       
   RWIGS  =    1.400; RWIGS  =    0.741    wigner-seitz radius (au A)                               
   ENMAX  =  400.000; ENMIN  =  300.000 eV                                                          
   ICORE  =        2    local potential                                                             
   LCOR   =        T    correct aug charges                                                         
   LPAW   =        T    paw PP                                                                      
   EAUG   =  627.112                                                                                
   DEXC   =    0.000                                                                                
   RMAX   =    1.529    core radius for proj-oper                                                   
   RAUG   =    1.300    factor for augmentation sphere                                              
   RDEP   =    1.514    radius for radial grids                                                     
   RDEPT  =    1.338    core radius for aug-charge                                                  
                                                                                                    
   Atomic configuration                                                                             
    4 entries                                                                                       
     n  l   j            E        occ.                                                              
     1  0  0.50      -384.7179   2.0000                                                             
     2  0  0.50       -18.5828   2.0000                                                             
     2  1  0.50        -7.0898   3.0000                                                             
     3  2  1.50        -6.8029   0.0000                                                             
   Description                                                                                      
     l       E           TYP  RCUT    TYP  RCUT                                                     
     0    -18.5828119     23  1.200                                                                 
     0    -13.5018863     23  1.200                                                                 
     1     -7.0897853     23  1.500                                                                 
     1      9.5240782     23  1.500                                                                 
     2     -6.8029130      7  1.500                                                                 
  local pseudopotential read in
  partial core-charges read in
  partial kinetic energy density read in
  atomic valenz-charges read in
  non local Contribution for L=            0  read in
    real space projection operators read in
  non local Contribution for L=            0  read in
    real space projection operators read in
  non local Contribution for L=            1  read in
    real space projection operators read in
  non local Contribution for L=            1  read in
    real space projection operators read in
    PAW grid and wavefunctions read in
 
   number of l-projection  operators is LMAX  =            4
   number of lm-projection operators is LMMAX =            8
 
 POTCAR:    PAW_PBE I 08Apr2002                   
   SHA256 =  e40f3f59b681c1fc3e3091736183c4589116986673d2b852a5012aec72758799 I/POTCAR              
   COPYR  = (c) Copyright 08Apr2002 Georg Kresse                                                    
   COPYR  = This file is part of the software VASP. Any use, copying, and all other rights are regul
   COPYR  = If you do not have a valid VASP license, you may not use, copy or distribute this file. 
   VRHFIN =I : s2p5                                                                                 
   LEXCH  = PE                                                                                      
   EATOM  =   315.8678 eV,   23.2156 Ry                                                             
                                                                                                    
   TITEL  = PAW_PBE I 08Apr2002                                                                     
   LULTRA =        F    use ultrasoft PP ?                                                          
   IUNSCR =        1    unscreen: 0-lin 1-nonlin 2-no                                               
   RPACOR =    2.200    partial core radius                                                         
   POMASS =  126.904; ZVAL   =    7.000    mass and valenz                                          
   RCORE  =    2.300    outmost cutoff radius                                                       
   RWIGS  =    2.810; RWIGS  =    1.487    wigner-seitz radius (au A)                               
   ENMAX  =  175.647; ENMIN  =  131.735 eV                                                          
   ICORE  =        3    local potential                                                             
   LCOR   =        T    correct aug charges                                                         
   LPAW   =        T    paw PP                                                                      
   EAUG   =  370.139                                                                                
   DEXC   =    0.000                                                                                
   RMAX   =    2.359    core radius for proj-oper                                                   
   RAUG   =    1.300    factor for augmentation sphere                                              
   RDEP   =    2.392    radius for radial grids                                                     
   RDEPT  =    2.170    core radius for aug-charge                                                  
                                                                                                    
   Atomic configuration                                                                             
   13 entries                                                                                       
     n  l   j            E        occ.                                                              
     1  0  0.50    -32976.3739   2.0000                                                             
     2  0  0.50     -5094.5933   2.0000                                                             
     2  1  1.50     -4572.0131   6.0000                                                             
     3  0  0.50     -1028.2813   2.0000                                                             
     3  1  1.50      -859.0250   6.0000                                                             
     3  2  2.50      -605.7620  10.0000                                                             
     4  0  0.50      -180.5540   2.0000                                                             
     4  1  1.50      -127.5306   6.0000                                                             
     4  2  2.50       -50.2720  10.0000                                                             
     5  0  0.50       -17.4058   2.0000                                                             
     5  1  0.50        -7.0851   5.0000                                                             
     5  2  1.50        -7.0750   0.0000                                                             
     4  3  2.50        -7.0750   0.0000                                                             
   Description                                                                                      
     l       E           TYP  RCUT    TYP  RCUT                                                     
     0    -17.4058016     23  2.300                                                                 
     0    -18.7663842     23  2.300                                                                 
     1     -7.0850686     23  2.300                                                                 
     1     -4.2150896     23  2.300                                                                 
     2     -7.0750295     23  2.300                                                                 
     3     -1.3605826     23  2.300                                                                 
  local pseudopotential read in
  partial core-charges read in
  partial kinetic energy density read in
  atomic valenz-charges read in
  non local Contribution for L=            0  read in
    real space projection operators read in
  non local Contribution for L=            0  read in
    real space projection operators read in
  non local Contribution for L=            1  read in
    real space projection operators read in
  non local Contribution for L=            1  read in
    real space projection operators read in
  non local Contribution for L=            2  read in
    real space projection operators read in
    PAW grid and wavefunctions read in
 
   number of l-projection  operators is LMAX  =            5
   number of lm-projection operators is LMMAX =           13
 
 POTCAR:    PAW_PBE Pb 08Apr2002                  
   SHA256 =  797118a27cf1bcd06b9881c67a26cdde129e3cd1a551dd4a281f9681ce847303 Pb/POTCAR             
   COPYR  = (c) Copyright 08Apr2002 Georg Kresse                                                    
   COPYR  = This file is part of the software VASP. Any use, copying, and all other rights are regul
   COPYR  = If you do not have a valid VASP license, you may not use, copy or distribute this file. 
   VRHFIN =Pb:                                                                                      
   LEXCH  = PE                                                                                      
   EATOM  =    96.9868 eV,    7.1283 Ry                                                             
                                                                                                    
   TITEL  = PAW_PBE Pb 08Apr2002                                                                    
   LULTRA =        F    use ultrasoft PP ?                                                          
   IUNSCR =        1    unscreen: 0-lin 1-nonlin 2-no                                               
   RPACOR =    2.200    partial core radius                                                         
   POMASS =  207.200; ZVAL   =    4.000    mass and valenz                                          
   RCORE  =    3.100    outmost cutoff radius                                                       
   RWIGS  =    3.260; RWIGS  =    1.725    wigner-seitz radius (au A)                               
   ENMAX  =   97.973; ENMIN  =   73.480 eV                                                          
   ICORE  =        3    local potential                                                             
   LCOR   =        T    correct aug charges                                                         
   LPAW   =        T    paw PP                                                                      
   EAUG   =  234.873                                                                                
   DEXC   =    0.000                                                                                
   RMAX   =    3.158    core radius for proj-oper                                                   
   RAUG   =    1.300    factor for augmentation sphere                                              
   RDEP   =    3.202    radius for radial grids                                                     
   RDEPT  =    2.659    core radius for aug-charge                                                  
                                                                                                    
   Atomic configuration                                                                             
   17 entries                                                                                       
     n  l   j            E        occ.                                                              
     1  0  0.50    -88091.8466   2.0000                                                             
     2  0  0.50    -15753.4197   2.0000                                                             
     2  1  1.50    -13508.1797   6.0000                                                             
     3  0  0.50     -3781.7194   2.0000                                                             
     3  1  1.50     -3138.2529   6.0000                                                             
     3  2  2.50     -2483.2977  10.0000                                                             
     4  0  0.50      -856.2895   2.0000                                                             
     4  1  1.50      -645.4943   6.0000                                                             
     4  2  2.50      -401.8768  10.0000                                                             
     4  3  3.50      -132.9059  14.0000                                                             
     5  0  0.50      -144.0950   2.0000                                                             
     5  1  1.50       -85.7879   6.0000                                                             
     5  2  2.50       -21.1769  10.0000                                                             
     6  0  0.50       -12.0372   2.0000                                                             
     6  1  1.50        -3.4971   2.0000                                                             
     6  2  2.50        -1.3606   0.0000                                                             
     5  3  2.50        -2.7212   0.0000                                                             
   Description                                                                                      
     l       E           TYP  RCUT    TYP  RCUT                                                     
     0    -12.0371566     23  3.100                                                                 
     0    -13.3977392     23  3.100                                                                 
     1     -3.4971341     23  3.100                                                                 
     1     -5.4423304     23  3.100                                                                 
     2     -1.3605826     23  3.100                                                                 
     3     -1.3605826     23  3.100                                                                 
  local pseudopotential read in
  partial core-charges read in
  partial kinetic energy density read in
  atomic valenz-charges read in
  non local Contribution for L=            0  read in
    real space projection operators read in
  non local Contribution for L=            0  read in
    real space projection operators read in
  non local Contribution for L=            1  read in
    real space projection operators read in
  non local Contribution for L=            1  read in
    real space projection operators read in
  non local Contribution for L=            2  read in
    real space projection operators read in
    PAW grid and wavefunctions read in
 
   number of l-projection  operators is LMAX  =            5
   number of lm-projection operators is LMMAX =           13
 
 Optimization of the real space projectors (new method)

 maximal supplied QI-value         = 34.20
 optimisation between [QCUT,QGAM] = [ 11.29, 22.57] = [ 35.68,142.71] Ry 
 Optimized for a Real-space Cutoff    1.16 Angstroem

   l    n(q)    QCUT    max X(q) W(low)/X(q) W(high)/X(q)  e(spline) 
   0      8    11.287    19.460    0.40E-03    0.73E-03    0.16E-06
   0      8    11.287    12.209    0.38E-03    0.70E-03    0.15E-06
   1      7    11.287     4.655    0.22E-03    0.25E-04    0.22E-06
 Optimization of the real space projectors (new method)

 maximal supplied QI-value         = 25.13
 optimisation between [QCUT,QGAM] = [ 11.31, 22.87] = [ 35.82,146.48] Ry 
 Optimized for a Real-space Cutoff    1.00 Angstroem

   l    n(q)    QCUT    max X(q) W(low)/X(q) W(high)/X(q)  e(spline) 
   0      7    11.310   115.676    0.43E-03    0.13E-02    0.19E-06
   0      7    11.310    87.132    0.43E-03    0.13E-02    0.18E-06
   1      6    11.310     4.429    0.42E-03    0.74E-03    0.11E-06
   1      6    11.310     2.733    0.34E-03    0.55E-03    0.92E-07
 Optimization of the real space projectors (new method)

 maximal supplied QI-value         = 25.13
 optimisation between [QCUT,QGAM] = [ 11.31, 22.87] = [ 35.82,146.48] Ry 
 Optimized for a Real-space Cutoff    1.27 Angstroem

   l    n(q)    QCUT    max X(q) W(low)/X(q) W(high)/X(q)  e(spline) 
   0      9    11.310    79.467    0.75E-04    0.16E-03    0.36E-06
   0      9    11.310    66.151    0.74E-04    0.16E-03    0.36E-06
   1      8    11.310    17.416    0.35E-03    0.12E-03    0.95E-06
   1      8    11.310    12.382    0.37E-03    0.13E-03    0.98E-06
 Optimization of the real space projectors (new method)

 maximal supplied QI-value         = 16.25
 optimisation between [QCUT,QGAM] = [ 11.38, 22.75] = [ 36.24,144.96] Ry 
 Optimized for a Real-space Cutoff    1.31 Angstroem

   l    n(q)    QCUT    max X(q) W(low)/X(q) W(high)/X(q)  e(spline) 
   0      9    11.376   194.483    0.24E-03    0.23E-03    0.67E-07
   0      9    11.376   190.334    0.23E-03    0.22E-03    0.65E-07
   1      8    11.376   116.687    0.25E-03    0.63E-04    0.16E-06
   1      8    11.376    88.696    0.25E-03    0.61E-04    0.16E-06
   2      8    11.376     4.877    0.17E-03    0.14E-03    0.29E-07
 Optimization of the real space projectors (new method)

 maximal supplied QI-value         = 12.09
 optimisation between [QCUT,QGAM] = [ 11.37, 22.86] = [ 36.19,146.31] Ry 
 Optimized for a Real-space Cutoff    1.66 Angstroem

   l    n(q)    QCUT    max X(q) W(low)/X(q) W(high)/X(q)  e(spline) 
   0     11    11.369   135.111    0.12E-03    0.69E-04    0.19E-05
   0     11    11.369   146.850    0.11E-03    0.65E-04    0.18E-05
   1     11    11.369   148.016    0.17E-03    0.32E-03    0.89E-06
   1     11    11.369   122.989    0.17E-03    0.32E-03    0.91E-06
   2     10    11.369     8.916    0.12E-03    0.45E-04    0.33E-06
  PAW_PBE H 15Jun2001                   :
 energy of atom  1       EATOM=  -12.4884
 kinetic energy error for atom=    0.0020 (will be added to EATOM!!)
  PAW_PBE C 08Apr2002                   :
 energy of atom  2       EATOM= -147.1560
 kinetic energy error for atom=    0.0076 (will be added to EATOM!!)
  PAW_PBE N 08Apr2002                   :
 energy of atom  3       EATOM= -264.5486
 kinetic energy error for atom=    0.0138 (will be added to EATOM!!)
  PAW_PBE I 08Apr2002                   :
 energy of atom  4       EATOM= -315.8678
 kinetic energy error for atom=    0.0009 (will be added to EATOM!!)
  PAW_PBE Pb 08Apr2002                  :
 energy of atom  5       EATOM=  -96.9868
 kinetic energy error for atom=    0.0000 (will be added to EATOM!!)
 
 
 POSCAR:  H  C  N  I Pb
  positions in cartesian coordinates
  No initial velocities read in
 exchange correlation table for  LEXCH =        8
   RHO(1)=    0.500       N(1)  =     2000
   RHO(2)=  100.500       N(2)  =     4000
 


--------------------------------------------------------------------------------------------------------


 ion  position               nearest neighbor table
   1  0.446  0.300  0.583- 187 1.07
   2  0.443  0.830  0.579- 188 1.08
   3  0.958  0.269  0.586- 189 1.01
   4  0.970  0.807  0.586- 190 1.03
   5  0.299  0.045  0.584- 194 1.00
   6  0.302  0.549  0.583- 195 1.00
   7  0.778  0.066  0.581- 196 1.00
   8  0.100  0.188  0.554- 183 1.02
   9  0.080  0.677  0.556- 184 1.01
  10  0.585  0.178  0.557- 185 1.03
  11  0.543  0.659  0.566- 186 1.01
  12  0.350  0.055  0.560- 194 1.08
  13  0.317  0.595  0.558- 195 1.07
  14  0.831  0.081  0.558- 196 1.06
  15  0.074  0.200  0.581- 183 1.03
  16  0.048  0.692  0.582- 184 1.06
  17  0.564  0.220  0.582- 185 1.04
  18  0.512  0.711  0.587- 186 1.02
  19  0.216  0.437  0.582- 191 1.01
  20  0.182  0.968  0.581- 192 1.00
  21  0.691  0.957  0.581- 193 1.00
  22  0.393  0.299  0.559- 187 1.02
  23  0.436  0.852  0.552- 188 1.03
  24  0.909  0.297  0.564- 189 1.01
  25  0.952  0.859  0.564- 190 1.01
  26  0.180  0.414  0.557- 191 1.07
  27  0.159  0.933  0.556- 192 1.06
  28  0.692  0.901  0.558- 193 1.09
  29  0.478  0.222  0.540- 146 1.09
  30  0.502  0.744  0.540- 147 1.13
  31  0.995  0.251  0.540- 144 1.12
  32  0.021  0.782  0.541- 145 1.12
  33  0.242  0.513  0.539- 148 1.10
  34  0.265  0.986  0.540- 149 1.10
  35  0.779  0.975  0.541- 150 1.10
  36  0.452  0.306  0.676- 205 1.07
  37  0.440  0.807  0.676- 206 1.07
  38  0.948  0.293  0.677- 207 1.04
  39  0.947  0.806  0.675- 208 1.00
  40  0.300  0.047  0.675- 209 1.07
  41  0.295  0.554  0.676- 210 1.06
  42  0.811  0.051  0.674- 211 1.07
  43  0.831  0.538  0.675- 212 1.07
  44  0.086  0.172  0.649- 197 0.99
  45  0.086  0.682  0.653- 198 0.99
  46  0.572  0.166  0.650- 199 0.98
  47  0.571  0.668  0.654- 200 1.06
  48  0.186  0.411  0.648- 201 1.01
  49  0.169  0.919  0.648- 202 1.00
  50  0.659  0.443  0.653- 203 1.04
  51  0.665  0.930  0.651- 204 1.00
  52  0.060  0.194  0.675- 197 1.03
  53  0.045  0.704  0.677- 198 1.00
  54  0.553  0.201  0.675- 199 1.02
  55  0.541  0.701  0.679- 200 1.02
  56  0.205  0.440  0.674- 201 1.07
  57  0.196  0.944  0.674- 202 1.06
  58  0.712  0.445  0.676- 203 1.03
  59  0.699  0.956  0.676- 204 1.06
  60  0.417  0.325  0.650- 205 1.01
  61  0.419  0.832  0.649- 206 1.01
  62  0.918  0.319  0.651- 207 1.05
  63  0.927  0.839  0.650- 208 1.03
  64  0.329  0.076  0.650- 209 1.01
  65  0.325  0.586  0.651- 210 1.00
  66  0.835  0.075  0.648- 211 1.02
  67  0.841  0.577  0.649- 212 1.06
  68  0.998  0.250  0.633- 151 1.07
  69  0.017  0.764  0.634- 152 1.06
  70  0.488  0.237  0.633- 153 1.07
  71  0.501  0.745  0.634- 154 1.08
  72  0.249  0.997  0.631- 156 1.08
  73  0.260  0.501  0.631- 155 1.08
  74  0.746  1.000  0.632- 158 1.08
  75  0.735  0.522  0.634- 157 1.12
  76  0.449  0.301  0.769- 221 1.02
  77  0.449  0.801  0.769- 222 1.02
  78  0.949  0.301  0.769- 223 1.02
  79  0.949  0.801  0.769- 224 1.02
  80  0.301  0.051  0.769- 225 1.02
  81  0.301  0.551  0.769- 226 1.02
  82  0.801  0.051  0.769- 227 1.02
  83  0.801  0.551  0.769- 228 1.02
  84  0.079  0.171  0.743- 213 1.02
  85  0.079  0.671  0.743- 214 1.02
  86  0.579  0.171  0.743- 215 1.02
  87  0.579  0.671  0.743- 216 1.02
  88  0.171  0.421  0.743- 217 1.02
  89  0.171  0.921  0.743- 218 1.02
  90  0.671  0.421  0.743- 219 1.02
  91  0.671  0.921  0.743- 220 1.02
  92  0.051  0.199  0.769- 213 1.02
  93  0.051  0.699  0.769- 214 1.02
  94  0.551  0.199  0.769- 215 1.02
  95  0.551  0.699  0.769- 216 1.02
  96  0.199  0.449  0.769- 217 1.02
  97  0.199  0.949  0.769- 218 1.02
  98  0.699  0.449  0.769- 219 1.02
  99  0.699  0.949  0.769- 220 1.02
 100  0.421  0.329  0.743- 221 1.02
 101  0.421  0.829  0.743- 222 1.02
 102  0.921  0.329  0.743- 223 1.02
 103  0.921  0.829  0.743- 224 1.02
 104  0.329  0.079  0.743- 225 1.02
 105  0.329  0.579  0.743- 226 1.02
 106  0.829  0.079  0.743- 227 1.02
 107  0.829  0.579  0.743- 228 1.02
 108  0.000  0.250  0.726- 161 1.09
 109  0.000  0.750  0.726- 162 1.09
 110  0.500  0.250  0.726- 159 1.09
 111  0.500  0.750  0.726- 160 1.09
 112  0.250  0.000  0.726- 163 1.09
 113  0.250  0.500  0.726- 164 1.09
 114  0.750  0.000  0.726- 165 1.09
 115  0.750  0.500  0.726- 166 1.09
 116  0.719  0.451  0.546- 173 1.09
 117  0.740  0.512  0.525- 173 1.08
 118  0.652  0.545  0.561- 174 1.10
 119  0.685  0.638  0.563- 174 1.08
 120  0.838  0.513  0.580- 175 1.11
 121  0.774  0.579  0.588- 175 1.09
 122  0.873  0.559  0.543- 176 1.10
 123  0.811  0.620  0.529- 176 1.13
 124  0.869  0.480  0.527- 177 1.09
 125  0.864  0.450  0.553- 177 1.11
 126  0.888  0.353  0.528- 178 1.12
 127  0.796  0.339  0.539- 178 1.11
 128  0.619  0.555  0.527- 179 1.08
 129  0.693  0.612  0.519- 179 1.08
 130  0.618  0.651  0.532- 179 1.10
 131  0.726  0.458  0.602- 180 1.09
 132  0.743  0.415  0.578- 180 1.09
 133  0.669  0.476  0.581- 180 1.09
 134  0.839  0.677  0.573- 181 1.08
 135  0.876  0.710  0.549- 181 1.09
 136  0.921  0.636  0.563- 181 1.09
 137  0.841  0.399  0.494- 182 1.14
 138  0.804  0.309  0.501- 182 1.12
 139  0.672  0.318  0.523- 168 1.08
 140  0.753  0.489  0.481- 169 1.11
 141  0.543  0.366  0.520- 170 1.09
 142  0.624  0.539  0.477- 171 1.13
 143  0.519  0.482  0.497- 172 1.14
 144  0.003  0.244  0.558-  31 1.12 189 1.27 183 1.32
 145  0.017  0.769  0.559-  32 1.12 190 1.29 184 1.29
 146  0.488  0.238  0.557-  29 1.09 187 1.31 185 1.33
 147  0.492  0.756  0.558-  30 1.13 188 1.29 186 1.32
 148  0.247  0.504  0.557-  33 1.10 191 1.30 195 1.34
 149  0.255  0.995  0.557-  34 1.10 194 1.30 192 1.34
 150  0.761  0.990  0.557-  35 1.10 193 1.29 196 1.34
 151  0.001  0.246  0.650-  68 1.07 207 1.28 197 1.37
 152  0.007  0.761  0.651-  69 1.06 208 1.31 198 1.37
 153  0.494  0.245  0.650-  70 1.07 205 1.28 199 1.36
 154  0.495  0.751  0.651-  71 1.08 206 1.28 200 1.32
 155  0.256  0.498  0.649-  73 1.08 201 1.29 210 1.34
 156  0.250  0.999  0.648-  72 1.08 209 1.28 202 1.35
 157  0.751  0.510  0.651-  75 1.12 212 1.29 203 1.33
 158  0.751  0.003  0.649-  74 1.08 211 1.28 204 1.36
 159  0.500  0.250  0.743- 110 1.09 221 1.31 215 1.31
 160  0.500  0.750  0.743- 111 1.09 222 1.31 216 1.31
 161  1.000  0.250  0.743- 108 1.09 223 1.31 213 1.31
 162  1.000  0.750  0.743- 109 1.09 224 1.31 214 1.31
 163  0.250  0.000  0.743- 112 1.09 225 1.31 218 1.31
 164  0.250  0.500  0.743- 113 1.09 226 1.31 217 1.31
 165  0.750  0.000  0.743- 114 1.09 227 1.31 220 1.31
 166  0.750  0.500  0.743- 115 1.09 228 1.31 219 1.31
 167  0.721  0.399  0.502- 168 1.43 169 1.43 182 1.57
 168  0.660  0.365  0.513- 139 1.08 170 1.39 167 1.43
 169  0.706  0.461  0.489- 140 1.11 171 1.41 167 1.43
 170  0.588  0.393  0.511- 141 1.09 168 1.39 172 1.43
 171  0.633  0.489  0.487- 142 1.13 172 1.36 169 1.41
 172  0.576  0.457  0.498- 143 1.14 171 1.36 170 1.43
 173  0.761  0.486  0.539- 117 1.08 116 1.09 177 1.46 229 1.58
 174  0.686  0.588  0.554- 119 1.08 118 1.10 229 1.50 179 1.51
 175  0.779  0.529  0.578- 121 1.09 120 1.11 180 1.51 229 1.56
 176  0.830  0.601  0.545- 122 1.10 123 1.13 181 1.53 229 1.58
 177  0.834  0.450  0.538- 124 1.09 125 1.11 178 1.46 173 1.46
 178  0.831  0.376  0.529- 127 1.11 126 1.12 177 1.46 182 1.54
 179  0.653  0.601  0.532- 129 1.08 128 1.08 130 1.10 174 1.51
 180  0.727  0.468  0.585- 132 1.09 133 1.09 131 1.09 175 1.51
 181  0.869  0.660  0.559- 134 1.08 136 1.09 135 1.09 176 1.53
 182  0.802  0.369  0.506- 138 1.12 137 1.14 178 1.54 167 1.57
 183  0.063  0.209  0.565-   8 1.02  15 1.03 144 1.32
 184  0.049  0.710  0.566-   9 1.01  16 1.06 145 1.29
 185  0.547  0.208  0.566-  10 1.03  17 1.04 146 1.33
 186  0.520  0.707  0.571-  11 1.01  18 1.02 147 1.32
 187  0.440  0.282  0.567-  22 1.02   1 1.07 146 1.31
 188  0.456  0.815  0.563-  23 1.03   2 1.08 147 1.29
 189  0.955  0.272  0.570-  24 1.01   3 1.01 144 1.27
 190  0.979  0.815  0.570-  25 1.01   4 1.03 145 1.29
 191  0.214  0.449  0.566-  19 1.01  26 1.07 148 1.30
 192  0.195  0.964  0.566-  20 1.00  27 1.06 149 1.34
 193  0.711  0.949  0.566-  21 1.00  28 1.09 150 1.29
 194  0.303  0.033  0.568-   5 1.00  12 1.08 149 1.30
 195  0.291  0.552  0.567-   6 1.00  13 1.07 148 1.34
 196  0.792  0.049  0.567-   7 1.00  14 1.06 150 1.34
 197  0.053  0.201  0.659-  44 0.99  52 1.03 151 1.37
 198  0.050  0.711  0.662-  45 0.99  53 1.00 152 1.37
 199  0.544  0.201  0.659-  46 0.98  54 1.02 153 1.36
 200  0.537  0.706  0.662-  55 1.02  47 1.06 154 1.32
 201  0.215  0.447  0.657-  48 1.01  56 1.07 155 1.29
 202  0.201  0.951  0.657-  49 1.00  57 1.06 156 1.35
 203  0.705  0.464  0.661-  58 1.03  50 1.04 157 1.33
 204  0.702  0.960  0.660-  51 1.00  59 1.06 158 1.36
 205  0.453  0.294  0.659-  60 1.01  36 1.07 153 1.28
 206  0.450  0.798  0.659-  61 1.01  37 1.07 154 1.28
 207  0.955  0.287  0.660-  38 1.04  62 1.05 151 1.28
 208  0.957  0.804  0.660-  39 1.00  63 1.03 152 1.31
 209  0.294  0.042  0.658-  64 1.01  40 1.07 156 1.28
 210  0.294  0.550  0.659-  65 1.00  41 1.06 155 1.34
 211  0.801  0.044  0.658-  66 1.02  42 1.07 158 1.28
 212  0.809  0.542  0.659-  67 1.06  43 1.07 157 1.29
 213  0.046  0.204  0.753-  92 1.02  84 1.02 161 1.31
 214  0.046  0.704  0.753-  93 1.02  85 1.02 162 1.31
 215  0.546  0.204  0.753-  94 1.02  86 1.02 159 1.31
 216  0.546  0.704  0.753-  95 1.02  87 1.02 160 1.31
 217  0.204  0.454  0.753-  96 1.02  88 1.02 164 1.31
 218  0.204  0.954  0.753-  97 1.02  89 1.02 163 1.31
 219  0.704  0.454  0.753-  98 1.02  90 1.02 166 1.31
 220  0.704  0.954  0.753-  99 1.02  91 1.02 165 1.31
 221  0.454  0.296  0.753-  76 1.02 100 1.02 159 1.31
 222  0.454  0.796  0.753-  77 1.02 101 1.02 160 1.31
 223  0.954  0.296  0.753-  78 1.02 102 1.02 161 1.31
 224  0.954  0.796  0.753-  79 1.02 103 1.02 162 1.31
 225  0.296  0.046  0.753-  80 1.02 104 1.02 163 1.31
 226  0.296  0.546  0.753-  81 1.02 105 1.02 164 1.31
 227  0.796  0.046  0.753-  82 1.02 106 1.02 165 1.31
 228  0.796  0.546  0.753-  83 1.02 107 1.02 166 1.31
 229  0.763  0.556  0.555- 174 1.50 175 1.56 176 1.58 173 1.58
 230  0.494  0.014  0.552- 304 3.18
 231  0.484  0.517  0.556- 305 3.11
 232  0.992  0.002  0.553- 302 3.17
 233  0.024  0.511  0.556- 303 3.17
 234  0.251  0.246  0.551- 306 3.24
 235  0.248  0.754  0.552- 307 3.22
 236  0.732  0.224  0.559- 308 3.11
 237  0.726  0.775  0.546- 309 3.70
 238  0.006  0.001  0.655- 310 3.12 302 3.22
 239  0.017  0.503  0.656- 311 3.05 303 3.10
 240  0.502  0.001  0.655- 312 3.13 304 3.26
 241  0.503  0.496  0.656- 313 3.08 305 3.16
 242  0.249  0.245  0.654- 314 3.17 306 3.20
 243  0.251  0.755  0.655- 315 3.13 307 3.21
 244  0.740  0.256  0.656- 316 3.03 308 3.05
 245  0.752  0.756  0.654- 309 3.05 317 3.19
 246  0.142  0.106  0.607- 302 3.18 306 3.26
 247  0.147  0.608  0.609- 303 3.19 307 3.20
 248  0.643  0.103  0.609- 304 3.20 308 3.24
 249  0.622  0.631  0.614- 309 3.30 305 3.35
 250  0.356  0.394  0.608- 305 3.14 306 3.26
 251  0.360  0.893  0.609- 304 3.22 307 3.26
 252  0.877  0.375  0.613- 308 3.30 303 3.30
 253  0.855  0.897  0.609- 309 3.16 302 3.26
 254  0.114  0.355  0.608- 306 3.10 303 3.31
 255  0.115  0.865  0.611- 307 3.24 302 3.31
 256  0.590  0.344  0.608- 308 3.21 305 3.25
 257  0.606  0.861  0.611- 309 3.08 304 3.34
 258  0.394  0.141  0.609- 304 3.06 306 3.30
 259  0.388  0.641  0.612- 307 3.20 305 3.28
 260  0.889  0.137  0.610- 302 3.14 308 3.37
 261  0.913  0.648  0.615- 303 3.16 309 3.73
 262  0.000  0.000  0.755- 310 3.13 318 3.27
 263  0.000  0.500  0.755- 311 3.13 319 3.27
 264  0.500  0.000  0.755- 312 3.13 320 3.27
 265  0.500  0.500  0.755- 313 3.13 321 3.27
 266  0.250  0.250  0.755- 314 3.13 322 3.27
 267  0.250  0.750  0.755- 315 3.13 323 3.27
 268  0.750  0.250  0.755- 316 3.13 324 3.27
 269  0.750  0.750  0.755- 317 3.13 325 3.27
 270  0.136  0.114  0.705- 310 3.20 314 3.20
 271  0.136  0.614  0.705- 311 3.20 315 3.20
 272  0.636  0.114  0.705- 312 3.20 316 3.20
 273  0.636  0.614  0.705- 313 3.20 317 3.20
 274  0.364  0.386  0.705- 313 3.20 314 3.20
 275  0.364  0.886  0.705- 312 3.20 315 3.20
 276  0.864  0.386  0.705- 311 3.20 316 3.20
 277  0.864  0.886  0.705- 310 3.20 317 3.20
 278  0.114  0.364  0.705- 314 3.21 311 3.21
 279  0.114  0.864  0.705- 315 3.21 310 3.21
 280  0.614  0.364  0.705- 316 3.21 313 3.21
 281  0.614  0.864  0.705- 317 3.21 312 3.21
 282  0.386  0.136  0.705- 314 3.21 312 3.21
 283  0.386  0.636  0.705- 315 3.21 313 3.21
 284  0.886  0.136  0.705- 316 3.21 310 3.21
 285  0.886  0.636  0.705- 317 3.21 311 3.21
 286  0.135  0.115  0.801- 318 3.22 322 3.22
 287  0.135  0.615  0.801- 319 3.22 323 3.22
 288  0.635  0.115  0.801- 320 3.22 324 3.22
 289  0.635  0.615  0.801- 321 3.22 325 3.22
 290  0.365  0.385  0.801- 321 3.22 322 3.22
 291  0.365  0.885  0.801- 320 3.22 323 3.22
 292  0.865  0.385  0.801- 319 3.22 324 3.22
 293  0.865  0.885  0.801- 318 3.22 325 3.22
 294  0.115  0.365  0.801- 319 3.23 322 3.23
 295  0.115  0.865  0.801- 318 3.23 323 3.23
 296  0.615  0.365  0.801- 321 3.23 324 3.23
 297  0.615  0.865  0.801- 320 3.23 325 3.23
 298  0.385  0.135  0.801- 320 3.23 322 3.23
 299  0.385  0.635  0.801- 321 3.23 323 3.23
 300  0.885  0.135  0.801- 318 3.23 324 3.23
 301  0.885  0.635  0.801- 319 3.23 325 3.23
 302  0.999  0.004  0.603- 260 3.14 232 3.17 246 3.18 238 3.22 253 3.26 255 3.31
 303  0.006  0.502  0.607- 239 3.10 261 3.16 233 3.17 247 3.19 252 3.30 254 3.31
 304  0.496  0.007  0.603- 258 3.06 230 3.18 248 3.20 251 3.22 240 3.26 257 3.34
 305  0.497  0.497  0.605- 231 3.11 250 3.14 241 3.16 256 3.25 259 3.28 249 3.35
 306  0.249  0.250  0.603- 254 3.10 242 3.20 234 3.24 246 3.26 250 3.26 258 3.30
 307  0.251  0.750  0.603- 259 3.20 247 3.20 243 3.21 235 3.22 255 3.24 251 3.26
 308  0.743  0.252  0.608- 244 3.05 236 3.11 256 3.21 248 3.24 252 3.30 260 3.37
 309  0.744  0.763  0.605- 245 3.05 257 3.08 253 3.16 249 3.30 237 3.70 261 3.73
 310  0.000  0.000  0.705- 238 3.12 262 3.13 270 3.20 277 3.20 279 3.21 284 3.21
 311  0.000  0.500  0.705- 239 3.05 263 3.13 271 3.20 276 3.20 278 3.21 285 3.21
 312  0.500  0.000  0.705- 264 3.13 240 3.13 272 3.20 275 3.20 281 3.21 282 3.21
 313  0.500  0.500  0.705- 241 3.08 265 3.13 273 3.20 274 3.20 280 3.21 283 3.21
 314  0.250  0.250  0.705- 266 3.13 242 3.17 270 3.20 274 3.20 282 3.21 278 3.21
 315  0.250  0.750  0.705- 243 3.13 267 3.13 271 3.20 275 3.20 283 3.21 279 3.21
 316  0.750  0.250  0.705- 244 3.03 268 3.13 272 3.20 276 3.20 284 3.21 280 3.21
 317  0.750  0.750  0.705- 269 3.13 245 3.19 273 3.20 277 3.20 285 3.21 281 3.21
 318  0.000  0.000  0.807- 286 3.22 293 3.22 300 3.23 295 3.23 262 3.27
 319  0.000  0.500  0.807- 287 3.22 292 3.22 301 3.23 294 3.23 263 3.27
 320  0.500  0.000  0.807- 288 3.22 291 3.22 298 3.23 297 3.23 264 3.27
 321  0.500  0.500  0.807- 289 3.22 290 3.22 299 3.23 296 3.23 265 3.27
 322  0.250  0.250  0.807- 290 3.22 286 3.22 294 3.23 298 3.23 266 3.27
 323  0.250  0.750  0.807- 291 3.22 287 3.22 299 3.23 295 3.23 267 3.27
 324  0.750  0.250  0.807- 292 3.22 288 3.22 296 3.23 300 3.23 268 3.27
 325  0.750  0.750  0.807- 293 3.22 289 3.22 297 3.23 301 3.23 269 3.27
 

IMPORTANT INFORMATION: All symmetrisations will be switched off!
NOSYMM: (Re-)initialisation of all symmetry stuff for point group C_1.


----------------------------------------------------------------------------------------

                                     Primitive cell                                     

  volume of cell :   20385.2105

  direct lattice vectors                    reciprocal lattice vectors
    18.060800552  0.000000000  0.000000000     0.055368531  0.000015077 -0.000000000
    -0.004918649 18.062799454  0.000000000     0.000000000  0.055362404  0.000000000
     0.000000000  0.000000000 62.487499237     0.000000000 -0.000000000  0.016003201

  length of vectors
    18.060800552 18.062800123 62.487499237     0.055368533  0.055362404  0.016003201

  position of ions in fractional coordinates (direct lattice)
     0.445549749  0.299658642  0.582862429
     0.443109500  0.830481518  0.579235971
     0.957788870  0.268820454  0.586290361
     0.969666234  0.806860829  0.586185909
     0.299303781  0.044693651  0.583620515
     0.301754654  0.548988718  0.582771530
     0.777671776  0.066110630  0.581483430
     0.100442487  0.188473689  0.553966513
     0.079855117  0.676662592  0.556153718
     0.584756719  0.178007930  0.556931767
     0.543225269  0.658722936  0.566179954
     0.350002654  0.055155265  0.559540626
     0.316597242  0.594793787  0.558245384
     0.831183324  0.080501199  0.558238241
     0.074324739  0.199896076  0.580515829
     0.048230507  0.692423340  0.581936707
     0.563578066  0.220098681  0.581517250
     0.511852328  0.710960243  0.587265226
     0.216243279  0.436901096  0.581977059
     0.181686819  0.967551647  0.581301143
     0.691201122  0.956797082  0.581173126
     0.392949896  0.298604773  0.559098582
     0.436205893  0.851741200  0.551907813
     0.908894113  0.296958805  0.564393464
     0.952413328  0.859280184  0.563915097
     0.179825443  0.413649991  0.556688432
     0.158534599  0.933122358  0.555727058
     0.691897371  0.900500353  0.557567270
     0.477698030  0.221532271  0.540395378
     0.501578809  0.743698621  0.540265775
     0.994649653  0.250984519  0.540354476
     0.021352120  0.782353561  0.541309868
     0.241883019  0.513056766  0.539456653
     0.265480785  0.986037740  0.539857307
     0.778581841  0.974965501  0.540978258
     0.452099414  0.306319442  0.675517558
     0.439663664  0.807474391  0.675586236
     0.947788366  0.292691694  0.676592907
     0.946510303  0.805871189  0.675394914
     0.299504587  0.046515558  0.675448086
     0.294502907  0.553550387  0.676187248
     0.810650171  0.051156885  0.674404542
     0.830597529  0.538301090  0.674867770
     0.085511388  0.171952271  0.649069946
     0.085750719  0.681559103  0.653037720
     0.572212265  0.165518990  0.650421779
     0.571099393  0.667752029  0.653898671
     0.186218497  0.411163694  0.647635272
     0.169343426  0.919285690  0.647881782
     0.659258511  0.443253557  0.652734986
     0.665290906  0.930268173  0.651219729
     0.060035993  0.194220679  0.674853485
     0.044504662  0.703861170  0.677353191
     0.553246344  0.201405232  0.675449002
     0.541396931  0.701129892  0.678533359
     0.204892321  0.439647395  0.673833933
     0.195781922  0.943516008  0.674070125
     0.712017332  0.445188223  0.676460374
     0.698955987  0.956133006  0.676361294
     0.417277644  0.324655503  0.650228748
     0.419246628  0.831842273  0.649369994
     0.918083354  0.319301552  0.651461843
     0.927314603  0.838829838  0.649785849
     0.328548425  0.075744673  0.650370500
     0.325261108  0.585846583  0.651267774
     0.834940026  0.075439192  0.648278345
     0.840853170  0.577387282  0.649194361
     0.997743179  0.249854701  0.632611882
     0.017497080  0.763752350  0.634091120
     0.487747273  0.237197111  0.632696738
     0.500879346  0.744954044  0.633978366
     0.249127747  0.997025573  0.631193934
     0.259969260  0.501216512  0.631478598
     0.746043918  0.999562731  0.631902145
     0.734728428  0.522069809  0.634177502
     0.448745018  0.301283966  0.768889017
     0.448745007  0.801283913  0.768889017
     0.948744965  0.301283966  0.768889017
     0.948745007  0.801283913  0.768889017
     0.301275995  0.051294496  0.768872961
     0.301276011  0.551294499  0.768872961
     0.801275943  0.051294496  0.768872961
     0.801275984  0.551294499  0.768872961
     0.078771004  0.171180501  0.743441971
     0.078771006  0.671180448  0.743441971
     0.578771004  0.171180501  0.743441971
     0.578770992  0.671180448  0.743441971
     0.171199499  0.421174482  0.743421032
     0.171199501  0.921174508  0.743421032
     0.671199512  0.421174482  0.743421032
     0.671199501  0.921174508  0.743421032
     0.051256000  0.198714991  0.768889017
     0.051256002  0.698714925  0.768889017
     0.551256027  0.198714991  0.768889017
     0.551256016  0.698714925  0.768889017
     0.198723491  0.448703970  0.768872046
     0.198723493  0.948703970  0.768872046
     0.698723518  0.448703970  0.768872046
     0.698723507  0.948703970  0.768872046
     0.421231519  0.328817467  0.743441971
     0.421231508  0.828817440  0.743441971
     0.921231466  0.328817467  0.743441971
     0.921231508  0.828817440  0.743441971
     0.328800503  0.078824997  0.743421032
     0.328800492  0.578824964  0.743421032
     0.828800477  0.078824997  0.743421032
     0.828800519  0.578824964  0.743421032
     0.000003500  0.250001478  0.725821992
     0.000003500  0.750001452  0.725821992
     0.500003506  0.250001478  0.725821992
     0.500003495  0.750001452  0.725821992
     0.250000502  0.000000000  0.725803983
     0.250000517  0.500000000  0.725803983
     0.750000502  0.000000000  0.725803983
     0.750000490  0.500000000  0.725803983
     0.718959518  0.450804737  0.546480397
     0.740477012  0.512253713  0.525141778
     0.652175174  0.544830265  0.561209844
     0.685407255  0.637744613  0.563299923
     0.837780493  0.513069121  0.579762017
     0.774182917  0.579057643  0.587708491
     0.873231546  0.559477826  0.542947463
     0.811032383  0.620101522  0.528811946
     0.869338164  0.480305031  0.526544646
     0.864401559  0.450053901  0.552920833
     0.887999516  0.352717667  0.528435589
     0.796131149  0.338690267  0.538767062
     0.618720294  0.554798155  0.527184850
     0.692753977  0.611591588  0.519211026
     0.618426197  0.651035379  0.532426072
     0.726473160  0.458225666  0.602425485
     0.742515468  0.415022678  0.578106412
     0.668705987  0.476302596  0.581385083
     0.838751053  0.676631177  0.572842725
     0.875507154  0.710079367  0.548869729
     0.921306342  0.636328315  0.563403520
     0.840981485  0.399405962  0.494488400
     0.804035091  0.308990293  0.501052365
     0.671955805  0.318370148  0.523336302
     0.753400285  0.489086926  0.480971505
     0.542643121  0.366185410  0.519788962
     0.623629293  0.539136456  0.477129184
     0.518733076  0.482257385  0.497230953
     0.003460601  0.244162211  0.557943322
     0.016629145  0.768727213  0.558726926
     0.487591468  0.238427536  0.556907897
     0.491708966  0.755857615  0.557778555
     0.246987949  0.503707507  0.556786352
     0.255483864  0.994588319  0.557031945
     0.760782842  0.989776525  0.557259896
     0.001002283  0.246401863  0.649714118
     0.006780817  0.760886226  0.650822372
     0.493811765  0.245356732  0.649549290
     0.494798111  0.751125832  0.651030605
     0.255668848  0.497778061  0.648755064
     0.249948908  0.998724033  0.648419548
     0.750716955  0.510372373  0.651192441
     0.751225744  0.003257122  0.649029899
     0.499988984  0.249994984  0.743277021
     0.499989025  0.749994958  0.743277021
     0.999988984  0.249994984  0.743277021
     0.999989025  0.749994958  0.743277021
     0.250000502  0.000001000  0.743255960
     0.250000517  0.500001003  0.743255960
     0.750000502  0.000001000  0.743255960
     0.750000491  0.500001003  0.743255960
     0.720858525  0.398576194  0.502323982
     0.659646561  0.364910135  0.513079307
     0.706226875  0.461207310  0.488968649
     0.588374434  0.393172534  0.511365554
     0.633439402  0.488539203  0.487462367
     0.576056104  0.456566023  0.498186191
     0.761171425  0.486333895  0.539476676
     0.686096656  0.587905166  0.553677393
     0.778710708  0.528812129  0.578142613
     0.829704086  0.601290122  0.545272208
     0.833516978  0.450449250  0.537548617
     0.830572594  0.375587995  0.528750776
     0.653164099  0.601328612  0.531722074
     0.727074983  0.467803063  0.585142365
     0.868685972  0.660372177  0.558601595
     0.801920267  0.368748052  0.505703411
     0.062936146  0.208703392  0.564616165
     0.049188746  0.709726889  0.565651711
     0.547448846  0.208438572  0.565816112
     0.519791122  0.706664464  0.571218804
     0.440188617  0.281669963  0.566540866
     0.455911660  0.814653506  0.563001828
     0.954608084  0.271902229  0.570113053
     0.979116245  0.814898910  0.570122088
     0.213772870  0.448941190  0.566269267
     0.195006769  0.963547080  0.565791937
     0.711369484  0.948827288  0.566398504
     0.302588195  0.033476370  0.567913211
     0.290676188  0.551638529  0.567141511
     0.791524517  0.048833034  0.566851659
     0.052855355  0.200720169  0.658645409
     0.049747728  0.710769855  0.661609747
     0.544292207  0.200522745  0.659349651
     0.536781108  0.705586388  0.662289448
     0.214716781  0.446594015  0.657121911
     0.201373723  0.950778216  0.657356272
     0.704669287  0.463962981  0.661026745
     0.701671285  0.960134517  0.659509596
     0.452961316  0.293675844  0.658850406
     0.449530600  0.798309766  0.658937826
     0.955116099  0.286632393  0.660179468
     0.956759314  0.803960810  0.659671493
     0.294311455  0.041732268  0.658490776
     0.293541234  0.550298418  0.659271633
     0.800931099  0.044373694  0.657612182
     0.808766944  0.541930088  0.658995088
     0.045862501  0.204119496  0.752725994
     0.045862500  0.704119456  0.752725994
     0.545862507  0.204119496  0.752725994
     0.545862496  0.704119456  0.752725994
     0.204119002  0.454101003  0.752704994
     0.204118991  0.954100951  0.752704994
     0.704118976  0.454101003  0.752704994
     0.704118964  0.954100951  0.752704994
     0.454140018  0.295888490  0.752726971
     0.454140007  0.795888516  0.752726971
     0.954140018  0.295888490  0.752726971
     0.954140060  0.795888516  0.752726971
     0.295882492  0.045900498  0.752704994
     0.295882481  0.545900528  0.752704994
     0.795882439  0.045900498  0.752704994
     0.795882481  0.545900528  0.752704994
     0.762800955  0.555988638  0.554816781
     0.493958988  0.014266650  0.551686516
     0.483912903  0.517218704  0.555799521
     0.992470653  0.002292517  0.552782072
     0.024407345  0.511121889  0.556367140
     0.250762156  0.245717526  0.551136906
     0.248412031  0.754105734  0.551883821
     0.731760120  0.224411435  0.558535786
     0.725811219  0.775250792  0.546257818
     0.006091001  0.000813919  0.654993922
     0.017383486  0.502947643  0.656208642
     0.501912758  0.000977861  0.654664815
     0.502824279  0.495880459  0.655598718
     0.249076083  0.245220198  0.654176437
     0.250793498  0.755074783  0.654786727
     0.740335398  0.255951753  0.656376706
     0.751941648  0.756297631  0.653735369
     0.142149294  0.105652830  0.606979558
     0.147081016  0.607983551  0.609107791
     0.642792671  0.102766953  0.609367547
     0.621666070  0.630503672  0.614130524
     0.356440588  0.394436564  0.607745946
     0.360187229  0.892995318  0.608679116
     0.876574331  0.374909756  0.612855183
     0.855249366  0.896512701  0.609312971
     0.114018131  0.354580977  0.608107652
     0.115476852  0.864931966  0.610506569
     0.590399541  0.344062803  0.608034456
     0.605715857  0.860828846  0.610710162
     0.393644427  0.140507490  0.608671791
     0.387737318  0.640831061  0.611525633
     0.889341136  0.137068327  0.609730596
     0.913178300  0.648376698  0.614544486
     0.000000000  0.000000000  0.754927972
     0.000000000  0.500000000  0.754927972
     0.500000000  0.000000000  0.754927972
     0.499999989  0.500000000  0.754927972
     0.250000496  0.250000000  0.754939022
     0.250000511  0.749999974  0.754939022
     0.750000470  0.250000000  0.754939022
     0.750000458  0.749999974  0.754939022
     0.135790500  0.114209997  0.704782994
     0.135790502  0.614209984  0.704782994
     0.635790447  0.114209997  0.704782994
     0.635790488  0.614209984  0.704782994
     0.364209516  0.385789989  0.704782994
     0.364209505  0.885789963  0.704782994
     0.864209542  0.385789989  0.704782994
     0.864209531  0.885789963  0.704782994
     0.114217990  0.364218986  0.704780979
     0.114217992  0.864218986  0.704780979
     0.614218004  0.364218986  0.704780979
     0.614217992  0.864218986  0.704780979
     0.385782012  0.135781489  0.704782017
     0.385782001  0.635781489  0.704782017
     0.885781985  0.135781489  0.704782017
     0.885782027  0.635781489  0.704782017
     0.134667000  0.115332001  0.801256025
     0.134666989  0.615331988  0.801256025
     0.634666987  0.115332001  0.801256025
     0.634666976  0.615331988  0.801256025
     0.365333002  0.384667985  0.801256025
     0.365332990  0.884667959  0.801256025
     0.865332949  0.384667985  0.801256025
     0.865332938  0.884667959  0.801256025
     0.115328503  0.365337004  0.801264999
     0.115328505  0.865336978  0.801264999
     0.615328503  0.365337004  0.801264999
     0.615328492  0.865336978  0.801264999
     0.384671513  0.134662996  0.801264999
     0.384671501  0.634662970  0.801264999
     0.884671486  0.134662996  0.801264999
     0.884671528  0.634662970  0.801264999
     0.998762466  0.003862603  0.603493631
     0.006044299  0.502361641  0.606755392
     0.495892088  0.006952677  0.602559789
     0.496763664  0.497107795  0.605087272
     0.249126878  0.250157997  0.602950554
     0.251251474  0.750169929  0.603415246
     0.742524110  0.252093033  0.607562499
     0.744020188  0.762585996  0.605082572
     0.000000500  0.000000500  0.704828963
     0.000000500  0.500000475  0.704828963
     0.500000475  0.000000500  0.704828963
     0.500000464  0.500000475  0.704828963
     0.249999994  0.249999472  0.704824995
     0.250000010  0.749999498  0.704824995
     0.749999994  0.249999472  0.704824995
     0.749999983  0.749999498  0.704824995
     0.000000000  0.000000000  0.807317968
     0.000000000  0.500000000  0.807317968
     0.500000000  0.000000000  0.807317968
     0.499999989  0.500000000  0.807317968
     0.249999994  0.250000000  0.807317968
     0.250000010  0.749999974  0.807317968
     0.749999994  0.250000000  0.807317968
     0.749999983  0.749999974  0.807317968

  ion indices of the primitive-cell ions
   primitive index   ion index
                 1           1
                 2           2
                 3           3
                 4           4
                 5           5
                 6           6
                 7           7
                 8           8
                 9           9
                10          10
                11          11
                12          12
                13          13
                14          14
                15          15
                16          16
                17          17
                18          18
                19          19
                20          20
                21          21
                22          22
                23          23
                24          24
                25          25
                26          26
                27          27
                28          28
                29          29
                30          30
                31          31
                32          32
                33          33
                34          34
                35          35
                36          36
                37          37
                38          38
                39          39
                40          40
                41          41
                42          42
                43          43
                44          44
                45          45
                46          46
                47          47
                48          48
                49          49
                50          50
                51          51
                52          52
                53          53
                54          54
                55          55
                56          56
                57          57
                58          58
                59          59
                60          60
                61          61
                62          62
                63          63
                64          64
                65          65
                66          66
                67          67
                68          68
                69          69
                70          70
                71          71
                72          72
                73          73
                74          74
                75          75
                76          76
                77          77
                78          78
                79          79
                80          80
                81          81
                82          82
                83          83
                84          84
                85          85
                86          86
                87          87
                88          88
                89          89
                90          90
                91          91
                92          92
                93          93
                94          94
                95          95
                96          96
                97          97
                98          98
                99          99
               100         100
               101         101
               102         102
               103         103
               104         104
               105         105
               106         106
               107         107
               108         108
               109         109
               110         110
               111         111
               112         112
               113         113
               114         114
               115         115
               116         116
               117         117
               118         118
               119         119
               120         120
               121         121
               122         122
               123         123
               124         124
               125         125
               126         126
               127         127
               128         128
               129         129
               130         130
               131         131
               132         132
               133         133
               134         134
               135         135
               136         136
               137         137
               138         138
               139         139
               140         140
               141         141
               142         142
               143         143
               144         144
               145         145
               146         146
               147         147
               148         148
               149         149
               150         150
               151         151
               152         152
               153         153
               154         154
               155         155
               156         156
               157         157
               158         158
               159         159
               160         160
               161         161
               162         162
               163         163
               164         164
               165         165
               166         166
               167         167
               168         168
               169         169
               170         170
               171         171
               172         172
               173         173
               174         174
               175         175
               176         176
               177         177
               178         178
               179         179
               180         180
               181         181
               182         182
               183         183
               184         184
               185         185
               186         186
               187         187
               188         188
               189         189
               190         190
               191         191
               192         192
               193         193
               194         194
               195         195
               196         196
               197         197
               198         198
               199         199
               200         200
               201         201
               202         202
               203         203
               204         204
               205         205
               206         206
               207         207
               208         208
               209         209
               210         210
               211         211
               212         212
               213         213
               214         214
               215         215
               216         216
               217         217
               218         218
               219         219
               220         220
               221         221
               222         222
               223         223
               224         224
               225         225
               226         226
               227         227
               228         228
               229         229
               230         230
               231         231
               232         232
               233         233
               234         234
               235         235
               236         236
               237         237
               238         238
               239         239
               240         240
               241         241
               242         242
               243         243
               244         244
               245         245
               246         246
               247         247
               248         248
               249         249
               250         250
               251         251
               252         252
               253         253
               254         254
               255         255
               256         256
               257         257
               258         258
               259         259
               260         260
               261         261
               262         262
               263         263
               264         264
               265         265
               266         266
               267         267
               268         268
               269         269
               270         270
               271         271
               272         272
               273         273
               274         274
               275         275
               276         276
               277         277
               278         278
               279         279
               280         280
               281         281
               282         282
               283         283
               284         284
               285         285
               286         286
               287         287
               288         288
               289         289
               290         290
               291         291
               292         292
               293         293
               294         294
               295         295
               296         296
               297         297
               298         298
               299         299
               300         300
               301         301
               302         302
               303         303
               304         304
               305         305
               306         306
               307         307
               308         308
               309         309
               310         310
               311         311
               312         312
               313         313
               314         314
               315         315
               316         316
               317         317
               318         318
               319         319
               320         320
               321         321
               322         322
               323         323
               324         324
               325         325

----------------------------------------------------------------------------------------

 
 
 KPOINTS: Automatic Mesh                          

Automatic generation of k-mesh.
 Grid dimensions read from file:
 generate k-points for:    3    3    1

 Generating k-lattice:

  Cartesian coordinates                     Fractional coordinates (reciprocal lattice)
     0.018456177  0.000005026 -0.000000000     0.333333333  0.000000000  0.000000000
     0.000000000  0.018454135  0.000000000     0.000000000  0.333333333  0.000000000
     0.000000000 -0.000000000  0.016003201     0.000000000  0.000000000  1.000000000

  Length of vectors
     0.018456178  0.018454135  0.016003201

  Shift w.r.t. Gamma in fractional coordinates (k-lattice)
     0.000000000  0.000000000  0.000000000

 
 Subroutine IBZKPT returns following result:
 ===========================================
 
 Found      5 irreducible k-points:
 
 Following reciprocal coordinates:
            Coordinates               Weight
  0.000000  0.000000  0.000000      1.000000
  0.333333  0.000000  0.000000      2.000000
  0.000000  0.333333  0.000000      2.000000
  0.333333  0.333333  0.000000      2.000000
 -0.333333  0.333333  0.000000      2.000000
 
 Following cartesian coordinates:
            Coordinates               Weight
  0.000000  0.000000  0.000000      1.000000
  0.018456  0.000005  0.000000      2.000000
  0.000000  0.018454  0.000000      2.000000
  0.018456  0.018459  0.000000      2.000000
 -0.018456  0.018449  0.000000      2.000000
 


--------------------------------------------------------------------------------------------------------




 Dimension of arrays:
   k-points           NKPTS =      5   k-points in BZ     NKDIM =      5   number of bands    NBANDS=    732
   number of dos      NEDOS =    301   number of ions     NIONS =    325
   non local maximal  LDIM  =      5   non local SUM 2l+1 LMDIM =     13
   total plane-waves  NPLWV = ******
   max r-space proj   IRMAX =   3336   max aug-charges    IRDMAX=  19845
   dimension x,y,z NGX =   100 NGY =  100 NGZ =  350
   dimension x,y,z NGXF=   200 NGYF=  200 NGZF=  700
   support grid    NGXF=   200 NGYF=  200 NGZF=  700
   ions per type =             143  39  47  72  24
   NGX,Y,Z   is equivalent  to a cutoff of   9.20,  9.20,  9.31 a.u.
   NGXF,Y,Z  is equivalent  to a cutoff of  18.41, 18.41, 18.62 a.u.

 SYSTEM =  PSC                                     
 POSCAR =   H  C  N  I Pb                          

 Startparameter for this run:
   NWRITE =      2    write-flag & timer
   PREC   = normal    normal or accurate (medium, high low for compatibility)
   ISTART =      0    job   : 0-new  1-cont  2-samecut
   ICHARG =      1    charge: 1-file 2-atom 10-const
   ISPIN  =      1    spin polarized calculation?
   LNONCOLLINEAR =      F non collinear calculations
   LSORBIT =      F    spin-orbit coupling
   INIWAV =      1    electr: 0-lowe 1-rand  2-diag
   LASPH  =      F    aspherical Exc in radial PAW
 Electronic Relaxation 1
   ENCUT  =  500.0 eV  36.75 Ry    6.06 a.u.  32.93 32.93113.93*2*pi/ulx,y,z
   ENINI  =  500.0     initial cutoff
   ENAUG  =  644.9 eV  augmentation charge cutoff
   NELM   =    600;   NELMIN=  2; NELMDL=  0     # of ELM steps 
   EDIFF  = 0.1E-03   stopping-criterion for ELM
   LREAL  =      T    real-space projection
   NLSPLINE    = F    spline interpolate recip. space projectors
   LCOMPAT=      F    compatible to vasp.4.4
   GGA_COMPAT  = F    GGA compatible to vasp.4.4-vasp.4.6
   LMAXPAW     = -100 max onsite density
   LMAXMIX     =    2 max onsite mixed and CHGCAR
   VOSKOWN=      0    Vosko Wilk Nusair interpolation
   ROPT   =   -0.00050  -0.00050  -0.00050  -0.00050
   ROPT   =   -0.00050
 Ionic relaxation
   EDIFFG = 0.1E-02   stopping-criterion for IOM
   NSW    =      0    number of steps for IOM
   NBLOCK =      1;   KBLOCK =      1    inner block; outer block 
   IBRION =     -1    ionic relax: 0-MD 1-quasi-New 2-CG
   NFREE  =      0    steps in history (QN), initial steepest desc. (CG)
   ISIF   =      2    stress and relaxation
   IWAVPR =     10    prediction:  0-non 1-charg 2-wave 3-comb
   ISYM   =      0    0-nonsym 1-usesym 2-fastsym
   LCORR  =      T    Harris-Foulkes like correction to forces

   POTIM  = 0.5000    time-step for ionic-motion
   TEIN   =    0.0    initial temperature
   TEBEG  =    0.0;   TEEND  =   0.0 temperature during run
   SMASS  =  -3.00    Nose mass-parameter (am)
   estimated Nose-frequenzy (Omega)   =  0.10E-29 period in steps = 0.13E+47 mass=  -0.745E-26a.u.
   SCALEE = 1.0000    scale energy and forces
   NPACO  =    256;   APACO  = 16.0  distance and # of slots for P.C.
   PSTRESS=    0.0 pullay stress

  Mass of Ions in am
   POMASS =   1.00 12.01 14.00126.90207.20
  Ionic Valenz
   ZVAL   =   1.00  4.00  5.00  7.00  4.00
  Atomic Wigner-Seitz radii
   RWIGS  =  -1.00 -1.00 -1.00 -1.00 -1.00
  virtual crystal weights 
   VCA    =   1.00  1.00  1.00  1.00  1.00
   NELECT =    1134.0000    total number of electrons
   NUPDOWN=      -1.0000    fix difference up-down

 DOS related values:
   EMIN   =  10.00;   EMAX   =-10.00  energy-range for DOS
   EFERMI =   0.00
   ISMEAR =     0;   SIGMA  =   0.05  broadening in eV -4-tet -1-fermi 0-gaus

 Electronic relaxation 2 (details)
   IALGO  =     38    algorithm
   LDIAG  =      T    sub-space diagonalisation (order eigenvalues)
   LSUBROT=      F    optimize rotation matrix (better conditioning)
   TURBO    =      0    0=normal 1=particle mesh
   IRESTART =      0    0=no restart 2=restart with 2 vectors
   NREBOOT  =      0    no. of reboots
   NMIN     =      0    reboot dimension
   EREF     =   0.00    reference energy to select bands
   IMIX   =      4    mixing-type and parameters
     AMIX     =   0.40;   BMIX     =  0.01
     AMIX_MAG =   1.60;   BMIX_MAG =  0.01
     AMIN     =   0.01
     WC   =   100.;   INIMIX=   1;  MIXPRE=   1;  MAXMIX= -45

 Intra band minimization:
   WEIMIN = 0.0000     energy-eigenvalue tresh-hold
   EBREAK =  0.34E-07  absolut break condition
   DEPER  =   0.30     relativ break condition  

   TIME   =   0.40     timestep for ELM

  volume/ion in A,a.u.               =      62.72       423.28
  Fermi-wavevector in a.u.,A,eV,Ry     =   0.624944  1.180972  5.313816  0.390554
  Thomas-Fermi vector in A             =   1.685677
 
 Write flags
   LWAVE        =      F    write WAVECAR
   LDOWNSAMPLE  =      F    k-point downsampling of WAVECAR
   LCHARG       =      T    write CHGCAR
   LVTOT        =      T    write LOCPOT, total local potential
   LVHAR        =      F    write LOCPOT, Hartree potential only
   LELF         =      F    write electronic localiz. function (ELF)
   LORBIT       =      0    0 simple, 1 ext, 2 COOP (PROOUT), +10 PAW based schemes


 Dipole corrections
   LMONO  =      F    monopole corrections only (constant potential shift)
   LDIPOL =      T    correct potential (dipole corrections)
   IDIPOL =      3    1-x, 2-y, 3-z, 4-all directions 
   EPSILON=  1.0000000 bulk dielectric constant

 Exchange correlation treatment:
   GGA     =    --    GGA type
   LEXCH   =     8    internal setting for exchange type
   VOSKOWN=      0    Vosko Wilk Nusair interpolation
   LHFCALC =     F    Hartree Fock is set to
   LHFONE  =     F    Hartree Fock one center treatment
   AEXX    =    0.0000 exact exchange contribution

 Linear response parameters
   LEPSILON=     F    determine dielectric tensor
   LRPA    =     F    only Hartree local field effects (RPA)
   LNABLA  =     F    use nabla operator in PAW spheres
   LVEL    =     F    velocity operator in full k-point grid
   LINTERFAST=   F  fast interpolation
   KINTER  =     0    interpolate to denser k-point grid
   CSHIFT  =0.1000    complex shift for real part using Kramers Kronig
   OMEGAMAX=  -1.0    maximum frequency
   DEG_THRESHOLD= 0.2000000E-02 threshold for treating states as degnerate
   RTIME   =   -0.100 relaxation time in fs
  (WPLASMAI=    0.000 imaginary part of plasma frequency in eV, 0.658/RTIME)
   DFIELD  = 0.0000000 0.0000000 0.0000000 field for delta impulse in time
 
 Orbital magnetization related:
   ORBITALMAG=     F  switch on orbital magnetization
   LCHIMAG   =     F  perturbation theory with respect to B field
   DQ        =  0.001000  dq finite difference perturbation B field
   LLRAUG    =     F  two centre corrections for induced B field



--------------------------------------------------------------------------------------------------------


 Static calculation
 charge density and potential will be updated during run
 non-spin polarized calculation
 Variant of blocked Davidson
 Davidson routine will perform the subspace rotation
 perform sub-space diagonalisation
    after iterative eigenvector-optimisation
 modified Broyden-mixing scheme, WC =      100.0
 initial mixing is a Kerker type mixing with AMIX =  0.4000 and BMIX =      0.0100
 Hartree-type preconditioning will be used
 using additional bands           165
 real space projection scheme for non local part
[...]
     13.54561      0.00000     45.35368        -0.003834      0.001707      0.012474
     13.54315      9.03140     45.35368        -0.006813      0.005725      0.011573
     12.98277      8.14280     34.14819        -0.223532     -0.188957     -0.156131
     13.37109      9.25274     32.81480        -0.083678     -0.354400     -0.550649
     11.77613      9.84116     35.06860        -0.117799      0.297777      0.167831
     12.37587     11.51945     35.19920         0.102647      0.303495      0.296541
     15.12846      9.26746     36.22788        -0.356485     -0.042289     -0.399400
     13.97952     10.45940     36.72443        -0.265747      0.153316      0.258625
     15.76851     10.10574     33.92743        -0.413146      0.171574     -0.055000
     14.64484     11.20077     33.04414         0.123401     -0.158633      1.134746
     15.69858      8.67565     32.90246         0.256268      0.423516     -0.156611
     15.60957      8.12923     34.55064        -0.251908     -0.057452     -0.192782
     16.03625      6.37107     33.02062        -0.344982      0.031019      0.160822
     14.37710      6.11769     33.66621         0.219143      0.028584      0.008368
     11.17185     10.02121     32.94246        -0.180447     -0.243431     -0.211049
     12.50868     11.04706     32.44420         0.537745      0.224349     -0.469303
     11.16607     11.75952     33.26997         0.002908      0.024016      0.021364
     13.11843      8.27684     37.64406         0.368720      0.262914      0.083855
     13.40838      7.49647     36.12442         0.130513     -0.365604     -0.144458
     12.07502      8.60336     36.32930        -0.106244      0.209160     -0.143244
     15.14519     12.22185     35.79551        -0.200035      0.145041      0.257069
     15.80887     12.82602     34.29750         0.093479      0.090268      0.010653
     16.63640     11.49387     35.20568         0.288102      0.157874      0.194009
     15.18683      7.21439     30.89934        -0.714300     -0.440731      0.544888
     14.52000      5.58123     31.30951        -0.070668      0.522162      0.087315
     12.13449      5.75066     32.70198        -0.100772     -0.395714      0.257589
     13.60461      8.83428     30.05471        -0.498857     -0.227493      0.114796
      9.79877      6.61433     32.48031         0.056716      0.204438     -0.014162
     11.26059      9.73831     29.81461         0.122786     -0.949135      0.694413
      9.36636      8.71092     31.07072         1.157094     -0.649341      0.068985
      0.06130      4.41025     34.86448         1.813607     -1.026352     -2.291194
      0.29655     13.88537     34.91345         0.329008      0.394247     -2.084036
      8.80512      4.30667     34.79978         1.091316     -0.975222      0.349321
      8.87694     13.65290     34.85419         1.271532     -1.928972     -1.332403
      4.45832      9.09837     34.79219         1.408607      1.518216      0.741647
      4.60935     17.96505     34.80753        -1.742190     -0.976211      0.605451
     13.73548     17.87813     34.82178         1.026896      1.626587      0.686281
      0.01689      4.45071     40.59901         2.567102     -2.226174      1.292952
      0.11872     13.74374     40.66826         1.187303     -1.721991      2.227793
      8.91743      4.43183     40.58871         2.436202     -2.329228      1.136680
      8.93276     13.56744     40.68127         1.398872     -1.568242      0.493653
      4.61514      8.99127     40.53908         1.192988      1.892748      0.364832
      4.50937     18.03975     40.51812        -2.532142     -2.620424      0.465762
     13.55604      9.21875     40.69139        -1.776384     -1.005539     -0.971004
     13.56772      0.05883     40.55626        -2.512550     -2.245562      0.765197
      9.02897      4.51561     46.44552         0.022008     -0.005665      0.044892
      9.02651     13.54701     46.44552         0.013134      0.001783      0.047299
     18.05937      4.51561     46.44552         0.018298     -0.001400      0.051181
     18.05691     13.54701     46.44552         0.031457     -0.012890      0.056373
      4.51521      0.00002     46.44421        -0.003239     -0.003338      0.060286
      4.51275      9.03142     46.44421         0.004337      0.008387      0.053841
     13.54561      0.00002     46.44421        -0.001729      0.000657      0.053418
     13.54315      9.03142     46.44421        -0.017241     -0.013696      0.055948
     13.01732      7.19940     31.38897         0.255862      0.157013     -0.440652
     11.91195      6.59130     32.06104         0.952192      0.555834     -0.561224
     12.75275      8.33070     30.55443         0.406360     -0.913706      0.748966
     10.62458      7.10180     31.95395        -0.054599      0.679929     -0.709924
     11.43802      8.82439     30.46030         1.144560      1.502514     -1.523554
     10.40179      8.24686     31.13041        -2.087928     -0.679480      1.104366
     13.74497      8.78455     33.71055        -0.938914      1.699982      1.439915
     12.38856     10.61921     34.59792         0.005101     -0.240248      0.148284
     14.06154      9.55183     36.12669         0.098805      0.791182     -0.460885
     14.98216     10.86098     34.07270        -0.522720     -0.000109     -0.391055
     15.05177      8.13637     33.59007         1.453376      0.439359      0.251696
     14.99896      6.78417     33.04031        -0.056828     -2.290154     -0.632305
     11.79371     10.86168     33.22598        -0.210556      0.151590      0.298456
     13.12926      8.44983     36.56408        -0.172664     -0.183700      0.069703
     15.68592     11.92817     34.90562        -0.623568     -0.324446     -0.403535
     14.48151      6.66062     31.60014        -0.660026      0.518691     -0.996086
      1.13565      3.76977     35.28145        -0.314876      0.102113     -0.255255
      0.88490     12.81965     35.34616         0.366784     -1.167898      2.099623
      9.88634      3.76498     35.35643        -0.350756      0.426512      0.261751
      9.38437     12.76434     35.69403        -0.373351      0.797926     -0.145125
      7.94877      5.08775     35.40172         0.120926      0.855213      1.753005
      8.23012     14.71492     35.18058        -1.256770      1.957179      1.660351
     17.23965      4.91132     35.62494        -1.607629      0.945205      1.533005
     17.67962     14.71936     35.62550        -0.980460      0.289808      1.574778
      3.85870      8.10913     35.38475        -1.557102     -1.596851     -2.193237
      3.51724     17.40436     35.35492         0.201276     -0.535861     -2.989481
     12.84324     17.13848     35.39283        -1.142361     -2.005493     -1.632977
      5.46482      0.60468     35.48748         2.079997      1.061269     -1.784692
      5.24713      9.96414     35.43925        -0.142612      0.675069     -2.768141
     14.29533      0.88206     35.42114         1.183137     -0.503827     -2.869818
      0.95362      3.62557     41.15710        -2.422281      2.129507     -0.147888
      0.89499     12.83849     41.34234        -2.338284      2.663685     -1.672809
      9.82937      3.62200     41.20111        -2.500204      2.575175     -0.107553
      9.69123     12.74487     41.38481         1.043915     -1.096645     -0.820080
      3.87576      8.06674     41.06190        -0.641463     -0.603972      2.079897
      3.63229     17.17372     41.07655         1.606648      1.550050      1.306603
     12.72461      8.38047     41.30591         0.121515     -0.005966     -0.251104
     12.66802     17.34272     41.21111         1.952890      1.577663      1.284343
      8.17940      5.30461     41.16991        -0.769880      1.301422      2.349544
      8.11496     14.41971     41.17538        -1.354687      1.483857      2.104832
     17.24875      5.17738     41.25296        -2.042532      1.772546      0.951692
     17.27588     14.52178     41.22122         0.354405     -0.082595     -1.623254
      5.31530      0.75380     41.14744         1.070013      1.056059      2.470679
      5.29888      9.93993     41.19624        -1.353915     -1.814272      1.631741
     14.46524      0.80151     41.09254         1.276943      1.099175      2.285444
     14.60431      9.78877     41.17896         2.421070      1.349355      0.913608
      0.82731      3.68697     47.03596         0.014707     -0.017986     -0.094782
      0.82485     12.71837     47.03596         0.004136     -0.010549     -0.093684
      9.85771      3.68697     47.03596         0.011995     -0.016513     -0.090099
      9.85525     12.71837     47.03596         0.020248     -0.017005     -0.082361
      3.68432      8.20234     47.03465        -0.012393     -0.018028     -0.071857
      3.68186     17.23373     47.03465        -0.008243     -0.007335     -0.076189
     12.71472      8.20234     47.03465         0.001274     -0.002774     -0.083577
     12.71226     17.23373     47.03465        -0.006245     -0.013924     -0.072372
      8.20068      5.34457     47.03603        -0.028850      0.022526     -0.093402
      8.19822     14.37597     47.03603        -0.020532      0.019067     -0.096975
     17.23108      5.34457     47.03603        -0.024807      0.022207     -0.106647
     17.22862     14.37597     47.03603        -0.033122      0.023791     -0.094492
      5.34365      0.82909     47.03465         0.010070      0.011376     -0.074979
      5.34119      9.86049     47.03465         0.008003      0.003740     -0.076072
     14.37405      0.82909     47.03465         0.013699      0.009352     -0.076564
     14.37159      9.86049     47.03465         0.018943      0.020935     -0.075868
     13.77406     10.04271     34.66911         1.577735     -1.364426     -0.619898
      8.92122      0.25770     34.47351        -0.100750     -0.018720      0.033529
      8.73731      9.34242     34.73052         0.062646     -0.125645      0.014643
     17.92480      0.04141     34.54197        -0.001312      0.038779     -0.022877
      0.43830      9.23229     34.76599         0.002556     -0.107523     -0.091128
      4.52776      4.43835     34.43917         0.014533      0.041537      0.091150
      4.48281     13.62126     34.48584         0.047992     -0.035769      0.156704
     13.21507      4.05350     34.90150         0.224771      0.084279     -0.135915
     13.10492     14.00320     34.13428        -0.236968      0.528820      0.186427
      0.11000      0.01470     40.92893        -0.096929      0.036784     -0.059477
      0.31149      9.08464     41.00484        -0.030738     -0.094936      0.039365
      9.06494      0.01766     40.90837        -0.087446     -0.024941     -0.021137
      9.07897      8.95699     40.96672        -0.040009     -0.058758     -0.025917
      4.49731      4.42936     40.87785         0.083370     -0.010018     -0.050554
      4.52582     13.63876     40.91599         0.012694     -0.052586      0.021549
     13.36979      4.62321     41.01534         0.069351     -0.032893      0.023577
     13.57695     13.66085     40.85029         0.052472     -0.059090      0.125191
      2.56681      1.90839     37.92863         0.158935      0.130915      0.049968
      2.65341     10.98188     38.06162         0.014284      0.043019      0.014367
     11.60884      1.85626     38.07785         0.055511      0.099165      0.016565
     11.22469     11.38866     38.37548         0.128309     -0.220899     -0.110520
      6.43566      7.12463     37.97652        -0.139796     -0.176337      0.007229
      6.50088     16.13000     38.03484         0.054030     -0.069583     -0.044601
     15.82979      6.77192     38.29579        -0.000992      0.027448     -0.013879
     15.44208     16.19353     38.07444         0.157607     -0.001467     -0.014075
      2.05751      6.40473     37.99913        -0.050151     -0.009806      0.008440
      2.08135     15.62309     38.14903        -0.052359      0.011830     -0.127120
     10.66140      6.21474     37.99455         0.007614     -0.034237      0.008994
     10.93548     15.54898     38.16175         0.028167      0.071434     -0.099808
      7.10884      2.53796     38.03438        -0.217067      0.133261      0.032105
      6.99969     11.57520     38.21271        -0.001469     -0.113527      0.003754
     16.06154      2.47584     38.10054        -0.077089      0.159390      0.076865
     16.48954     11.71150     38.40135        -0.191561      0.007066      0.073595
      0.00000      0.00000     47.17356        -0.001396      0.002653      0.460358
     -0.00246      9.03140     47.17356        -0.002625     -0.003042      0.499293
      9.03040      0.00000     47.17356        -0.001658     -0.000253      0.464132
      9.02794      9.03140     47.17356        -0.001183     -0.001899      0.498153
      4.51398      4.51570     47.17425         0.000415     -0.000574      0.382657
      4.51152     13.54710     47.17425         0.002127      0.002868      0.465525
     13.54438      4.51570     47.17425         0.004719      0.002715      0.504134
     13.54192     13.54710     47.17425         0.004799     -0.001056      0.296586
      2.45192      2.06295     44.04013         0.038925     -0.007472      0.029061
      2.44946     11.09435     44.04013         0.066136     -0.028209      0.078966
     11.48232      2.06295     44.04013         0.032979     -0.009104      0.021783
     11.47986     11.09435     44.04013         0.037151      0.019985      0.019276
      6.57602      6.96845     44.04013        -0.004521     -0.028482     -0.056138
      6.57356     15.99985     44.04013        -0.000678      0.019324     -0.004658
     15.60642      6.96845     44.04013         0.001245      0.019042     -0.086425
     15.60396     15.99985     44.04013        -0.031851      0.024058      0.015097
      2.06108      6.57881     44.04000         0.057477     -0.006942     -0.054666
      2.05862     15.61021     44.04000        -0.002015      0.022746      0.003494
     11.09148      6.57881     44.04000        -0.020698     -0.029338      0.022739
     11.08902     15.61021     44.04000         0.015846     -0.023038     -0.000756
      6.96686      2.45259     44.04007        -0.043503     -0.016947     -0.051145
      6.96440     11.48399     44.04007         0.002244      0.008904     -0.000586
     15.99726      2.45259     44.04007        -0.019754     -0.015853     -0.077261
     15.99481     11.48399     44.04007         0.036161      0.006007     -0.035630
      2.43163      2.08322     50.06849         0.011904     -0.007810      0.018419
      2.42917     11.11462     50.06849         0.009312     -0.010461      0.019739
     11.46203      2.08322     50.06849         0.006658     -0.014297      0.019860
     11.45957     11.11462     50.06849         0.025942      0.004202      0.019615
      6.59631      6.94818     50.06849        -0.017240      0.002937      0.019491
      6.59385     15.97958     50.06849        -0.007904      0.012575      0.020246
     15.62671      6.94818     50.06849        -0.007117      0.012051      0.018111
     15.62425     15.97958     50.06849        -0.020521      0.000080      0.019221
      2.08113      6.59901     50.06905        -0.005363     -0.016325      0.019044
      2.07867     15.63041     50.06905        -0.014212     -0.006109      0.020428
     11.11153      6.59901     50.06905        -0.010472     -0.008796      0.019600
     11.10907     15.63041     50.06905         0.002375     -0.022751      0.019840
      6.94681      2.43239     50.06905         0.006064      0.013407      0.019688
      6.94435     11.46379     50.06905         0.008700      0.010889      0.021015
     15.97721      2.43239     50.06905         0.015757      0.004341      0.019339
     15.97475     11.46379     50.06905        -0.003624      0.023007      0.018860
     18.03843      0.06977     37.71081        -0.107592     -0.129820      0.029456
      0.10669      9.07406     37.91463        -0.068010      0.080655     -0.229173
      8.95617      0.12558     37.65245         0.227788     -0.167445      0.003842
      8.96950      8.97916     37.81039         0.122741      0.287825     -0.149365
      4.49820      4.51855     37.67687         0.095066     -0.093680     -0.029564
      4.53411     13.55017     37.70591        -0.056389      0.029767     -0.180452
     13.40934      4.55351     37.96506         0.060694     -0.065557     -0.239251
     13.43385     13.77444     37.81010        -0.091285     -0.148898     -0.249933
      0.00001      0.00001     44.04300         0.042665     -0.018024      0.050136
     -0.00245      9.03141     44.04300         0.105650      0.008651      0.228230
      9.03041      0.00001     44.04300         0.023946      0.023941     -0.014615
      9.02795      9.03141     44.04300         0.026154      0.029170      0.174584
      4.51397      4.51569     44.04275         0.000705     -0.019196      0.075620
      4.51151     13.54709     44.04275        -0.040950     -0.035521      0.012041
     13.54437      4.51569     44.04275        -0.069418     -0.053651      0.334271
     13.54191     13.54709     44.04275        -0.085664      0.001559      0.081476
      0.00000      0.00000     50.44728         0.004159      0.004962     -0.637233
     -0.00246      9.03140     50.44728         0.004242     -0.005984     -0.647341
      9.03040      0.00000     50.44728        -0.004088      0.006030     -0.641300
      9.02794      9.03140     50.44728        -0.004806     -0.005706     -0.650636
      4.51397      4.51570     50.44728         0.002798      0.003904     -0.618578
      4.51151     13.54710     50.44728         0.002982     -0.004041     -0.642174
     13.54437      4.51570     50.44728        -0.003565      0.003283     -0.649027
     13.54191     13.54710     50.44728        -0.002339     -0.003936     -0.594158
 -----------------------------------------------------------------------------------
    total drift:                                0.033296      0.076892     -0.135243


--------------------------------------------------------------------------------------------------------



  FREE ENERGIE OF THE ION-ELECTRON SYSTEM (eV)
  ---------------------------------------------------
  free  energy   TOTEN  =     -1570.19533206 eV

  energy  without entropy=    -1570.19533206  energy(sigma->0) =    -1570.19533206
 


--------------------------------------------------------------------------------------------------------


    POTLOK:  cpu time    0.5008: real time    0.5007


--------------------------------------------------------------------------------------------------------


     LOOP+:  cpu time  323.9564: real time  324.5390
 vacuum level on the upper side and lower side of the slab         2.360         1.556
    4ORBIT:  cpu time    0.0000: real time    0.0000

 total amount of memory used by VASP MPI-rank0  8653581. kBytes
=======================================================================

   base      :      30000. kBytes
   nonlr-proj:      53619. kBytes
   fftplans  :     249280. kBytes
   grid      :     701440. kBytes
   one-center:       2636. kBytes
   wavefun   :    7616606. kBytes
 
  
  
 General timing and accounting informations for this job:
 ========================================================
  
                  Total CPU time used (sec):      535.159
                            User time (sec):      429.899
                          System time (sec):      105.260
                         Elapsed time (sec):      538.460
  
                   Maximum memory used (kb):    10338788.
                   Average memory used (kb):          N/A
  
                          Minor page faults:      3816430
                          Major page faults:           12
                 Voluntary context switches:        11455
