<?xml version="1.0" encoding="ISO-8859-1"?>
<modeling>
 <generator>
  <i name="program" type="string">vasp </i>
  <i name="version" type="string">6.2.1  </i>
  <i name="subversion" type="string">16May21 (build Nov 15 2021 14:57:28) complex                          parallel </i>
  <i name="platform" type="string">LinuxPGI </i>
  <i name="date" type="string">2023 07 30 </i>
  <i name="time" type="string">17:08:24 </i>
 </generator>
 <incar>
  <i type="string" name="SYSTEM">PSC</i>
  <i type="int" name="ISTART">     1</i>
  <i type="string" name="PREC">Normal</i>
  <i name="BMIX">      0.01000000</i>
  <i name="AMIN">      0.01000000</i>
  <i type="int" name="ICHARG">     1</i>
  <i type="int" name="NELM">   600</i>
  <i type="int" name="ISYM">     0</i>
  <i name="ENCUT">    500.00000000</i>
  <i type="string" name="LREAL">Auto</i>
  <i type="int" name="ISMEAR">     0</i>
  <i name="SIGMA">      0.05000000</i>
  <i type="logical" name="LWAVE"> F  </i>
  <i type="logical" name="LVTOT"> T  </i>
  <i type="logical" name="GGA_COMPAT"> F  </i>
  <i type="logical" name="LDIPOL"> T  </i>
  <i type="int" name="IDIPOL">     3</i>
  <i type="int" name="IVDW">    12</i>
 </incar>
 <primitive_cell>
  <structure name="primitive_cell" >
   <crystal>
    <varray name="basis" >
     <v>      18.06080055       0.00000000       0.00000000 </v>
     <v>      -0.00491865      18.06279945       0.00000000 </v>
     <v>       0.00000000       0.00000000      62.48749924 </v>
    </varray>
    <i name="volume">  20385.21054034 </i>
    <varray name="rec_basis" >
     <v>       0.05536853       0.00001508      -0.00000000 </v>
     <v>       0.00000000       0.05536240       0.00000000 </v>
     <v>       0.00000000      -0.00000000       0.01600320 </v>
    </varray>
   </crystal>
   <varray name="positions" >
    <v>       0.44554975       0.29965864       0.58286243 </v>
    <v>       0.44310950       0.83048152       0.57923597 </v>
    <v>       0.95778887       0.26882045       0.58629036 </v>
    <v>       0.96966623       0.80686083       0.58618591 </v>
    <v>       0.29930378       0.04469365       0.58362052 </v>
    <v>       0.30175465       0.54898872       0.58277153 </v>
    <v>       0.77767178       0.06611063       0.58148343 </v>
    <v>       0.10044249       0.18847369       0.55396651 </v>
    <v>       0.07985512       0.67666259       0.55615372 </v>
    <v>       0.58475672       0.17800793       0.55693177 </v>
    <v>       0.54322527       0.65872294       0.56617995 </v>
    <v>       0.35000265       0.05515527       0.55954063 </v>
    <v>       0.31659724       0.59479379       0.55824538 </v>
    <v>       0.83118332       0.08050120       0.55823824 </v>
    <v>       0.07432474       0.19989608       0.58051583 </v>
    <v>       0.04823051       0.69242334       0.58193671 </v>
    <v>       0.56357807       0.22009868       0.58151725 </v>
    <v>       0.51185233       0.71096024       0.58726523 </v>
    <v>       0.21624328       0.43690110       0.58197706 </v>
    <v>       0.18168682       0.96755165       0.58130114 </v>
    <v>       0.69120112       0.95679708       0.58117313 </v>
    <v>       0.39294990       0.29860477       0.55909858 </v>
    <v>       0.43620589       0.85174120       0.55190781 </v>
    <v>       0.90889411       0.29695880       0.56439346 </v>
    <v>       0.95241333       0.85928018       0.56391510 </v>
    <v>       0.17982544       0.41364999       0.55668843 </v>
    <v>       0.15853460       0.93312236       0.55572706 </v>
    <v>       0.69189737       0.90050035       0.55756727 </v>
    <v>       0.47769803       0.22153227       0.54039538 </v>
    <v>       0.50157881       0.74369862       0.54026577 </v>
    <v>       0.99464965       0.25098452       0.54035448 </v>
    <v>       0.02135212       0.78235356       0.54130987 </v>
    <v>       0.24188302       0.51305677       0.53945665 </v>
    <v>       0.26548078       0.98603774       0.53985731 </v>
    <v>       0.77858184       0.97496550       0.54097826 </v>
    <v>       0.45209941       0.30631944       0.67551756 </v>
    <v>       0.43966366       0.80747439       0.67558624 </v>
    <v>       0.94778837       0.29269169       0.67659291 </v>
    <v>       0.94651030       0.80587119       0.67539491 </v>
    <v>       0.29950459       0.04651556       0.67544809 </v>
    <v>       0.29450291       0.55355039       0.67618725 </v>
    <v>       0.81065017       0.05115689       0.67440454 </v>
    <v>       0.83059753       0.53830109       0.67486777 </v>
    <v>       0.08551139       0.17195227       0.64906995 </v>
    <v>       0.08575072       0.68155910       0.65303772 </v>
    <v>       0.57221226       0.16551899       0.65042178 </v>
    <v>       0.57109939       0.66775203       0.65389867 </v>
    <v>       0.18621850       0.41116369       0.64763527 </v>
    <v>       0.16934343       0.91928569       0.64788178 </v>
    <v>       0.65925851       0.44325356       0.65273499 </v>
    <v>       0.66529091       0.93026817       0.65121973 </v>
    <v>       0.06003599       0.19422068       0.67485348 </v>
    <v>       0.04450466       0.70386117       0.67735319 </v>
    <v>       0.55324634       0.20140523       0.67544900 </v>
    <v>       0.54139693       0.70112989       0.67853336 </v>
    <v>       0.20489232       0.43964739       0.67383393 </v>
    <v>       0.19578192       0.94351601       0.67407012 </v>
    <v>       0.71201733       0.44518822       0.67646037 </v>
    <v>       0.69895599       0.95613301       0.67636129 </v>
    <v>       0.41727764       0.32465550       0.65022875 </v>
    <v>       0.41924663       0.83184227       0.64936999 </v>
    <v>       0.91808335       0.31930155       0.65146184 </v>
    <v>       0.92731460       0.83882984       0.64978585 </v>
    <v>       0.32854843       0.07574467       0.65037050 </v>
    <v>       0.32526111       0.58584658       0.65126777 </v>
    <v>       0.83494003       0.07543919       0.64827835 </v>
    <v>       0.84085317       0.57738728       0.64919436 </v>
    <v>       0.99774318       0.24985470       0.63261188 </v>
    <v>       0.01749708       0.76375235       0.63409112 </v>
    <v>       0.48774727       0.23719711       0.63269674 </v>
    <v>       0.50087935       0.74495404       0.63397837 </v>
    <v>       0.24912775       0.99702557       0.63119393 </v>
    <v>       0.25996926       0.50121651       0.63147860 </v>
    <v>       0.74604392       0.99956273       0.63190214 </v>
    <v>       0.73472843       0.52206981       0.63417750 </v>
    <v>       0.44874502       0.30128397       0.76888902 </v>
    <v>       0.44874501       0.80128391       0.76888902 </v>
    <v>       0.94874497       0.30128397       0.76888902 </v>
    <v>       0.94874501       0.80128391       0.76888902 </v>
    <v>       0.30127600       0.05129450       0.76887296 </v>
    <v>       0.30127601       0.55129450       0.76887296 </v>
    <v>       0.80127594       0.05129450       0.76887296 </v>
    <v>       0.80127598       0.55129450       0.76887296 </v>
    <v>       0.07877100       0.17118050       0.74344197 </v>
    <v>       0.07877101       0.67118045       0.74344197 </v>
    <v>       0.57877100       0.17118050       0.74344197 </v>
    <v>       0.57877099       0.67118045       0.74344197 </v>
    <v>       0.17119950       0.42117448       0.74342103 </v>
    <v>       0.17119950       0.92117451       0.74342103 </v>
    <v>       0.67119951       0.42117448       0.74342103 </v>
    <v>       0.67119950       0.92117451       0.74342103 </v>
    <v>       0.05125600       0.19871499       0.76888902 </v>
    <v>       0.05125600       0.69871493       0.76888902 </v>
    <v>       0.55125603       0.19871499       0.76888902 </v>
    <v>       0.55125602       0.69871493       0.76888902 </v>
    <v>       0.19872349       0.44870397       0.76887205 </v>
    <v>       0.19872349       0.94870397       0.76887205 </v>
    <v>       0.69872352       0.44870397       0.76887205 </v>
    <v>       0.69872351       0.94870397       0.76887205 </v>
    <v>       0.42123152       0.32881747       0.74344197 </v>
    <v>       0.42123151       0.82881744       0.74344197 </v>
    <v>       0.92123147       0.32881747       0.74344197 </v>
    <v>       0.92123151       0.82881744       0.74344197 </v>
    <v>       0.32880050       0.07882500       0.74342103 </v>
    <v>       0.32880049       0.57882496       0.74342103 </v>
    <v>       0.82880048       0.07882500       0.74342103 </v>
    <v>       0.82880052       0.57882496       0.74342103 </v>
    <v>       0.00000350       0.25000148       0.72582199 </v>
    <v>       0.00000350       0.75000145       0.72582199 </v>
    <v>       0.50000351       0.25000148       0.72582199 </v>
    <v>       0.50000350       0.75000145       0.72582199 </v>
    <v>       0.25000050       0.00000000       0.72580398 </v>
    <v>       0.25000052       0.50000000       0.72580398 </v>
    <v>       0.75000050       0.00000000       0.72580398 </v>
    <v>       0.75000049       0.50000000       0.72580398 </v>
    <v>       0.71895952       0.45080474       0.54648040 </v>
    <v>       0.74047701       0.51225371       0.52514178 </v>
    <v>       0.65217517       0.54483027       0.56120984 </v>
    <v>       0.68540726       0.63774461       0.56329992 </v>
    <v>       0.83778049       0.51306912       0.57976202 </v>
    <v>       0.77418292       0.57905764       0.58770849 </v>
    <v>       0.87323155       0.55947783       0.54294746 </v>
    <v>       0.81103238       0.62010152       0.52881195 </v>
    <v>       0.86933816       0.48030503       0.52654465 </v>
    <v>       0.86440156       0.45005390       0.55292083 </v>
    <v>       0.88799952       0.35271767       0.52843559 </v>
    <v>       0.79613115       0.33869027       0.53876706 </v>
    <v>       0.61872029       0.55479815       0.52718485 </v>
    <v>       0.69275398       0.61159159       0.51921103 </v>
    <v>       0.61842620       0.65103538       0.53242607 </v>
    <v>       0.72647316       0.45822567       0.60242549 </v>
    <v>       0.74251547       0.41502268       0.57810641 </v>
    <v>       0.66870599       0.47630260       0.58138508 </v>
    <v>       0.83875105       0.67663118       0.57284272 </v>
    <v>       0.87550715       0.71007937       0.54886973 </v>
    <v>       0.92130634       0.63632831       0.56340352 </v>
    <v>       0.84098149       0.39940596       0.49448840 </v>
    <v>       0.80403509       0.30899029       0.50105237 </v>
    <v>       0.67195581       0.31837015       0.52333630 </v>
    <v>       0.75340028       0.48908693       0.48097151 </v>
    <v>       0.54264312       0.36618541       0.51978896 </v>
    <v>       0.62362929       0.53913646       0.47712918 </v>
    <v>       0.51873308       0.48225738       0.49723095 </v>
    <v>       0.00346060       0.24416221       0.55794332 </v>
    <v>       0.01662914       0.76872721       0.55872693 </v>
    <v>       0.48759147       0.23842754       0.55690790 </v>
    <v>       0.49170897       0.75585761       0.55777855 </v>
    <v>       0.24698795       0.50370751       0.55678635 </v>
    <v>       0.25548386       0.99458832       0.55703195 </v>
    <v>       0.76078284       0.98977653       0.55725990 </v>
    <v>       0.00100228       0.24640186       0.64971412 </v>
    <v>       0.00678082       0.76088623       0.65082237 </v>
    <v>       0.49381176       0.24535673       0.64954929 </v>
    <v>       0.49479811       0.75112583       0.65103060 </v>
    <v>       0.25566885       0.49777806       0.64875506 </v>
    <v>       0.24994891       0.99872403       0.64841955 </v>
    <v>       0.75071696       0.51037237       0.65119244 </v>
    <v>       0.75122574       0.00325712       0.64902990 </v>
    <v>       0.49998898       0.24999498       0.74327702 </v>
    <v>       0.49998903       0.74999496       0.74327702 </v>
    <v>       0.99998898       0.24999498       0.74327702 </v>
    <v>       0.99998903       0.74999496       0.74327702 </v>
    <v>       0.25000050       0.00000100       0.74325596 </v>
    <v>       0.25000052       0.50000100       0.74325596 </v>
    <v>       0.75000050       0.00000100       0.74325596 </v>
    <v>       0.75000049       0.50000100       0.74325596 </v>
    <v>       0.72085852       0.39857619       0.50232398 </v>
    <v>       0.65964656       0.36491013       0.51307931 </v>
    <v>       0.70622687       0.46120731       0.48896865 </v>
    <v>       0.58837443       0.39317253       0.51136555 </v>
    <v>       0.63343940       0.48853920       0.48746237 </v>
    <v>       0.57605610       0.45656602       0.49818619 </v>
    <v>       0.76117142       0.48633390       0.53947668 </v>
    <v>       0.68609666       0.58790517       0.55367739 </v>
    <v>       0.77871071       0.52881213       0.57814261 </v>
    <v>       0.82970409       0.60129012       0.54527221 </v>
    <v>       0.83351698       0.45044925       0.53754862 </v>
    <v>       0.83057259       0.37558799       0.52875078 </v>
    <v>       0.65316410       0.60132861       0.53172207 </v>
    <v>       0.72707498       0.46780306       0.58514237 </v>
    <v>       0.86868597       0.66037218       0.55860160 </v>
    <v>       0.80192027       0.36874805       0.50570341 </v>
    <v>       0.06293615       0.20870339       0.56461616 </v>
    <v>       0.04918875       0.70972689       0.56565171 </v>
    <v>       0.54744885       0.20843857       0.56581611 </v>
    <v>       0.51979112       0.70666446       0.57121880 </v>
    <v>       0.44018862       0.28166996       0.56654087 </v>
    <v>       0.45591166       0.81465351       0.56300183 </v>
    <v>       0.95460808       0.27190223       0.57011305 </v>
    <v>       0.97911625       0.81489891       0.57012209 </v>
    <v>       0.21377287       0.44894119       0.56626927 </v>
    <v>       0.19500677       0.96354708       0.56579194 </v>
    <v>       0.71136948       0.94882729       0.56639850 </v>
    <v>       0.30258820       0.03347637       0.56791321 </v>
    <v>       0.29067619       0.55163853       0.56714151 </v>
    <v>       0.79152452       0.04883303       0.56685166 </v>
    <v>       0.05285536       0.20072017       0.65864541 </v>
    <v>       0.04974773       0.71076985       0.66160975 </v>
    <v>       0.54429221       0.20052274       0.65934965 </v>
    <v>       0.53678111       0.70558639       0.66228945 </v>
    <v>       0.21471678       0.44659401       0.65712191 </v>
    <v>       0.20137372       0.95077822       0.65735627 </v>
    <v>       0.70466929       0.46396298       0.66102674 </v>
    <v>       0.70167128       0.96013452       0.65950960 </v>
    <v>       0.45296132       0.29367584       0.65885041 </v>
    <v>       0.44953060       0.79830977       0.65893783 </v>
    <v>       0.95511610       0.28663239       0.66017947 </v>
    <v>       0.95675931       0.80396081       0.65967149 </v>
    <v>       0.29431145       0.04173227       0.65849078 </v>
    <v>       0.29354123       0.55029842       0.65927163 </v>
    <v>       0.80093110       0.04437369       0.65761218 </v>
    <v>       0.80876694       0.54193009       0.65899509 </v>
    <v>       0.04586250       0.20411950       0.75272599 </v>
    <v>       0.04586250       0.70411946       0.75272599 </v>
    <v>       0.54586251       0.20411950       0.75272599 </v>
    <v>       0.54586250       0.70411946       0.75272599 </v>
    <v>       0.20411900       0.45410100       0.75270499 </v>
    <v>       0.20411899       0.95410095       0.75270499 </v>
    <v>       0.70411898       0.45410100       0.75270499 </v>
    <v>       0.70411896       0.95410095       0.75270499 </v>
    <v>       0.45414002       0.29588849       0.75272697 </v>
    <v>       0.45414001       0.79588852       0.75272697 </v>
    <v>       0.95414002       0.29588849       0.75272697 </v>
    <v>       0.95414006       0.79588852       0.75272697 </v>
    <v>       0.29588249       0.04590050       0.75270499 </v>
    <v>       0.29588248       0.54590053       0.75270499 </v>
    <v>       0.79588244       0.04590050       0.75270499 </v>
    <v>       0.79588248       0.54590053       0.75270499 </v>
    <v>       0.76280096       0.55598864       0.55481678 </v>
    <v>       0.49395899       0.01426665       0.55168652 </v>
    <v>       0.48391290       0.51721870       0.55579952 </v>
    <v>       0.99247065       0.00229252       0.55278207 </v>
    <v>       0.02440734       0.51112189       0.55636714 </v>
    <v>       0.25076216       0.24571753       0.55113691 </v>
    <v>       0.24841203       0.75410573       0.55188382 </v>
    <v>       0.73176012       0.22441143       0.55853579 </v>
    <v>       0.72581122       0.77525079       0.54625782 </v>
    <v>       0.00609100       0.00081392       0.65499392 </v>
    <v>       0.01738349       0.50294764       0.65620864 </v>
    <v>       0.50191276       0.00097786       0.65466482 </v>
    <v>       0.50282428       0.49588046       0.65559872 </v>
    <v>       0.24907608       0.24522020       0.65417644 </v>
    <v>       0.25079350       0.75507478       0.65478673 </v>
    <v>       0.74033540       0.25595175       0.65637671 </v>
    <v>       0.75194165       0.75629763       0.65373537 </v>
    <v>       0.14214929       0.10565283       0.60697956 </v>
    <v>       0.14708102       0.60798355       0.60910779 </v>
    <v>       0.64279267       0.10276695       0.60936755 </v>
    <v>       0.62166607       0.63050367       0.61413052 </v>
    <v>       0.35644059       0.39443656       0.60774595 </v>
    <v>       0.36018723       0.89299532       0.60867912 </v>
    <v>       0.87657433       0.37490976       0.61285518 </v>
    <v>       0.85524937       0.89651270       0.60931297 </v>
    <v>       0.11401813       0.35458098       0.60810765 </v>
    <v>       0.11547685       0.86493197       0.61050657 </v>
    <v>       0.59039954       0.34406280       0.60803446 </v>
    <v>       0.60571586       0.86082885       0.61071016 </v>
    <v>       0.39364443       0.14050749       0.60867179 </v>
    <v>       0.38773732       0.64083106       0.61152563 </v>
    <v>       0.88934114       0.13706833       0.60973060 </v>
    <v>       0.91317830       0.64837670       0.61454449 </v>
    <v>       0.00000000       0.00000000       0.75492797 </v>
    <v>       0.00000000       0.50000000       0.75492797 </v>
    <v>       0.50000000       0.00000000       0.75492797 </v>
    <v>       0.49999999       0.50000000       0.75492797 </v>
    <v>       0.25000050       0.25000000       0.75493902 </v>
    <v>       0.25000051       0.74999997       0.75493902 </v>
    <v>       0.75000047       0.25000000       0.75493902 </v>
    <v>       0.75000046       0.74999997       0.75493902 </v>
    <v>       0.13579050       0.11421000       0.70478299 </v>
    <v>       0.13579050       0.61420998       0.70478299 </v>
    <v>       0.63579045       0.11421000       0.70478299 </v>
    <v>       0.63579049       0.61420998       0.70478299 </v>
    <v>       0.36420952       0.38578999       0.70478299 </v>
    <v>       0.36420950       0.88578996       0.70478299 </v>
    <v>       0.86420954       0.38578999       0.70478299 </v>
    <v>       0.86420953       0.88578996       0.70478299 </v>
    <v>       0.11421799       0.36421899       0.70478098 </v>
    <v>       0.11421799       0.86421899       0.70478098 </v>
    <v>       0.61421800       0.36421899       0.70478098 </v>
    <v>       0.61421799       0.86421899       0.70478098 </v>
    <v>       0.38578201       0.13578149       0.70478202 </v>
    <v>       0.38578200       0.63578149       0.70478202 </v>
    <v>       0.88578199       0.13578149       0.70478202 </v>
    <v>       0.88578203       0.63578149       0.70478202 </v>
    <v>       0.13466700       0.11533200       0.80125603 </v>
    <v>       0.13466699       0.61533199       0.80125603 </v>
    <v>       0.63466699       0.11533200       0.80125603 </v>
    <v>       0.63466698       0.61533199       0.80125603 </v>
    <v>       0.36533300       0.38466799       0.80125603 </v>
    <v>       0.36533299       0.88466796       0.80125603 </v>
    <v>       0.86533295       0.38466799       0.80125603 </v>
    <v>       0.86533294       0.88466796       0.80125603 </v>
    <v>       0.11532850       0.36533700       0.80126500 </v>
    <v>       0.11532850       0.86533698       0.80126500 </v>
    <v>       0.61532850       0.36533700       0.80126500 </v>
    <v>       0.61532849       0.86533698       0.80126500 </v>
    <v>       0.38467151       0.13466300       0.80126500 </v>
    <v>       0.38467150       0.63466297       0.80126500 </v>
    <v>       0.88467149       0.13466300       0.80126500 </v>
    <v>       0.88467153       0.63466297       0.80126500 </v>
    <v>       0.99876247       0.00386260       0.60349363 </v>
    <v>       0.00604430       0.50236164       0.60675539 </v>
    <v>       0.49589209       0.00695268       0.60255979 </v>
    <v>       0.49676366       0.49710779       0.60508727 </v>
    <v>       0.24912688       0.25015800       0.60295055 </v>
    <v>       0.25125147       0.75016993       0.60341525 </v>
    <v>       0.74252411       0.25209303       0.60756250 </v>
    <v>       0.74402019       0.76258600       0.60508257 </v>
    <v>       0.00000050       0.00000050       0.70482896 </v>
    <v>       0.00000050       0.50000048       0.70482896 </v>
    <v>       0.50000048       0.00000050       0.70482896 </v>
    <v>       0.50000046       0.50000048       0.70482896 </v>
    <v>       0.24999999       0.24999947       0.70482499 </v>
    <v>       0.25000001       0.74999950       0.70482499 </v>
    <v>       0.74999999       0.24999947       0.70482499 </v>
    <v>       0.74999998       0.74999950       0.70482499 </v>
    <v>       0.00000000       0.00000000       0.80731797 </v>
    <v>       0.00000000       0.50000000       0.80731797 </v>
    <v>       0.50000000       0.00000000       0.80731797 </v>
    <v>       0.49999999       0.50000000       0.80731797 </v>
    <v>       0.24999999       0.25000000       0.80731797 </v>
    <v>       0.25000001       0.74999997       0.80731797 </v>
    <v>       0.74999999       0.25000000       0.80731797 </v>
    <v>       0.74999998       0.74999997       0.80731797 </v>
   </varray>
  </structure>
  <varray name="primitive_index" >
   <v type="int" >        1 </v>
   <v type="int" >        2 </v>
   <v type="int" >        3 </v>
   <v type="int" >        4 </v>
   <v type="int" >        5 </v>
   <v type="int" >        6 </v>
   <v type="int" >        7 </v>
   <v type="int" >        8 </v>
   <v type="int" >        9 </v>
   <v type="int" >       10 </v>
   <v type="int" >       11 </v>
   <v type="int" >       12 </v>
   <v type="int" >       13 </v>
   <v type="int" >       14 </v>
   <v type="int" >       15 </v>
   <v type="int" >       16 </v>
   <v type="int" >       17 </v>
   <v type="int" >       18 </v>
   <v type="int" >       19 </v>
   <v type="int" >       20 </v>
   <v type="int" >       21 </v>
   <v type="int" >       22 </v>
   <v type="int" >       23 </v>
   <v type="int" >       24 </v>
   <v type="int" >       25 </v>
   <v type="int" >       26 </v>
   <v type="int" >       27 </v>
   <v type="int" >       28 </v>
   <v type="int" >       29 </v>
   <v type="int" >       30 </v>
   <v type="int" >       31 </v>
   <v type="int" >       32 </v>
   <v type="int" >       33 </v>
   <v type="int" >       34 </v>
   <v type="int" >       35 </v>
   <v type="int" >       36 </v>
   <v type="int" >       37 </v>
   <v type="int" >       38 </v>
   <v type="int" >       39 </v>
   <v type="int" >       40 </v>
   <v type="int" >       41 </v>
   <v type="int" >       42 </v>
   <v type="int" >       43 </v>
   <v type="int" >       44 </v>
   <v type="int" >       45 </v>
   <v type="int" >       46 </v>
   <v type="int" >       47 </v>
   <v type="int" >       48 </v>
   <v type="int" >       49 </v>
   <v type="int" >       50 </v>
   <v type="int" >       51 </v>
   <v type="int" >       52 </v>
   <v type="int" >       53 </v>
   <v type="int" >       54 </v>
   <v type="int" >       55 </v>
   <v type="int" >       56 </v>
   <v type="int" >       57 </v>
   <v type="int" >       58 </v>
   <v type="int" >       59 </v>
   <v type="int" >       60 </v>
   <v type="int" >       61 </v>
   <v type="int" >       62 </v>
   <v type="int" >       63 </v>
   <v type="int" >       64 </v>
   <v type="int" >       65 </v>
   <v type="int" >       66 </v>
   <v type="int" >       67 </v>
   <v type="int" >       68 </v>
   <v type="int" >       69 </v>
   <v type="int" >       70 </v>
   <v type="int" >       71 </v>
   <v type="int" >       72 </v>
   <v type="int" >       73 </v>
   <v type="int" >       74 </v>
   <v type="int" >       75 </v>
   <v type="int" >       76 </v>
   <v type="int" >       77 </v>
   <v type="int" >       78 </v>
   <v type="int" >       79 </v>
   <v type="int" >       80 </v>
   <v type="int" >       81 </v>
   <v type="int" >       82 </v>
   <v type="int" >       83 </v>
   <v type="int" >       84 </v>
   <v type="int" >       85 </v>
   <v type="int" >       86 </v>
   <v type="int" >       87 </v>
   <v type="int" >       88 </v>
   <v type="int" >       89 </v>
   <v type="int" >       90 </v>
   <v type="int" >       91 </v>
   <v type="int" >       92 </v>
   <v type="int" >       93 </v>
   <v type="int" >       94 </v>
   <v type="int" >       95 </v>
   <v type="int" >       96 </v>
   <v type="int" >       97 </v>
   <v type="int" >       98 </v>
   <v type="int" >       99 </v>
   <v type="int" >      100 </v>
   <v type="int" >      101 </v>
   <v type="int" >      102 </v>
   <v type="int" >      103 </v>
   <v type="int" >      104 </v>
   <v type="int" >      105 </v>
   <v type="int" >      106 </v>
   <v type="int" >      107 </v>
   <v type="int" >      108 </v>
   <v type="int" >      109 </v>
   <v type="int" >      110 </v>
   <v type="int" >      111 </v>
   <v type="int" >      112 </v>
   <v type="int" >      113 </v>
   <v type="int" >      114 </v>
   <v type="int" >      115 </v>
   <v type="int" >      116 </v>
   <v type="int" >      117 </v>
   <v type="int" >      118 </v>
   <v type="int" >      119 </v>
   <v type="int" >      120 </v>
   <v type="int" >      121 </v>
   <v type="int" >      122 </v>
   <v type="int" >      123 </v>
   <v type="int" >      124 </v>
   <v type="int" >      125 </v>
   <v type="int" >      126 </v>
   <v type="int" >      127 </v>
   <v type="int" >      128 </v>
   <v type="int" >      129 </v>
   <v type="int" >      130 </v>
   <v type="int" >      131 </v>
   <v type="int" >      132 </v>
   <v type="int" >      133 </v>
   <v type="int" >      134 </v>
   <v type="int" >      135 </v>
   <v type="int" >      136 </v>
   <v type="int" >      137 </v>
   <v type="int" >      138 </v>
   <v type="int" >      139 </v>
   <v type="int" >      140 </v>
   <v type="int" >      141 </v>
   <v type="int" >      142 </v>
   <v type="int" >      143 </v>
   <v type="int" >      144 </v>
   <v type="int" >      145 </v>
   <v type="int" >      146 </v>
   <v type="int" >      147 </v>
   <v type="int" >      148 </v>
   <v type="int" >      149 </v>
   <v type="int" >      150 </v>
   <v type="int" >      151 </v>
   <v type="int" >      152 </v>
   <v type="int" >      153 </v>
   <v type="int" >      154 </v>
   <v type="int" >      155 </v>
   <v type="int" >      156 </v>
   <v type="int" >      157 </v>
   <v type="int" >      158 </v>
   <v type="int" >      159 </v>
   <v type="int" >      160 </v>
   <v type="int" >      161 </v>
   <v type="int" >      162 </v>
   <v type="int" >      163 </v>
   <v type="int" >      164 </v>
   <v type="int" >      165 </v>
   <v type="int" >      166 </v>
   <v type="int" >      167 </v>
   <v type="int" >      168 </v>
   <v type="int" >      169 </v>
   <v type="int" >      170 </v>
   <v type="int" >      171 </v>
   <v type="int" >      172 </v>
   <v type="int" >      173 </v>
   <v type="int" >      174 </v>
   <v type="int" >      175 </v>
   <v type="int" >      176 </v>
   <v type="int" >      177 </v>
   <v type="int" >      178 </v>
   <v type="int" >      179 </v>
   <v type="int" >      180 </v>
   <v type="int" >      181 </v>
   <v type="int" >      182 </v>
   <v type="int" >      183 </v>
   <v type="int" >      184 </v>
   <v type="int" >      185 </v>
   <v type="int" >      186 </v>
   <v type="int" >      187 </v>
   <v type="int" >      188 </v>
   <v type="int" >      189 </v>
   <v type="int" >      190 </v>
   <v type="int" >      191 </v>
   <v type="int" >      192 </v>
   <v type="int" >      193 </v>
   <v type="int" >      194 </v>
   <v type="int" >      195 </v>
   <v type="int" >      196 </v>
   <v type="int" >      197 </v>
   <v type="int" >      198 </v>
   <v type="int" >      199 </v>
   <v type="int" >      200 </v>
   <v type="int" >      201 </v>
   <v type="int" >      202 </v>
   <v type="int" >      203 </v>
   <v type="int" >      204 </v>
   <v type="int" >      205 </v>
   <v type="int" >      206 </v>
   <v type="int" >      207 </v>
   <v type="int" >      208 </v>
   <v type="int" >      209 </v>
   <v type="int" >      210 </v>
   <v type="int" >      211 </v>
   <v type="int" >      212 </v>
   <v type="int" >      213 </v>
   <v type="int" >      214 </v>
   <v type="int" >      215 </v>
   <v type="int" >      216 </v>
   <v type="int" >      217 </v>
   <v type="int" >      218 </v>
   <v type="int" >      219 </v>
   <v type="int" >      220 </v>
   <v type="int" >      221 </v>
   <v type="int" >      222 </v>
   <v type="int" >      223 </v>
   <v type="int" >      224 </v>
   <v type="int" >      225 </v>
   <v type="int" >      226 </v>
   <v type="int" >      227 </v>
   <v type="int" >      228 </v>
   <v type="int" >      229 </v>
   <v type="int" >      230 </v>
   <v type="int" >      231 </v>
   <v type="int" >      232 </v>
   <v type="int" >      233 </v>
   <v type="int" >      234 </v>
   <v type="int" >      235 </v>
   <v type="int" >      236 </v>
   <v type="int" >      237 </v>
   <v type="int" >      238 </v>
   <v type="int" >      239 </v>
   <v type="int" >      240 </v>
   <v type="int" >      241 </v>
   <v type="int" >      242 </v>
   <v type="int" >      243 </v>
   <v type="int" >      244 </v>
   <v type="int" >      245 </v>
   <v type="int" >      246 </v>
   <v type="int" >      247 </v>
   <v type="int" >      248 </v>
   <v type="int" >      249 </v>
   <v type="int" >      250 </v>
   <v type="int" >      251 </v>
   <v type="int" >      252 </v>
   <v type="int" >      253 </v>
   <v type="int" >      254 </v>
   <v type="int" >      255 </v>
   <v type="int" >      256 </v>
   <v type="int" >      257 </v>
   <v type="int" >      258 </v>
   <v type="int" >      259 </v>
   <v type="int" >      260 </v>
   <v type="int" >      261 </v>
   <v type="int" >      262 </v>
   <v type="int" >      263 </v>
   <v type="int" >      264 </v>
   <v type="int" >      265 </v>
   <v type="int" >      266 </v>
   <v type="int" >      267 </v>
   <v type="int" >      268 </v>
   <v type="int" >      269 </v>
   <v type="int" >      270 </v>
   <v type="int" >      271 </v>
   <v type="int" >      272 </v>
   <v type="int" >      273 </v>
   <v type="int" >      274 </v>
   <v type="int" >      275 </v>
   <v type="int" >      276 </v>
   <v type="int" >      277 </v>
   <v type="int" >      278 </v>
   <v type="int" >      279 </v>
   <v type="int" >      280 </v>
   <v type="int" >      281 </v>
   <v type="int" >      282 </v>
   <v type="int" >      283 </v>
   <v type="int" >      284 </v>
   <v type="int" >      285 </v>
   <v type="int" >      286 </v>
   <v type="int" >      287 </v>
   <v type="int" >      288 </v>
   <v type="int" >      289 </v>
   <v type="int" >      290 </v>
   <v type="int" >      291 </v>
   <v type="int" >      292 </v>
   <v type="int" >      293 </v>
   <v type="int" >      294 </v>
   <v type="int" >      295 </v>
   <v type="int" >      296 </v>
   <v type="int" >      297 </v>
   <v type="int" >      298 </v>
   <v type="int" >      299 </v>
   <v type="int" >      300 </v>
   <v type="int" >      301 </v>
   <v type="int" >      302 </v>
   <v type="int" >      303 </v>
   <v type="int" >      304 </v>
   <v type="int" >      305 </v>
   <v type="int" >      306 </v>
   <v type="int" >      307 </v>
   <v type="int" >      308 </v>
   <v type="int" >      309 </v>
   <v type="int" >      310 </v>
   <v type="int" >      311 </v>
   <v type="int" >      312 </v>
   <v type="int" >      313 </v>
   <v type="int" >      314 </v>
   <v type="int" >      315 </v>
   <v type="int" >      316 </v>
   <v type="int" >      317 </v>
   <v type="int" >      318 </v>
   <v type="int" >      319 </v>
   <v type="int" >      320 </v>
   <v type="int" >      321 </v>
   <v type="int" >      322 </v>
   <v type="int" >      323 </v>
   <v type="int" >      324 </v>
   <v type="int" >      325 </v>
  </varray>
 </primitive_cell>
 <kpoints>
  <generation param="Gamma">
   <v type="int" name="divisions">       3        3        1 </v>
   <v name="usershift">      0.00000000       0.00000000       0.00000000 </v>
   <v name="genvec1">      0.33333333       0.00000000       0.00000000 </v>
   <v name="genvec2">      0.00000000       0.33333333       0.00000000 </v>
   <v name="genvec3">      0.00000000       0.00000000       1.00000000 </v>
   <v name="shift">      0.00000000       0.00000000       0.00000000 </v>
  </generation>
  <varray name="kpointlist" >
   <v>       0.00000000       0.00000000       0.00000000 </v>
   <v>       0.33333333       0.00000000       0.00000000 </v>
   <v>       0.00000000       0.33333333       0.00000000 </v>
   <v>       0.33333333       0.33333333       0.00000000 </v>
   <v>      -0.33333333       0.33333333       0.00000000 </v>
  </varray>
  <varray name="weights" >
   <v>       0.11111111 </v>
   <v>       0.22222222 </v>
   <v>       0.22222222 </v>
   <v>       0.22222222 </v>
   <v>       0.22222222 </v>
  </varray>
 </kpoints>
 <parameters>
  <separator name="general" >
   <i type="string" name="SYSTEM">PSC</i>
   <i type="logical" name="LCOMPAT"> F  </i>
  </separator>
  <separator name="electronic" >
   <i type="string" name="PREC">normal</i>
   <i name="ENMAX">    500.00000000</i>
   <i name="ENAUG">    644.87300000</i>
   <i name="EDIFF">      0.00010000</i>
   <i type="int" name="IALGO">    38</i>
   <i type="int" name="IWAVPR">    10</i>
   <i type="int" name="NBANDS">   732</i>
   <i type="int" name="NBANDSLOW">    -1</i>
   <i type="int" name="NBANDSHIGH">    -1</i>
   <i name="NELECT">   1134.00000000</i>
   <i type="int" name="TURBO">     0</i>
   <i type="int" name="IRESTART">     0</i>
   <i type="int" name="NREBOOT">     0</i>
   <i type="int" name="NMIN">     0</i>
   <i name="EREF">      0.00000000</i>
   <separator name="electronic smearing" >
    <i type="int" name="ISMEAR">     0</i>
    <i name="SIGMA">      0.05000000</i>
    <i name="KSPACING">      0.50000000</i>
    <i type="logical" name="KGAMMA"> T  </i>
    <i type="logical" name="KBLOWUP"> T  </i>
   </separator>
   <separator name="electronic projectors" >
    <i type="logical" name="LREAL"> T  </i>
    <v name="ROPT">     -0.00050000     -0.00050000     -0.00050000     -0.00050000     -0.00050000</v>
    <i type="int" name="LMAXPAW">  -100</i>
    <i type="int" name="LMAXMIX">     2</i>
    <i type="logical" name="NLSPLINE"> F  </i>
   </separator>
   <separator name="electronic startup" >
    <i type="int" name="ISTART">     0</i>
    <i type="int" name="ICHARG">     1</i>
    <i type="int" name="INIWAV">     1</i>
   </separator>
   <separator name="electronic spin" >
    <i type="int" name="ISPIN">     1</i>
    <i type="logical" name="LNONCOLLINEAR"> F  </i>
    <v name="MAGMOM">      1.00000000      1.00000000      1.00000000      1.00000000      1.00000000      1.00000000      1.00000000      1.00000000      1.00000000      1.00000000      1.00000000      1.00000000      1.00000000      1.00000000      1.00000000      1.00000000      1.00000000      1.00000000      1.00000000      1.00000000
      1.00000000      1.00000000      1.00000000      1.00000000      1.00000000      1.00000000      1.00000000      1.00000000      1.00000000      1.00000000      1.00000000      1.00000000      1.00000000      1.00000000      1.00000000      1.00000000      1.00000000      1.00000000      1.00000000      1.00000000
      1.00000000      1.00000000      1.00000000      1.00000000      1.00000000      1.00000000      1.00000000      1.00000000      1.00000000      1.00000000      1.00000000      1.00000000      1.00000000      1.00000000      1.00000000      1.00000000      1.00000000      1.00000000      1.00000000      1.00000000
      1.00000000      1.00000000      1.00000000      1.00000000      1.00000000      1.00000000      1.00000000      1.00000000      1.00000000      1.00000000      1.00000000      1.00000000      1.00000000      1.00000000      1.00000000      1.00000000      1.00000000      1.00000000      1.00000000      1.00000000
      1.00000000      1.00000000      1.00000000      1.00000000      1.00000000      1.00000000      1.00000000      1.00000000      1.00000000      1.00000000      1.00000000      1.00000000      1.00000000      1.00000000      1.00000000      1.00000000      1.00000000      1.00000000      1.00000000      1.00000000
      1.00000000      1.00000000      1.00000000      1.00000000      1.00000000      1.00000000      1.00000000      1.00000000      1.00000000      1.00000000      1.00000000      1.00000000      1.00000000      1.00000000      1.00000000      1.00000000      1.00000000      1.00000000      1.00000000      1.00000000
      1.00000000      1.00000000      1.00000000      1.00000000      1.00000000      1.00000000      1.00000000      1.00000000      1.00000000      1.00000000      1.00000000      1.00000000      1.00000000      1.00000000      1.00000000      1.00000000      1.00000000      1.00000000      1.00000000      1.00000000
      1.00000000      1.00000000      1.00000000      1.00000000      1.00000000      1.00000000      1.00000000      1.00000000      1.00000000      1.00000000      1.00000000      1.00000000      1.00000000      1.00000000      1.00000000      1.00000000      1.00000000      1.00000000      1.00000000      1.00000000
      1.00000000      1.00000000      1.00000000      1.00000000      1.00000000      1.00000000      1.00000000      1.00000000      1.00000000      1.00000000      1.00000000      1.00000000      1.00000000      1.00000000      1.00000000      1.00000000      1.00000000      1.00000000      1.00000000      1.00000000
      1.00000000      1.00000000      1.00000000      1.00000000      1.00000000      1.00000000      1.00000000      1.00000000      1.00000000      1.00000000      1.00000000      1.00000000      1.00000000      1.00000000      1.00000000      1.00000000      1.00000000      1.00000000      1.00000000      1.00000000
      1.00000000      1.00000000      1.00000000      1.00000000      1.00000000      1.00000000      1.00000000      1.00000000      1.00000000      1.00000000      1.00000000      1.00000000      1.00000000      1.00000000      1.00000000      1.00000000      1.00000000      1.00000000      1.00000000      1.00000000
      1.00000000      1.00000000      1.00000000      1.00000000      1.00000000      1.00000000      1.00000000      1.00000000      1.00000000      1.00000000      1.00000000      1.00000000      1.00000000      1.00000000      1.00000000      1.00000000      1.00000000      1.00000000      1.00000000      1.00000000
      1.00000000      1.00000000      1.00000000      1.00000000      1.00000000      1.00000000      1.00000000      1.00000000      1.00000000      1.00000000      1.00000000      1.00000000      1.00000000      1.00000000      1.00000000      1.00000000      1.00000000      1.00000000      1.00000000      1.00000000
      1.00000000      1.00000000      1.00000000      1.00000000      1.00000000      1.00000000      1.00000000      1.00000000      1.00000000      1.00000000      1.00000000      1.00000000      1.00000000      1.00000000      1.00000000      1.00000000      1.00000000      1.00000000      1.00000000      1.00000000
      1.00000000      1.00000000      1.00000000      1.00000000      1.00000000      1.00000000      1.00000000      1.00000000      1.00000000      1.00000000      1.00000000      1.00000000      1.00000000      1.00000000      1.00000000      1.00000000      1.00000000      1.00000000      1.00000000      1.00000000
      1.00000000      1.00000000      1.00000000      1.00000000      1.00000000      1.00000000      1.00000000      1.00000000      1.00000000      1.00000000      1.00000000      1.00000000      1.00000000      1.00000000      1.00000000      1.00000000      1.00000000      1.00000000      1.00000000      1.00000000
      1.00000000      1.00000000      1.00000000      1.00000000      1.00000000</v>
    <i name="NUPDOWN">     -1.00000000</i>
    <i type="logical" name="LSORBIT"> F  </i>
    <v name="SAXIS">      0.00000000      0.00000000      1.00000000</v>
    <i type="logical" name="LSPIRAL"> F  </i>
    <v name="QSPIRAL">      0.00000000      0.00000000      0.00000000</v>
    <i type="logical" name="LZEROZ"> F  </i>
   </separator>
   <separator name="electronic exchange-correlation" >
    <i type="logical" name="LASPH"> F  </i>
    <i type="logical" name="LMETAGGA"> F  </i>
   </separator>
   <separator name="electronic convergence" >
    <i type="int" name="NELM">   600</i>
    <i type="int" name="NELMDL">     0</i>
    <i type="int" name="NELMIN">     2</i>
    <i name="ENINI">    500.00000000</i>
    <separator name="electronic convergence detail" >
     <i type="logical" name="LDIAG"> T  </i>
     <i type="logical" name="LSUBROT"> F  </i>
     <i name="WEIMIN">      0.00000000</i>
     <i name="EBREAK">      0.00000003</i>
     <i name="DEPER">      0.30000000</i>
     <i type="int" name="NRMM">     4</i>
     <i name="TIME">      0.40000000</i>
    </separator>
   </separator>
   <separator name="electronic mixer" >
    <i name="AMIX">      0.40000000</i>
    <i name="BMIX">      0.01000000</i>
    <i name="AMIN">      0.01000000</i>
    <i name="AMIX_MAG">      1.60000000</i>
    <i name="BMIX_MAG">      0.01000000</i>
    <separator name="electronic mixer details" >
     <i type="int" name="IMIX">     4</i>
     <i type="logical" name="MIXFIRST"> F  </i>
     <i type="int" name="MAXMIX">   -45</i>
     <i name="WC">    100.00000000</i>
     <i type="int" name="INIMIX">     1</i>
     <i type="int" name="MIXPRE">     1</i>
     <i type="int" name="MREMOVE">     5</i>
    </separator>
   </separator>
   <separator name="electronic dipolcorrection" >
    <i type="logical" name="LDIPOL"> T  </i>
    <i type="logical" name="LMONO"> F  </i>
    <i type="int" name="IDIPOL">     3</i>
    <i name="EPSILON">      1.00000000</i>
    <v name="DIPOL">   -100.00000000   -100.00000000   -100.00000000</v>
    <i name="EFIELD">      0.00000000</i>
   </separator>
  </separator>
  <separator name="grids" >
   <i type="int" name="NGX">   100</i>
   <i type="int" name="NGY">   100</i>
   <i type="int" name="NGZ">   350</i>
   <i type="int" name="NGXF">   200</i>
   <i type="int" name="NGYF">   200</i>
   <i type="int" name="NGZF">   700</i>
   <i type="logical" name="ADDGRID"> F  </i>
  </separator>
  <separator name="ionic" >
   <i type="int" name="NSW">     0</i>
   <i type="int" name="IBRION">    -1</i>
   <i type="int" name="MDALGO">     0</i>
   <i type="int" name="ISIF">     2</i>
   <i name="PSTRESS">      0.00000000</i>
   <i name="EDIFFG">      0.00100000</i>
   <i type="int" name="NFREE">     0</i>
   <i name="POTIM">      0.50000000</i>
   <i name="SMASS">     -3.00000000</i>
   <i name="SCALEE">      1.00000000</i>
  </separator>
  <separator name="ionic md" >
   <i name="TEBEG">      0.00010000</i>
   <i name="TEEND">      0.00010000</i>
   <i type="int" name="NBLOCK">     1</i>
   <i type="int" name="KBLOCK">     1</i>
   <i type="int" name="NPACO">   256</i>
   <i name="APACO">     16.00000000</i>
  </separator>
  <separator name="symmetry" >
   <i type="int" name="ISYM">     0</i>
   <i name="SYMPREC">      0.00001000</i>
  </separator>
  <separator name="dos" >
   <i type="int" name="LORBIT">     0</i>
   <v name="RWIGS">     -1.00000000     -1.00000000     -1.00000000     -1.00000000     -1.00000000</v>
   <i type="int" name="NEDOS">   301</i>
   <i name="EMIN">     10.00000000</i>
   <i name="EMAX">    -10.00000000</i>
   <i name="EFERMI">      0.00000000</i>
  </separator>
  <separator name="writing" >
   <i type="int" name="NWRITE">     2</i>
   <i type="logical" name="LWAVE"> F  </i>
   <i type="logical" name="LDOWNSAMPLE"> F  </i>
   <i type="logical" name="LCHARG"> T  </i>
   <i type="logical" name="LPARD"> F  </i>
   <i type="logical" name="LVTOT"> T  </i>
   <i type="logical" name="LVHAR"> F  </i>
   <i type="logical" name="LELF"> F  </i>
   <i type="logical" name="LOPTICS"> F  </i>
   <v name="STM">      0.00000000      0.00000000      0.00000000      0.00000000      0.00000000      0.00000000      0.00000000</v>
  </separator>
  <separator name="performance" >
   <i type="int" name="NPAR">     4</i>
   <i type="int" name="NSIM">     4</i>
   <i type="int" name="NBLK">    -1</i>
   <i type="logical" name="LPLANE"> T  </i>
   <i type="logical" name="LSCALAPACK"> T  </i>
   <i type="logical" name="LSCAAWARE"> F  </i>
   <i type="logical" name="LSCALU"> F  </i>
   <i type="logical" name="LASYNC"> F  </i>
   <i type="logical" name="LORBITALREAL"> F  </i>
  </separator>
  <separator name="miscellaneous" >
   <i type="int" name="IDIOT">     3</i>
   <i type="int" name="PHON_NSTRUCT">    -1</i>
   <i type="logical" name="LMUSIC"> F  </i>
   <v name="POMASS">      1.00000000     12.01100000     14.00100000    126.90400000    207.20000000</v>
   <v name="DARWINR">      0.00000000      0.00000000      0.00000000      0.00000000      0.00000000</v>
   <v name="DARWINV">      1.00000000      1.00000000      1.00000000      1.00000000      1.00000000</v>
   <i type="logical" name="LCORR"> T  </i>
  </separator>
  <i type="logical" name="GGA_COMPAT"> F  </i>
  <i type="logical" name="LBERRY"> F  </i>
  <i type="int" name="ICORELEVEL">     0</i>
  <i type="logical" name="LDAU"> F  </i>
  <i type="int" name="I_CONSTRAINED_M">     0</i>
  <separator name="electronic exchange-correlation" >
   <i type="string" name="GGA">--</i>
   <i type="int" name="VOSKOWN">     0</i>
   <i type="logical" name="LHFCALC"> F  </i>
   <i type="string" name="PRECFOCK"></i>
   <i type="logical" name="LSYMGRAD"> F  </i>
   <i type="logical" name="LHFONE"> F  </i>
   <i type="logical" name="LRHFCALC"> F  </i>
   <i type="logical" name="LTHOMAS"> F  </i>
   <i type="logical" name="LMODELHF"> F  </i>
   <i type="logical" name="LFOCKACE"> F  </i>
   <i name="ENCUT4O">     -1.00000000</i>
   <i type="int" name="EXXOEP">     0</i>
   <i type="int" name="FOURORBIT">     0</i>
   <i name="AEXX">      0.00000000</i>
   <i name="HFALPHA">      0.00000000</i>
   <i name="MCALPHA">      0.00000000</i>
   <i name="ALDAX">      1.00000000</i>
   <i name="AGGAX">      1.00000000</i>
   <i name="ALDAC">      1.00000000</i>
   <i name="AGGAC">      1.00000000</i>
   <i type="int" name="NKREDX">     1</i>
   <i type="int" name="NKREDY">     1</i>
   <i type="int" name="NKREDZ">     1</i>
   <i type="logical" name="SHIFTRED"> F  </i>
   <i type="logical" name="ODDONLY"> F  </i>
   <i type="logical" name="EVENONLY"> F  </i>
   <i type="int" name="LMAXFOCK">     0</i>
   <i type="int" name="NMAXFOCKAE">     0</i>
   <i type="logical" name="LFOCKAEDFT"> F  </i>
   <i name="HFSCREEN">      0.00000000</i>
   <i name="HFSCREENC">      0.00000000</i>
   <i type="int" name="NBANDSGWLOW">     0</i>
  </separator>
  <separator name="vdW DFT" >
   <i type="logical" name="LUSE_VDW"> F  </i>
   <i name="Zab_VDW">     -0.84910000</i>
   <i name="PARAM1">      0.12340000</i>
   <i name="PARAM2">      1.00000000</i>
   <i name="PARAM3">      0.00000000</i>
  </separator>
  <separator name="model GW" >
   <i type="int" name="MODEL_GW">     0</i>
   <i name="MODEL_EPS0">     37.63423484</i>
   <i name="MODEL_ALPHA">      1.00000000</i>
  </separator>
  <separator name="linear response parameters" >
   <i type="logical" name="LEPSILON"> F  </i>
   <i type="logical" name="LRPA"> F  </i>
   <i type="logical" name="LNABLA"> F  </i>
   <i type="logical" name="LVEL"> F  </i>
   <i type="int" name="KINTER">     0</i>
   <i name="CSHIFT">      0.10000000</i>
   <i name="OMEGAMAX">     -1.00000000</i>
   <i name="DEG_THRESHOLD">      0.00200000</i>
   <i name="RTIME">     -0.10000000</i>
   <i name="WPLASMAI">      0.00000000</i>
   <v name="DFIELD">      0.00000000      0.00000000      0.00000000</v>
   <v name="WPLASMA">      0.00000000      0.00000000      0.00000000      0.00000000      0.00000000      0.00000000      0.00000000      0.00000000      0.00000000</v>
  </separator>
  <separator name="orbital magnetization" >
   <i type="logical" name="NUCIND"> F  </i>
   <v name="MAGPOS">      0.00000000      0.00000000      0.00000000</v>
   <i type="logical" name="LNICSALL"> T  </i>
   <i type="logical" name="ORBITALMAG"> F  </i>
   <i type="logical" name="LMAGBLOCH"> F  </i>
   <i type="logical" name="LCHIMAG"> F  </i>
   <i type="logical" name="LGAUGE"> T  </i>
   <i type="int" name="MAGATOM">     0</i>
   <v name="MAGDIPOL">      0.00000000      0.00000000      0.00000000</v>
   <v name="AVECCONST">      0.00000000      0.00000000      0.00000000</v>
  </separator>
  <separator name="response functions" >
   <i type="logical" name="LFINITE_TEMPERATURE"> F  </i>
   <i type="logical" name="LADDER"> F  </i>
   <i type="logical" name="LRPAFORCE"> F  </i>
   <i type="logical" name="LFXC"> F  </i>
   <i type="logical" name="LHARTREE"> T  </i>
   <i type="int" name="IBSE">     0</i>
   <v type="int" name="KPOINT">    -1     0     0     0</v>
   <i type="logical" name="LTCTC"> F  </i>
   <i type="logical" name="LTCTE"> F  </i>
   <i type="logical" name="LTETE"> F  </i>
   <i type="logical" name="LTRIPLET"> F  </i>
   <i type="logical" name="LFXCEPS"> F  </i>
   <i type="logical" name="LFXHEG"> F  </i>
   <i type="int" name="NATURALO">     2</i>
   <i type="logical" name="LHOLEGF"> F  </i>
   <i type="logical" name="L2ORDER"> F  </i>
   <i type="logical" name="LDMP1"> F  </i>
   <i type="logical" name="LMP2LT"> F  </i>
   <i type="logical" name="LSMP2LT"> F  </i>
   <i type="logical" name="LGWLF"> F  </i>
   <i name="ENCUTGW">     -2.00000000</i>
   <i name="ENCUTGWSOFT">     -2.00000000</i>
   <i name="ENCUTLF">     -1.00000000</i>
   <i type="logical" name="LESF_SPLINES"> F  </i>
   <i type="int" name="LMAXMP2">    -1</i>
   <i name="SCISSOR">      0.00000000</i>
   <i type="int" name="NOMEGA">     0</i>
   <i type="int" name="NOMEGAR">     0</i>
   <i type="int" name="NBANDSGW">    -1</i>
   <i type="int" name="NBANDSO">    -1</i>
   <i type="int" name="NBANDSV">    -1</i>
   <i type="int" name="NELM">   600</i>
   <i type="int" name="NELMHF">     1</i>
   <i type="int" name="DIM">     3</i>
   <i type="int" name="IESPILON">     4</i>
   <i type="int" name="ANTIRES">     0</i>
   <i name="OMEGAMAX">    -30.00000000</i>
   <i name="OMEGAMIN">    -30.00000000</i>
   <i name="OMEGATL">   -200.00000000</i>
   <i type="int" name="OMEGAGRID">     0</i>
   <i name="CSHIFT">     -0.10000000</i>
   <i type="logical" name="LSELFENERGY"> F  </i>
   <i type="logical" name="LSPECTRAL"> F  </i>
   <i type="logical" name="LSPECTRALGW"> F  </i>
   <i type="logical" name="LSINGLES"> F  </i>
   <i type="logical" name="LFERMIGW"> F  </i>
   <i type="logical" name="ODDONLYGW"> F  </i>
   <i type="logical" name="EVENONLYGW"> F  </i>
   <i type="int" name="NKREDLFX">     1</i>
   <i type="int" name="NKREDLFY">     1</i>
   <i type="int" name="NKREDLFZ">     1</i>
   <i type="int" name="MAXMEM">  2800</i>
   <i type="int" name="TELESCOPE">     0</i>
   <i type="int" name="NTAUPAR">    -1</i>
   <i type="int" name="NOMEGAPAR">    -1</i>
   <i name="DAMP_NEWTON">      0.80000001</i>
   <i name="LAMBDA">      1.00000000</i>
  </separator>
  <separator name="External order field" >
   <i name="OFIELD_KAPPA">      0.00000000</i>
   <v name="OFIELD_K">      0.00000000      0.00000000      0.00000000</v>
   <i name="OFIELD_Q6_NEAR">      0.00000000</i>
   <i name="OFIELD_Q6_FAR">      0.00000000</i>
   <i name="OFIELD_A">      0.00000000</i>
  </separator>
 </parameters>
 <atominfo>
  <atoms>     325 </atoms>
  <types>       5 </types>
  <array name="atoms" >
   <dimension dim="1">ion</dimension>
   <field type="string">element</field>
   <field type="int">atomtype</field>
   <set>
    <rc><c>H </c><c>   1</c></rc>
    <rc><c>H </c><c>   1</c></rc>
    <rc><c>H </c><c>   1</c></rc>
    <rc><c>H </c><c>   1</c></rc>
    <rc><c>H </c><c>   1</c></rc>
    <rc><c>H </c><c>   1</c></rc>
    <rc><c>H </c><c>   1</c></rc>
    <rc><c>H </c><c>   1</c></rc>
    <rc><c>H </c><c>   1</c></rc>
    <rc><c>H </c><c>   1</c></rc>
    <rc><c>H </c><c>   1</c></rc>
    <rc><c>H </c><c>   1</c></rc>
    <rc><c>H </c><c>   1</c></rc>
    <rc><c>H </c><c>   1</c></rc>
    <rc><c>H </c><c>   1</c></rc>
    <rc><c>H </c><c>   1</c></rc>
    <rc><c>H </c><c>   1</c></rc>
    <rc><c>H </c><c>   1</c></rc>
    <rc><c>H </c><c>   1</c></rc>
    <rc><c>H </c><c>   1</c></rc>
    <rc><c>H </c><c>   1</c></rc>
    <rc><c>H </c><c>   1</c></rc>
    <rc><c>H </c><c>   1</c></rc>
    <rc><c>H </c><c>   1</c></rc>
    <rc><c>H </c><c>   1</c></rc>
    <rc><c>H </c><c>   1</c></rc>
    <rc><c>H </c><c>   1</c></rc>
    <rc><c>H </c><c>   1</c></rc>
    <rc><c>H </c><c>   1</c></rc>
    <rc><c>H </c><c>   1</c></rc>
    <rc><c>H </c><c>   1</c></rc>
    <rc><c>H </c><c>   1</c></rc>
    <rc><c>H </c><c>   1</c></rc>
    <rc><c>H </c><c>   1</c></rc>
    <rc><c>H </c><c>   1</c></rc>
    <rc><c>H </c><c>   1</c></rc>
    <rc><c>H </c><c>   1</c></rc>
    <rc><c>H </c><c>   1</c></rc>
    <rc><c>H </c><c>   1</c></rc>
    <rc><c>H </c><c>   1</c></rc>
    <rc><c>H </c><c>   1</c></rc>
    <rc><c>H </c><c>   1</c></rc>
    <rc><c>H </c><c>   1</c></rc>
    <rc><c>H </c><c>   1</c></rc>
    <rc><c>H </c><c>   1</c></rc>
    <rc><c>H </c><c>   1</c></rc>
    <rc><c>H </c><c>   1</c></rc>
    <rc><c>H </c><c>   1</c></rc>
    <rc><c>H </c><c>   1</c></rc>
    <rc><c>H </c><c>   1</c></rc>
    <rc><c>H </c><c>   1</c></rc>
    <rc><c>H </c><c>   1</c></rc>
    <rc><c>H </c><c>   1</c></rc>
    <rc><c>H </c><c>   1</c></rc>
    <rc><c>H </c><c>   1</c></rc>
    <rc><c>H </c><c>   1</c></rc>
    <rc><c>H </c><c>   1</c></rc>
    <rc><c>H </c><c>   1</c></rc>
    <rc><c>H </c><c>   1</c></rc>
    <rc><c>H </c><c>   1</c></rc>
    <rc><c>H </c><c>   1</c></rc>
    <rc><c>H </c><c>   1</c></rc>
    <rc><c>H </c><c>   1</c></rc>
    <rc><c>H </c><c>   1</c></rc>
    <rc><c>H </c><c>   1</c></rc>
    <rc><c>H </c><c>   1</c></rc>
    <rc><c>H </c><c>   1</c></rc>
    <rc><c>H </c><c>   1</c></rc>
    <rc><c>H </c><c>   1</c></rc>
    <rc><c>H </c><c>   1</c></rc>
    <rc><c>H </c><c>   1</c></rc>
    <rc><c>H </c><c>   1</c></rc>
    <rc><c>H </c><c>   1</c></rc>
    <rc><c>H </c><c>   1</c></rc>
    <rc><c>H </c><c>   1</c></rc>
    <rc><c>H </c><c>   1</c></rc>
    <rc><c>H </c><c>   1</c></rc>
    <rc><c>H </c><c>   1</c></rc>
    <rc><c>H </c><c>   1</c></rc>
    <rc><c>H </c><c>   1</c></rc>
    <rc><c>H </c><c>   1</c></rc>
    <rc><c>H </c><c>   1</c></rc>
    <rc><c>H </c><c>   1</c></rc>
    <rc><c>H </c><c>   1</c></rc>
    <rc><c>H </c><c>   1</c></rc>
    <rc><c>H </c><c>   1</c></rc>
    <rc><c>H </c><c>   1</c></rc>
    <rc><c>H </c><c>   1</c></rc>
    <rc><c>H </c><c>   1</c></rc>
    <rc><c>H </c><c>   1</c></rc>
    <rc><c>H </c><c>   1</c></rc>
    <rc><c>H </c><c>   1</c></rc>
    <rc><c>H </c><c>   1</c></rc>
    <rc><c>H </c><c>   1</c></rc>
    <rc><c>H </c><c>   1</c></rc>
    <rc><c>H </c><c>   1</c></rc>
    <rc><c>H </c><c>   1</c></rc>
    <rc><c>H </c><c>   1</c></rc>
    <rc><c>H </c><c>   1</c></rc>
    <rc><c>H </c><c>   1</c></rc>
    <rc><c>H </c><c>   1</c></rc>
    <rc><c>H </c><c>   1</c></rc>
    <rc><c>H </c><c>   1</c></rc>
    <rc><c>H </c><c>   1</c></rc>
    <rc><c>H </c><c>   1</c></rc>
    <rc><c>H </c><c>   1</c></rc>
    <rc><c>H </c><c>   1</c></rc>
    <rc><c>H </c><c>   1</c></rc>
    <rc><c>H </c><c>   1</c></rc>
    <rc><c>H </c><c>   1</c></rc>
    <rc><c>H </c><c>   1</c></rc>
    <rc><c>H </c><c>   1</c></rc>
    <rc><c>H </c><c>   1</c></rc>
    <rc><c>H </c><c>   1</c></rc>
    <rc><c>H </c><c>   1</c></rc>
    <rc><c>H </c><c>   1</c></rc>
    <rc><c>H </c><c>   1</c></rc>
    <rc><c>H </c><c>   1</c></rc>
    <rc><c>H </c><c>   1</c></rc>
    <rc><c>H </c><c>   1</c></rc>
    <rc><c>H </c><c>   1</c></rc>
    <rc><c>H </c><c>   1</c></rc>
    <rc><c>H </c><c>   1</c></rc>
    <rc><c>H </c><c>   1</c></rc>
    <rc><c>H </c><c>   1</c></rc>
    <rc><c>H </c><c>   1</c></rc>
    <rc><c>H </c><c>   1</c></rc>
    <rc><c>H </c><c>   1</c></rc>
    <rc><c>H </c><c>   1</c></rc>
    <rc><c>H </c><c>   1</c></rc>
    <rc><c>H </c><c>   1</c></rc>
    <rc><c>H </c><c>   1</c></rc>
    <rc><c>H </c><c>   1</c></rc>
    <rc><c>H </c><c>   1</c></rc>
    <rc><c>H </c><c>   1</c></rc>
    <rc><c>H </c><c>   1</c></rc>
    <rc><c>H </c><c>   1</c></rc>
    <rc><c>H </c><c>   1</c></rc>
    <rc><c>H </c><c>   1</c></rc>
    <rc><c>H </c><c>   1</c></rc>
    <rc><c>H </c><c>   1</c></rc>
    <rc><c>H </c><c>   1</c></rc>
    <rc><c>H </c><c>   1</c></rc>
    <rc><c>C </c><c>   2</c></rc>
    <rc><c>C </c><c>   2</c></rc>
    <rc><c>C </c><c>   2</c></rc>
    <rc><c>C </c><c>   2</c></rc>
    <rc><c>C </c><c>   2</c></rc>
    <rc><c>C </c><c>   2</c></rc>
    <rc><c>C </c><c>   2</c></rc>
    <rc><c>C </c><c>   2</c></rc>
    <rc><c>C </c><c>   2</c></rc>
    <rc><c>C </c><c>   2</c></rc>
    <rc><c>C </c><c>   2</c></rc>
    <rc><c>C </c><c>   2</c></rc>
    <rc><c>C </c><c>   2</c></rc>
    <rc><c>C </c><c>   2</c></rc>
    <rc><c>C </c><c>   2</c></rc>
    <rc><c>C </c><c>   2</c></rc>
    <rc><c>C </c><c>   2</c></rc>
    <rc><c>C </c><c>   2</c></rc>
    <rc><c>C </c><c>   2</c></rc>
    <rc><c>C </c><c>   2</c></rc>
    <rc><c>C </c><c>   2</c></rc>
    <rc><c>C </c><c>   2</c></rc>
    <rc><c>C </c><c>   2</c></rc>
    <rc><c>C </c><c>   2</c></rc>
    <rc><c>C </c><c>   2</c></rc>
    <rc><c>C </c><c>   2</c></rc>
    <rc><c>C </c><c>   2</c></rc>
    <rc><c>C </c><c>   2</c></rc>
    <rc><c>C </c><c>   2</c></rc>
    <rc><c>C </c><c>   2</c></rc>
    <rc><c>C </c><c>   2</c></rc>
    <rc><c>C </c><c>   2</c></rc>
    <rc><c>C </c><c>   2</c></rc>
    <rc><c>C </c><c>   2</c></rc>
    <rc><c>C </c><c>   2</c></rc>
    <rc><c>C </c><c>   2</c></rc>
    <rc><c>C </c><c>   2</c></rc>
    <rc><c>C </c><c>   2</c></rc>
    <rc><c>C </c><c>   2</c></rc>
    <rc><c>N </c><c>   3</c></rc>
    <rc><c>N </c><c>   3</c></rc>
    <rc><c>N </c><c>   3</c></rc>
    <rc><c>N </c><c>   3</c></rc>
    <rc><c>N </c><c>   3</c></rc>
    <rc><c>N </c><c>   3</c></rc>
    <rc><c>N </c><c>   3</c></rc>
    <rc><c>N </c><c>   3</c></rc>
    <rc><c>N </c><c>   3</c></rc>
    <rc><c>N </c><c>   3</c></rc>
    <rc><c>N </c><c>   3</c></rc>
    <rc><c>N </c><c>   3</c></rc>
    <rc><c>N </c><c>   3</c></rc>
    <rc><c>N </c><c>   3</c></rc>
    <rc><c>N </c><c>   3</c></rc>
    <rc><c>N </c><c>   3</c></rc>
    <rc><c>N </c><c>   3</c></rc>
    <rc><c>N </c><c>   3</c></rc>
    <rc><c>N </c><c>   3</c></rc>
    <rc><c>N </c><c>   3</c></rc>
    <rc><c>N </c><c>   3</c></rc>
    <rc><c>N </c><c>   3</c></rc>
    <rc><c>N </c><c>   3</c></rc>
    <rc><c>N </c><c>   3</c></rc>
    <rc><c>N </c><c>   3</c></rc>
    <rc><c>N </c><c>   3</c></rc>
    <rc><c>N </c><c>   3</c></rc>
    <rc><c>N </c><c>   3</c></rc>
    <rc><c>N </c><c>   3</c></rc>
    <rc><c>N </c><c>   3</c></rc>
    <rc><c>N </c><c>   3</c></rc>
    <rc><c>N </c><c>   3</c></rc>
    <rc><c>N </c><c>   3</c></rc>
    <rc><c>N </c><c>   3</c></rc>
    <rc><c>N </c><c>   3</c></rc>
    <rc><c>N </c><c>   3</c></rc>
    <rc><c>N </c><c>   3</c></rc>
    <rc><c>N </c><c>   3</c></rc>
    <rc><c>N </c><c>   3</c></rc>
    <rc><c>N </c><c>   3</c></rc>
    <rc><c>N </c><c>   3</c></rc>
    <rc><c>N </c><c>   3</c></rc>
    <rc><c>N </c><c>   3</c></rc>
    <rc><c>N </c><c>   3</c></rc>
    <rc><c>N </c><c>   3</c></rc>
    <rc><c>N </c><c>   3</c></rc>
    <rc><c>N </c><c>   3</c></rc>
    <rc><c>I </c><c>   4</c></rc>
    <rc><c>I </c><c>   4</c></rc>
    <rc><c>I </c><c>   4</c></rc>
    <rc><c>I </c><c>   4</c></rc>
    <rc><c>I </c><c>   4</c></rc>
    <rc><c>I </c><c>   4</c></rc>
    <rc><c>I </c><c>   4</c></rc>
    <rc><c>I </c><c>   4</c></rc>
    <rc><c>I </c><c>   4</c></rc>
    <rc><c>I </c><c>   4</c></rc>
    <rc><c>I </c><c>   4</c></rc>
    <rc><c>I </c><c>   4</c></rc>
    <rc><c>I </c><c>   4</c></rc>
    <rc><c>I </c><c>   4</c></rc>
    <rc><c>I </c><c>   4</c></rc>
    <rc><c>I </c><c>   4</c></rc>
    <rc><c>I </c><c>   4</c></rc>
    <rc><c>I </c><c>   4</c></rc>
    <rc><c>I </c><c>   4</c></rc>
    <rc><c>I </c><c>   4</c></rc>
    <rc><c>I </c><c>   4</c></rc>
    <rc><c>I </c><c>   4</c></rc>
    <rc><c>I </c><c>   4</c></rc>
    <rc><c>I </c><c>   4</c></rc>
    <rc><c>I </c><c>   4</c></rc>
    <rc><c>I </c><c>   4</c></rc>
    <rc><c>I </c><c>   4</c></rc>
    <rc><c>I </c><c>   4</c></rc>
    <rc><c>I </c><c>   4</c></rc>
    <rc><c>I </c><c>   4</c></rc>
    <rc><c>I </c><c>   4</c></rc>
    <rc><c>I </c><c>   4</c></rc>
    <rc><c>I </c><c>   4</c></rc>
    <rc><c>I </c><c>   4</c></rc>
    <rc><c>I </c><c>   4</c></rc>
    <rc><c>I </c><c>   4</c></rc>
    <rc><c>I </c><c>   4</c></rc>
    <rc><c>I </c><c>   4</c></rc>
    <rc><c>I </c><c>   4</c></rc>
    <rc><c>I </c><c>   4</c></rc>
    <rc><c>I </c><c>   4</c></rc>
    <rc><c>I </c><c>   4</c></rc>
    <rc><c>I </c><c>   4</c></rc>
    <rc><c>I </c><c>   4</c></rc>
    <rc><c>I </c><c>   4</c></rc>
    <rc><c>I </c><c>   4</c></rc>
    <rc><c>I </c><c>   4</c></rc>
    <rc><c>I </c><c>   4</c></rc>
    <rc><c>I </c><c>   4</c></rc>
    <rc><c>I </c><c>   4</c></rc>
    <rc><c>I </c><c>   4</c></rc>
    <rc><c>I </c><c>   4</c></rc>
    <rc><c>I </c><c>   4</c></rc>
    <rc><c>I </c><c>   4</c></rc>
    <rc><c>I </c><c>   4</c></rc>
    <rc><c>I </c><c>   4</c></rc>
    <rc><c>I </c><c>   4</c></rc>
    <rc><c>I </c><c>   4</c></rc>
    <rc><c>I </c><c>   4</c></rc>
    <rc><c>I </c><c>   4</c></rc>
    <rc><c>I </c><c>   4</c></rc>
    <rc><c>I </c><c>   4</c></rc>
    <rc><c>I </c><c>   4</c></rc>
    <rc><c>I </c><c>   4</c></rc>
    <rc><c>I </c><c>   4</c></rc>
    <rc><c>I </c><c>   4</c></rc>
    <rc><c>I </c><c>   4</c></rc>
    <rc><c>I </c><c>   4</c></rc>
    <rc><c>I </c><c>   4</c></rc>
    <rc><c>I </c><c>   4</c></rc>
    <rc><c>I </c><c>   4</c></rc>
    <rc><c>I </c><c>   4</c></rc>
    <rc><c>Pb</c><c>   5</c></rc>
    <rc><c>Pb</c><c>   5</c></rc>
    <rc><c>Pb</c><c>   5</c></rc>
    <rc><c>Pb</c><c>   5</c></rc>
    <rc><c>Pb</c><c>   5</c></rc>
    <rc><c>Pb</c><c>   5</c></rc>
    <rc><c>Pb</c><c>   5</c></rc>
    <rc><c>Pb</c><c>   5</c></rc>
    <rc><c>Pb</c><c>   5</c></rc>
    <rc><c>Pb</c><c>   5</c></rc>
    <rc><c>Pb</c><c>   5</c></rc>
    <rc><c>Pb</c><c>   5</c></rc>
    <rc><c>Pb</c><c>   5</c></rc>
    <rc><c>Pb</c><c>   5</c></rc>
    <rc><c>Pb</c><c>   5</c></rc>
    <rc><c>Pb</c><c>   5</c></rc>
    <rc><c>Pb</c><c>   5</c></rc>
    <rc><c>Pb</c><c>   5</c></rc>
    <rc><c>Pb</c><c>   5</c></rc>
    <rc><c>Pb</c><c>   5</c></rc>
    <rc><c>Pb</c><c>   5</c></rc>
    <rc><c>Pb</c><c>   5</c></rc>
    <rc><c>Pb</c><c>   5</c></rc>
    <rc><c>Pb</c><c>   5</c></rc>
   </set>
  </array>
  <array name="atomtypes" >
   <dimension dim="1">type</dimension>
   <field type="int">atomspertype</field>
   <field type="string">element</field>
   <field>mass</field>
   <field>valence</field>
   <field type="string">pseudopotential</field>
   <set>
    <rc><c> 143</c><c>H </c><c>      1.00000000</c><c>      1.00000000</c><c>  PAW_PBE H 15Jun2001                   </c></rc>
    <rc><c>  39</c><c>C </c><c>     12.01100000</c><c>      4.00000000</c><c>  PAW_PBE C 08Apr2002                   </c></rc>
    <rc><c>  47</c><c>N </c><c>     14.00100000</c><c>      5.00000000</c><c>  PAW_PBE N 08Apr2002                   </c></rc>
    <rc><c>  72</c><c>I </c><c>    126.90400000</c><c>      7.00000000</c><c>  PAW_PBE I 08Apr2002                   </c></rc>
    <rc><c>  24</c><c>Pb</c><c>    207.20000000</c><c>      4.00000000</c><c>  PAW_PBE Pb 08Apr2002                  </c></rc>
   </set>
  </array>
 </atominfo>
 <structure name="initialpos" >
  <crystal>
   <varray name="basis" >
    <v>      18.06080055       0.00000000       0.00000000 </v>
    <v>      -0.00491865      18.06279945       0.00000000 </v>
    <v>       0.00000000       0.00000000      62.48749924 </v>
   </varray>
   <i name="volume">  20385.21054034 </i>
   <varray name="rec_basis" >
    <v>       0.05536853       0.00001508      -0.00000000 </v>
    <v>       0.00000000       0.05536240       0.00000000 </v>
    <v>       0.00000000      -0.00000000       0.01600320 </v>
   </varray>
  </crystal>
  <varray name="positions" >
   <v>       0.44554975       0.29965864       0.58286243 </v>
   <v>       0.44310950       0.83048152       0.57923597 </v>
   <v>       0.95778887       0.26882045       0.58629036 </v>
   <v>       0.96966623       0.80686083       0.58618591 </v>
   <v>       0.29930378       0.04469365       0.58362052 </v>
   <v>       0.30175465       0.54898872       0.58277153 </v>
   <v>       0.77767178       0.06611063       0.58148343 </v>
   <v>       0.10044249       0.18847369       0.55396651 </v>
   <v>       0.07985512       0.67666259       0.55615372 </v>
   <v>       0.58475672       0.17800793       0.55693177 </v>
   <v>       0.54322527       0.65872294       0.56617995 </v>
   <v>       0.35000265       0.05515527       0.55954063 </v>
   <v>       0.31659724       0.59479379       0.55824538 </v>
   <v>       0.83118332       0.08050120       0.55823824 </v>
   <v>       0.07432474       0.19989608       0.58051583 </v>
   <v>       0.04823051       0.69242334       0.58193671 </v>
   <v>       0.56357807       0.22009868       0.58151725 </v>
   <v>       0.51185233       0.71096024       0.58726523 </v>
   <v>       0.21624328       0.43690110       0.58197706 </v>
   <v>       0.18168682       0.96755165       0.58130114 </v>
   <v>       0.69120112       0.95679708       0.58117313 </v>
   <v>       0.39294990       0.29860477       0.55909858 </v>
   <v>       0.43620589       0.85174120       0.55190781 </v>
   <v>       0.90889411       0.29695880       0.56439346 </v>
   <v>       0.95241333       0.85928018       0.56391510 </v>
   <v>       0.17982544       0.41364999       0.55668843 </v>
   <v>       0.15853460       0.93312236       0.55572706 </v>
   <v>       0.69189737       0.90050035       0.55756727 </v>
   <v>       0.47769803       0.22153227       0.54039538 </v>
   <v>       0.50157881       0.74369862       0.54026577 </v>
   <v>       0.99464965       0.25098452       0.54035448 </v>
   <v>       0.02135212       0.78235356       0.54130987 </v>
   <v>       0.24188302       0.51305677       0.53945665 </v>
   <v>       0.26548078       0.98603774       0.53985731 </v>
   <v>       0.77858184       0.97496550       0.54097826 </v>
   <v>       0.45209941       0.30631944       0.67551756 </v>
   <v>       0.43966366       0.80747439       0.67558624 </v>
   <v>       0.94778837       0.29269169       0.67659291 </v>
   <v>       0.94651030       0.80587119       0.67539491 </v>
   <v>       0.29950459       0.04651556       0.67544809 </v>
   <v>       0.29450291       0.55355039       0.67618725 </v>
   <v>       0.81065017       0.05115689       0.67440454 </v>
   <v>       0.83059753       0.53830109       0.67486777 </v>
   <v>       0.08551139       0.17195227       0.64906995 </v>
   <v>       0.08575072       0.68155910       0.65303772 </v>
   <v>       0.57221226       0.16551899       0.65042178 </v>
   <v>       0.57109939       0.66775203       0.65389867 </v>
   <v>       0.18621850       0.41116369       0.64763527 </v>
   <v>       0.16934343       0.91928569       0.64788178 </v>
   <v>       0.65925851       0.44325356       0.65273499 </v>
   <v>       0.66529091       0.93026817       0.65121973 </v>
   <v>       0.06003599       0.19422068       0.67485348 </v>
   <v>       0.04450466       0.70386117       0.67735319 </v>
   <v>       0.55324634       0.20140523       0.67544900 </v>
   <v>       0.54139693       0.70112989       0.67853336 </v>
   <v>       0.20489232       0.43964739       0.67383393 </v>
   <v>       0.19578192       0.94351601       0.67407012 </v>
   <v>       0.71201733       0.44518822       0.67646037 </v>
   <v>       0.69895599       0.95613301       0.67636129 </v>
   <v>       0.41727764       0.32465550       0.65022875 </v>
   <v>       0.41924663       0.83184227       0.64936999 </v>
   <v>       0.91808335       0.31930155       0.65146184 </v>
   <v>       0.92731460       0.83882984       0.64978585 </v>
   <v>       0.32854843       0.07574467       0.65037050 </v>
   <v>       0.32526111       0.58584658       0.65126777 </v>
   <v>       0.83494003       0.07543919       0.64827835 </v>
   <v>       0.84085317       0.57738728       0.64919436 </v>
   <v>       0.99774318       0.24985470       0.63261188 </v>
   <v>       0.01749708       0.76375235       0.63409112 </v>
   <v>       0.48774727       0.23719711       0.63269674 </v>
   <v>       0.50087935       0.74495404       0.63397837 </v>
   <v>       0.24912775       0.99702557       0.63119393 </v>
   <v>       0.25996926       0.50121651       0.63147860 </v>
   <v>       0.74604392       0.99956273       0.63190214 </v>
   <v>       0.73472843       0.52206981       0.63417750 </v>
   <v>       0.44874502       0.30128397       0.76888902 </v>
   <v>       0.44874501       0.80128391       0.76888902 </v>
   <v>       0.94874497       0.30128397       0.76888902 </v>
   <v>       0.94874501       0.80128391       0.76888902 </v>
   <v>       0.30127600       0.05129450       0.76887296 </v>
   <v>       0.30127601       0.55129450       0.76887296 </v>
   <v>       0.80127594       0.05129450       0.76887296 </v>
   <v>       0.80127598       0.55129450       0.76887296 </v>
   <v>       0.07877100       0.17118050       0.74344197 </v>
   <v>       0.07877101       0.67118045       0.74344197 </v>
   <v>       0.57877100       0.17118050       0.74344197 </v>
   <v>       0.57877099       0.67118045       0.74344197 </v>
   <v>       0.17119950       0.42117448       0.74342103 </v>
   <v>       0.17119950       0.92117451       0.74342103 </v>
   <v>       0.67119951       0.42117448       0.74342103 </v>
   <v>       0.67119950       0.92117451       0.74342103 </v>
   <v>       0.05125600       0.19871499       0.76888902 </v>
   <v>       0.05125600       0.69871493       0.76888902 </v>
   <v>       0.55125603       0.19871499       0.76888902 </v>
   <v>       0.55125602       0.69871493       0.76888902 </v>
   <v>       0.19872349       0.44870397       0.76887205 </v>
   <v>       0.19872349       0.94870397       0.76887205 </v>
   <v>       0.69872352       0.44870397       0.76887205 </v>
   <v>       0.69872351       0.94870397       0.76887205 </v>
   <v>       0.42123152       0.32881747       0.74344197 </v>
   <v>       0.42123151       0.82881744       0.74344197 </v>
   <v>       0.92123147       0.32881747       0.74344197 </v>
   <v>       0.92123151       0.82881744       0.74344197 </v>
   <v>       0.32880050       0.07882500       0.74342103 </v>
   <v>       0.32880049       0.57882496       0.74342103 </v>
   <v>       0.82880048       0.07882500       0.74342103 </v>
   <v>       0.82880052       0.57882496       0.74342103 </v>
   <v>       0.00000350       0.25000148       0.72582199 </v>
   <v>       0.00000350       0.75000145       0.72582199 </v>
   <v>       0.50000351       0.25000148       0.72582199 </v>
   <v>       0.50000350       0.75000145       0.72582199 </v>
   <v>       0.25000050       0.00000000       0.72580398 </v>
   <v>       0.25000052       0.50000000       0.72580398 </v>
   <v>       0.75000050       0.00000000       0.72580398 </v>
   <v>       0.75000049       0.50000000       0.72580398 </v>
   <v>       0.71895952       0.45080474       0.54648040 </v>
   <v>       0.74047701       0.51225371       0.52514178 </v>
   <v>       0.65217517       0.54483027       0.56120984 </v>
   <v>       0.68540726       0.63774461       0.56329992 </v>
   <v>       0.83778049       0.51306912       0.57976202 </v>
   <v>       0.77418292       0.57905764       0.58770849 </v>
   <v>       0.87323155       0.55947783       0.54294746 </v>
   <v>       0.81103238       0.62010152       0.52881195 </v>
   <v>       0.86933816       0.48030503       0.52654465 </v>
   <v>       0.86440156       0.45005390       0.55292083 </v>
   <v>       0.88799952       0.35271767       0.52843559 </v>
   <v>       0.79613115       0.33869027       0.53876706 </v>
   <v>       0.61872029       0.55479815       0.52718485 </v>
   <v>       0.69275398       0.61159159       0.51921103 </v>
   <v>       0.61842620       0.65103538       0.53242607 </v>
   <v>       0.72647316       0.45822567       0.60242549 </v>
   <v>       0.74251547       0.41502268       0.57810641 </v>
   <v>       0.66870599       0.47630260       0.58138508 </v>
   <v>       0.83875105       0.67663118       0.57284272 </v>
   <v>       0.87550715       0.71007937       0.54886973 </v>
   <v>       0.92130634       0.63632831       0.56340352 </v>
   <v>       0.84098149       0.39940596       0.49448840 </v>
   <v>       0.80403509       0.30899029       0.50105237 </v>
   <v>       0.67195581       0.31837015       0.52333630 </v>
   <v>       0.75340028       0.48908693       0.48097151 </v>
   <v>       0.54264312       0.36618541       0.51978896 </v>
   <v>       0.62362929       0.53913646       0.47712918 </v>
   <v>       0.51873308       0.48225738       0.49723095 </v>
   <v>       0.00346060       0.24416221       0.55794332 </v>
   <v>       0.01662914       0.76872721       0.55872693 </v>
   <v>       0.48759147       0.23842754       0.55690790 </v>
   <v>       0.49170897       0.75585761       0.55777855 </v>
   <v>       0.24698795       0.50370751       0.55678635 </v>
   <v>       0.25548386       0.99458832       0.55703195 </v>
   <v>       0.76078284       0.98977653       0.55725990 </v>
   <v>       0.00100228       0.24640186       0.64971412 </v>
   <v>       0.00678082       0.76088623       0.65082237 </v>
   <v>       0.49381176       0.24535673       0.64954929 </v>
   <v>       0.49479811       0.75112583       0.65103060 </v>
   <v>       0.25566885       0.49777806       0.64875506 </v>
   <v>       0.24994891       0.99872403       0.64841955 </v>
   <v>       0.75071696       0.51037237       0.65119244 </v>
   <v>       0.75122574       0.00325712       0.64902990 </v>
   <v>       0.49998898       0.24999498       0.74327702 </v>
   <v>       0.49998903       0.74999496       0.74327702 </v>
   <v>       0.99998898       0.24999498       0.74327702 </v>
   <v>       0.99998903       0.74999496       0.74327702 </v>
   <v>       0.25000050       0.00000100       0.74325596 </v>
   <v>       0.25000052       0.50000100       0.74325596 </v>
   <v>       0.75000050       0.00000100       0.74325596 </v>
   <v>       0.75000049       0.50000100       0.74325596 </v>
   <v>       0.72085852       0.39857619       0.50232398 </v>
   <v>       0.65964656       0.36491013       0.51307931 </v>
   <v>       0.70622687       0.46120731       0.48896865 </v>
   <v>       0.58837443       0.39317253       0.51136555 </v>
   <v>       0.63343940       0.48853920       0.48746237 </v>
   <v>       0.57605610       0.45656602       0.49818619 </v>
   <v>       0.76117142       0.48633390       0.53947668 </v>
   <v>       0.68609666       0.58790517       0.55367739 </v>
   <v>       0.77871071       0.52881213       0.57814261 </v>
   <v>       0.82970409       0.60129012       0.54527221 </v>
   <v>       0.83351698       0.45044925       0.53754862 </v>
   <v>       0.83057259       0.37558799       0.52875078 </v>
   <v>       0.65316410       0.60132861       0.53172207 </v>
   <v>       0.72707498       0.46780306       0.58514237 </v>
   <v>       0.86868597       0.66037218       0.55860160 </v>
   <v>       0.80192027       0.36874805       0.50570341 </v>
   <v>       0.06293615       0.20870339       0.56461616 </v>
   <v>       0.04918875       0.70972689       0.56565171 </v>
   <v>       0.54744885       0.20843857       0.56581611 </v>
   <v>       0.51979112       0.70666446       0.57121880 </v>
   <v>       0.44018862       0.28166996       0.56654087 </v>
   <v>       0.45591166       0.81465351       0.56300183 </v>
   <v>       0.95460808       0.27190223       0.57011305 </v>
   <v>       0.97911625       0.81489891       0.57012209 </v>
   <v>       0.21377287       0.44894119       0.56626927 </v>
   <v>       0.19500677       0.96354708       0.56579194 </v>
   <v>       0.71136948       0.94882729       0.56639850 </v>
   <v>       0.30258820       0.03347637       0.56791321 </v>
   <v>       0.29067619       0.55163853       0.56714151 </v>
   <v>       0.79152452       0.04883303       0.56685166 </v>
   <v>       0.05285536       0.20072017       0.65864541 </v>
   <v>       0.04974773       0.71076985       0.66160975 </v>
   <v>       0.54429221       0.20052274       0.65934965 </v>
   <v>       0.53678111       0.70558639       0.66228945 </v>
   <v>       0.21471678       0.44659401       0.65712191 </v>
   <v>       0.20137372       0.95077822       0.65735627 </v>
   <v>       0.70466929       0.46396298       0.66102674 </v>
   <v>       0.70167128       0.96013452       0.65950960 </v>
   <v>       0.45296132       0.29367584       0.65885041 </v>
   <v>       0.44953060       0.79830977       0.65893783 </v>
   <v>       0.95511610       0.28663239       0.66017947 </v>
   <v>       0.95675931       0.80396081       0.65967149 </v>
   <v>       0.29431145       0.04173227       0.65849078 </v>
   <v>       0.29354123       0.55029842       0.65927163 </v>
   <v>       0.80093110       0.04437369       0.65761218 </v>
   <v>       0.80876694       0.54193009       0.65899509 </v>
   <v>       0.04586250       0.20411950       0.75272599 </v>
   <v>       0.04586250       0.70411946       0.75272599 </v>
   <v>       0.54586251       0.20411950       0.75272599 </v>
   <v>       0.54586250       0.70411946       0.75272599 </v>
   <v>       0.20411900       0.45410100       0.75270499 </v>
   <v>       0.20411899       0.95410095       0.75270499 </v>
   <v>       0.70411898       0.45410100       0.75270499 </v>
   <v>       0.70411896       0.95410095       0.75270499 </v>
   <v>       0.45414002       0.29588849       0.75272697 </v>
   <v>       0.45414001       0.79588852       0.75272697 </v>
   <v>       0.95414002       0.29588849       0.75272697 </v>
[...]
   <v>       0.58475672       0.17800793       0.55693177 </v>
   <v>       0.54322527       0.65872294       0.56617995 </v>
   <v>       0.35000265       0.05515527       0.55954063 </v>
   <v>       0.31659724       0.59479379       0.55824538 </v>
   <v>       0.83118332       0.08050120       0.55823824 </v>
   <v>       0.07432474       0.19989608       0.58051583 </v>
   <v>       0.04823051       0.69242334       0.58193671 </v>
   <v>       0.56357807       0.22009868       0.58151725 </v>
   <v>       0.51185233       0.71096024       0.58726523 </v>
   <v>       0.21624328       0.43690110       0.58197706 </v>
   <v>       0.18168682       0.96755165       0.58130114 </v>
   <v>       0.69120112       0.95679708       0.58117313 </v>
   <v>       0.39294990       0.29860477       0.55909858 </v>
   <v>       0.43620589       0.85174120       0.55190781 </v>
   <v>       0.90889411       0.29695880       0.56439346 </v>
   <v>       0.95241333       0.85928018       0.56391510 </v>
   <v>       0.17982544       0.41364999       0.55668843 </v>
   <v>       0.15853460       0.93312236       0.55572706 </v>
   <v>       0.69189737       0.90050035       0.55756727 </v>
   <v>       0.47769803       0.22153227       0.54039538 </v>
   <v>       0.50157881       0.74369862       0.54026577 </v>
   <v>       0.99464965       0.25098452       0.54035448 </v>
   <v>       0.02135212       0.78235356       0.54130987 </v>
   <v>       0.24188302       0.51305677       0.53945665 </v>
   <v>       0.26548078       0.98603774       0.53985731 </v>
   <v>       0.77858184       0.97496550       0.54097826 </v>
   <v>       0.45209941       0.30631944       0.67551756 </v>
   <v>       0.43966366       0.80747439       0.67558624 </v>
   <v>       0.94778837       0.29269169       0.67659291 </v>
   <v>       0.94651030       0.80587119       0.67539491 </v>
   <v>       0.29950459       0.04651556       0.67544809 </v>
   <v>       0.29450291       0.55355039       0.67618725 </v>
   <v>       0.81065017       0.05115689       0.67440454 </v>
   <v>       0.83059753       0.53830109       0.67486777 </v>
   <v>       0.08551139       0.17195227       0.64906995 </v>
   <v>       0.08575072       0.68155910       0.65303772 </v>
   <v>       0.57221226       0.16551899       0.65042178 </v>
   <v>       0.57109939       0.66775203       0.65389867 </v>
   <v>       0.18621850       0.41116369       0.64763527 </v>
   <v>       0.16934343       0.91928569       0.64788178 </v>
   <v>       0.65925851       0.44325356       0.65273499 </v>
   <v>       0.66529091       0.93026817       0.65121973 </v>
   <v>       0.06003599       0.19422068       0.67485348 </v>
   <v>       0.04450466       0.70386117       0.67735319 </v>
   <v>       0.55324634       0.20140523       0.67544900 </v>
   <v>       0.54139693       0.70112989       0.67853336 </v>
   <v>       0.20489232       0.43964739       0.67383393 </v>
   <v>       0.19578192       0.94351601       0.67407012 </v>
   <v>       0.71201733       0.44518822       0.67646037 </v>
   <v>       0.69895599       0.95613301       0.67636129 </v>
   <v>       0.41727764       0.32465550       0.65022875 </v>
   <v>       0.41924663       0.83184227       0.64936999 </v>
   <v>       0.91808335       0.31930155       0.65146184 </v>
   <v>       0.92731460       0.83882984       0.64978585 </v>
   <v>       0.32854843       0.07574467       0.65037050 </v>
   <v>       0.32526111       0.58584658       0.65126777 </v>
   <v>       0.83494003       0.07543919       0.64827835 </v>
   <v>       0.84085317       0.57738728       0.64919436 </v>
   <v>       0.99774318       0.24985470       0.63261188 </v>
   <v>       0.01749708       0.76375235       0.63409112 </v>
   <v>       0.48774727       0.23719711       0.63269674 </v>
   <v>       0.50087935       0.74495404       0.63397837 </v>
   <v>       0.24912775       0.99702557       0.63119393 </v>
   <v>       0.25996926       0.50121651       0.63147860 </v>
   <v>       0.74604392       0.99956273       0.63190214 </v>
   <v>       0.73472843       0.52206981       0.63417750 </v>
   <v>       0.44874502       0.30128397       0.76888902 </v>
   <v>       0.44874501       0.80128391       0.76888902 </v>
   <v>       0.94874497       0.30128397       0.76888902 </v>
   <v>       0.94874501       0.80128391       0.76888902 </v>
   <v>       0.30127600       0.05129450       0.76887296 </v>
   <v>       0.30127601       0.55129450       0.76887296 </v>
   <v>       0.80127594       0.05129450       0.76887296 </v>
   <v>       0.80127598       0.55129450       0.76887296 </v>
   <v>       0.07877100       0.17118050       0.74344197 </v>
   <v>       0.07877101       0.67118045       0.74344197 </v>
   <v>       0.57877100       0.17118050       0.74344197 </v>
   <v>       0.57877099       0.67118045       0.74344197 </v>
   <v>       0.17119950       0.42117448       0.74342103 </v>
   <v>       0.17119950       0.92117451       0.74342103 </v>
   <v>       0.67119951       0.42117448       0.74342103 </v>
   <v>       0.67119950       0.92117451       0.74342103 </v>
   <v>       0.05125600       0.19871499       0.76888902 </v>
   <v>       0.05125600       0.69871493       0.76888902 </v>
   <v>       0.55125603       0.19871499       0.76888902 </v>
   <v>       0.55125602       0.69871493       0.76888902 </v>
   <v>       0.19872349       0.44870397       0.76887205 </v>
   <v>       0.19872349       0.94870397       0.76887205 </v>
   <v>       0.69872352       0.44870397       0.76887205 </v>
   <v>       0.69872351       0.94870397       0.76887205 </v>
   <v>       0.42123152       0.32881747       0.74344197 </v>
   <v>       0.42123151       0.82881744       0.74344197 </v>
   <v>       0.92123147       0.32881747       0.74344197 </v>
   <v>       0.92123151       0.82881744       0.74344197 </v>
   <v>       0.32880050       0.07882500       0.74342103 </v>
   <v>       0.32880049       0.57882496       0.74342103 </v>
   <v>       0.82880048       0.07882500       0.74342103 </v>
   <v>       0.82880052       0.57882496       0.74342103 </v>
   <v>       0.00000350       0.25000148       0.72582199 </v>
   <v>       0.00000350       0.75000145       0.72582199 </v>
   <v>       0.50000351       0.25000148       0.72582199 </v>
   <v>       0.50000350       0.75000145       0.72582199 </v>
   <v>       0.25000050       0.00000000       0.72580398 </v>
   <v>       0.25000052       0.50000000       0.72580398 </v>
   <v>       0.75000050       0.00000000       0.72580398 </v>
   <v>       0.75000049       0.50000000       0.72580398 </v>
   <v>       0.71895952       0.45080474       0.54648040 </v>
   <v>       0.74047701       0.51225371       0.52514178 </v>
   <v>       0.65217517       0.54483027       0.56120984 </v>
   <v>       0.68540726       0.63774461       0.56329992 </v>
   <v>       0.83778049       0.51306912       0.57976202 </v>
   <v>       0.77418292       0.57905764       0.58770849 </v>
   <v>       0.87323155       0.55947783       0.54294746 </v>
   <v>       0.81103238       0.62010152       0.52881195 </v>
   <v>       0.86933816       0.48030503       0.52654465 </v>
   <v>       0.86440156       0.45005390       0.55292083 </v>
   <v>       0.88799952       0.35271767       0.52843559 </v>
   <v>       0.79613115       0.33869027       0.53876706 </v>
   <v>       0.61872029       0.55479815       0.52718485 </v>
   <v>       0.69275398       0.61159159       0.51921103 </v>
   <v>       0.61842620       0.65103538       0.53242607 </v>
   <v>       0.72647316       0.45822567       0.60242549 </v>
   <v>       0.74251547       0.41502268       0.57810641 </v>
   <v>       0.66870599       0.47630260       0.58138508 </v>
   <v>       0.83875105       0.67663118       0.57284272 </v>
   <v>       0.87550715       0.71007937       0.54886973 </v>
   <v>       0.92130634       0.63632831       0.56340352 </v>
   <v>       0.84098149       0.39940596       0.49448840 </v>
   <v>       0.80403509       0.30899029       0.50105237 </v>
   <v>       0.67195581       0.31837015       0.52333630 </v>
   <v>       0.75340028       0.48908693       0.48097151 </v>
   <v>       0.54264312       0.36618541       0.51978896 </v>
   <v>       0.62362929       0.53913646       0.47712918 </v>
   <v>       0.51873308       0.48225738       0.49723095 </v>
   <v>       0.00346060       0.24416221       0.55794332 </v>
   <v>       0.01662914       0.76872721       0.55872693 </v>
   <v>       0.48759147       0.23842754       0.55690790 </v>
   <v>       0.49170897       0.75585761       0.55777855 </v>
   <v>       0.24698795       0.50370751       0.55678635 </v>
   <v>       0.25548386       0.99458832       0.55703195 </v>
   <v>       0.76078284       0.98977653       0.55725990 </v>
   <v>       0.00100228       0.24640186       0.64971412 </v>
   <v>       0.00678082       0.76088623       0.65082237 </v>
   <v>       0.49381176       0.24535673       0.64954929 </v>
   <v>       0.49479811       0.75112583       0.65103060 </v>
   <v>       0.25566885       0.49777806       0.64875506 </v>
   <v>       0.24994891       0.99872403       0.64841955 </v>
   <v>       0.75071696       0.51037237       0.65119244 </v>
   <v>       0.75122574       0.00325712       0.64902990 </v>
   <v>       0.49998898       0.24999498       0.74327702 </v>
   <v>       0.49998903       0.74999496       0.74327702 </v>
   <v>       0.99998898       0.24999498       0.74327702 </v>
   <v>       0.99998903       0.74999496       0.74327702 </v>
   <v>       0.25000050       0.00000100       0.74325596 </v>
   <v>       0.25000052       0.50000100       0.74325596 </v>
   <v>       0.75000050       0.00000100       0.74325596 </v>
   <v>       0.75000049       0.50000100       0.74325596 </v>
   <v>       0.72085852       0.39857619       0.50232398 </v>
   <v>       0.65964656       0.36491013       0.51307931 </v>
   <v>       0.70622687       0.46120731       0.48896865 </v>
   <v>       0.58837443       0.39317253       0.51136555 </v>
   <v>       0.63343940       0.48853920       0.48746237 </v>
   <v>       0.57605610       0.45656602       0.49818619 </v>
   <v>       0.76117142       0.48633390       0.53947668 </v>
   <v>       0.68609666       0.58790517       0.55367739 </v>
   <v>       0.77871071       0.52881213       0.57814261 </v>
   <v>       0.82970409       0.60129012       0.54527221 </v>
   <v>       0.83351698       0.45044925       0.53754862 </v>
   <v>       0.83057259       0.37558799       0.52875078 </v>
   <v>       0.65316410       0.60132861       0.53172207 </v>
   <v>       0.72707498       0.46780306       0.58514237 </v>
   <v>       0.86868597       0.66037218       0.55860160 </v>
   <v>       0.80192027       0.36874805       0.50570341 </v>
   <v>       0.06293615       0.20870339       0.56461616 </v>
   <v>       0.04918875       0.70972689       0.56565171 </v>
   <v>       0.54744885       0.20843857       0.56581611 </v>
   <v>       0.51979112       0.70666446       0.57121880 </v>
   <v>       0.44018862       0.28166996       0.56654087 </v>
   <v>       0.45591166       0.81465351       0.56300183 </v>
   <v>       0.95460808       0.27190223       0.57011305 </v>
   <v>       0.97911625       0.81489891       0.57012209 </v>
   <v>       0.21377287       0.44894119       0.56626927 </v>
   <v>       0.19500677       0.96354708       0.56579194 </v>
   <v>       0.71136948       0.94882729       0.56639850 </v>
   <v>       0.30258820       0.03347637       0.56791321 </v>
   <v>       0.29067619       0.55163853       0.56714151 </v>
   <v>       0.79152452       0.04883303       0.56685166 </v>
   <v>       0.05285536       0.20072017       0.65864541 </v>
   <v>       0.04974773       0.71076985       0.66160975 </v>
   <v>       0.54429221       0.20052274       0.65934965 </v>
   <v>       0.53678111       0.70558639       0.66228945 </v>
   <v>       0.21471678       0.44659401       0.65712191 </v>
   <v>       0.20137372       0.95077822       0.65735627 </v>
   <v>       0.70466929       0.46396298       0.66102674 </v>
   <v>       0.70167128       0.96013452       0.65950960 </v>
   <v>       0.45296132       0.29367584       0.65885041 </v>
   <v>       0.44953060       0.79830977       0.65893783 </v>
   <v>       0.95511610       0.28663239       0.66017947 </v>
   <v>       0.95675931       0.80396081       0.65967149 </v>
   <v>       0.29431145       0.04173227       0.65849078 </v>
   <v>       0.29354123       0.55029842       0.65927163 </v>
   <v>       0.80093110       0.04437369       0.65761218 </v>
   <v>       0.80876694       0.54193009       0.65899509 </v>
   <v>       0.04586250       0.20411950       0.75272599 </v>
   <v>       0.04586250       0.70411946       0.75272599 </v>
   <v>       0.54586251       0.20411950       0.75272599 </v>
   <v>       0.54586250       0.70411946       0.75272599 </v>
   <v>       0.20411900       0.45410100       0.75270499 </v>
   <v>       0.20411899       0.95410095       0.75270499 </v>
   <v>       0.70411898       0.45410100       0.75270499 </v>
   <v>       0.70411896       0.95410095       0.75270499 </v>
   <v>       0.45414002       0.29588849       0.75272697 </v>
   <v>       0.45414001       0.79588852       0.75272697 </v>
   <v>       0.95414002       0.29588849       0.75272697 </v>
   <v>       0.95414006       0.79588852       0.75272697 </v>
   <v>       0.29588249       0.04590050       0.75270499 </v>
   <v>       0.29588248       0.54590053       0.75270499 </v>
   <v>       0.79588244       0.04590050       0.75270499 </v>
   <v>       0.79588248       0.54590053       0.75270499 </v>
   <v>       0.76280096       0.55598864       0.55481678 </v>
   <v>       0.49395899       0.01426665       0.55168652 </v>
   <v>       0.48391290       0.51721870       0.55579952 </v>
   <v>       0.99247065       0.00229252       0.55278207 </v>
   <v>       0.02440734       0.51112189       0.55636714 </v>
   <v>       0.25076216       0.24571753       0.55113691 </v>
   <v>       0.24841203       0.75410573       0.55188382 </v>
   <v>       0.73176012       0.22441143       0.55853579 </v>
   <v>       0.72581122       0.77525079       0.54625782 </v>
   <v>       0.00609100       0.00081392       0.65499392 </v>
   <v>       0.01738349       0.50294764       0.65620864 </v>
   <v>       0.50191276       0.00097786       0.65466482 </v>
   <v>       0.50282428       0.49588046       0.65559872 </v>
   <v>       0.24907608       0.24522020       0.65417644 </v>
   <v>       0.25079350       0.75507478       0.65478673 </v>
   <v>       0.74033540       0.25595175       0.65637671 </v>
   <v>       0.75194165       0.75629763       0.65373537 </v>
   <v>       0.14214929       0.10565283       0.60697956 </v>
   <v>       0.14708102       0.60798355       0.60910779 </v>
   <v>       0.64279267       0.10276695       0.60936755 </v>
   <v>       0.62166607       0.63050367       0.61413052 </v>
   <v>       0.35644059       0.39443656       0.60774595 </v>
   <v>       0.36018723       0.89299532       0.60867912 </v>
   <v>       0.87657433       0.37490976       0.61285518 </v>
   <v>       0.85524937       0.89651270       0.60931297 </v>
   <v>       0.11401813       0.35458098       0.60810765 </v>
   <v>       0.11547685       0.86493197       0.61050657 </v>
   <v>       0.59039954       0.34406280       0.60803446 </v>
   <v>       0.60571586       0.86082885       0.61071016 </v>
   <v>       0.39364443       0.14050749       0.60867179 </v>
   <v>       0.38773732       0.64083106       0.61152563 </v>
   <v>       0.88934114       0.13706833       0.60973060 </v>
   <v>       0.91317830       0.64837670       0.61454449 </v>
   <v>       0.00000000       0.00000000       0.75492797 </v>
   <v>       0.00000000       0.50000000       0.75492797 </v>
   <v>       0.50000000       0.00000000       0.75492797 </v>
   <v>       0.49999999       0.50000000       0.75492797 </v>
   <v>       0.25000050       0.25000000       0.75493902 </v>
   <v>       0.25000051       0.74999997       0.75493902 </v>
   <v>       0.75000047       0.25000000       0.75493902 </v>
   <v>       0.75000046       0.74999997       0.75493902 </v>
   <v>       0.13579050       0.11421000       0.70478299 </v>
   <v>       0.13579050       0.61420998       0.70478299 </v>
   <v>       0.63579045       0.11421000       0.70478299 </v>
   <v>       0.63579049       0.61420998       0.70478299 </v>
   <v>       0.36420952       0.38578999       0.70478299 </v>
   <v>       0.36420950       0.88578996       0.70478299 </v>
   <v>       0.86420954       0.38578999       0.70478299 </v>
   <v>       0.86420953       0.88578996       0.70478299 </v>
   <v>       0.11421799       0.36421899       0.70478098 </v>
   <v>       0.11421799       0.86421899       0.70478098 </v>
   <v>       0.61421800       0.36421899       0.70478098 </v>
   <v>       0.61421799       0.86421899       0.70478098 </v>
   <v>       0.38578201       0.13578149       0.70478202 </v>
   <v>       0.38578200       0.63578149       0.70478202 </v>
   <v>       0.88578199       0.13578149       0.70478202 </v>
   <v>       0.88578203       0.63578149       0.70478202 </v>
   <v>       0.13466700       0.11533200       0.80125603 </v>
   <v>       0.13466699       0.61533199       0.80125603 </v>
   <v>       0.63466699       0.11533200       0.80125603 </v>
   <v>       0.63466698       0.61533199       0.80125603 </v>
   <v>       0.36533300       0.38466799       0.80125603 </v>
   <v>       0.36533299       0.88466796       0.80125603 </v>
   <v>       0.86533295       0.38466799       0.80125603 </v>
   <v>       0.86533294       0.88466796       0.80125603 </v>
   <v>       0.11532850       0.36533700       0.80126500 </v>
   <v>       0.11532850       0.86533698       0.80126500 </v>
   <v>       0.61532850       0.36533700       0.80126500 </v>
   <v>       0.61532849       0.86533698       0.80126500 </v>
   <v>       0.38467151       0.13466300       0.80126500 </v>
   <v>       0.38467150       0.63466297       0.80126500 </v>
   <v>       0.88467149       0.13466300       0.80126500 </v>
   <v>       0.88467153       0.63466297       0.80126500 </v>
   <v>       0.99876247       0.00386260       0.60349363 </v>
   <v>       0.00604430       0.50236164       0.60675539 </v>
   <v>       0.49589209       0.00695268       0.60255979 </v>
   <v>       0.49676366       0.49710779       0.60508727 </v>
   <v>       0.24912688       0.25015800       0.60295055 </v>
   <v>       0.25125147       0.75016993       0.60341525 </v>
   <v>       0.74252411       0.25209303       0.60756250 </v>
   <v>       0.74402019       0.76258600       0.60508257 </v>
   <v>       0.00000050       0.00000050       0.70482896 </v>
   <v>       0.00000050       0.50000048       0.70482896 </v>
   <v>       0.50000048       0.00000050       0.70482896 </v>
   <v>       0.50000046       0.50000048       0.70482896 </v>
   <v>       0.24999999       0.24999947       0.70482499 </v>
   <v>       0.25000001       0.74999950       0.70482499 </v>
   <v>       0.74999999       0.24999947       0.70482499 </v>
   <v>       0.74999998       0.74999950       0.70482499 </v>
   <v>       0.00000000       0.00000000       0.80731797 </v>
   <v>       0.00000000       0.50000000       0.80731797 </v>
   <v>       0.50000000       0.00000000       0.80731797 </v>
   <v>       0.49999999       0.50000000       0.80731797 </v>
   <v>       0.24999999       0.25000000       0.80731797 </v>
   <v>       0.25000001       0.74999997       0.80731797 </v>
   <v>       0.74999999       0.25000000       0.80731797 </v>
   <v>       0.74999998       0.74999997       0.80731797 </v>
  </varray>
 </structure>
</modeling>
