 vasp.6.2.1 16May21 (build Nov 15 2021 14:57:28) complex                         
 executed on             LinuxPGI date 2023.07.30  20:45:24
 running on    4 total cores
 distrk:  each k-point on    4 cores,    1 groups
 distr:  one band on NCORE=   1 cores,    4 groups


--------------------------------------------------------------------------------------------------------


 INCAR:
   SYSTEM = PSC
   ISTART = 1
   ICHARG = 1
   PREC = Normal
   ENCUT = 500
   GGA_COMPAT = F
   NELM = 600
   ISYM = 0
   LREAL = Auto
   ISMEAR = 0
   SIGMA = 0.05
   AMIN = 0.01
   BMIX = 0.01
   LVTOT = T
   LWAVE = F
   LDIPOL = T
   IDIPOL = 3
   LVDW = T
   IVDW = 12

 POTCAR:    PAW_PBE H 15Jun2001                   
 POTCAR:    PAW_PBE C 08Apr2002                   
 POTCAR:    PAW_PBE N 08Apr2002                   
 POTCAR:    PAW_PBE I 08Apr2002                   
 POTCAR:    PAW_PBE Pb 08Apr2002                  
 WARNING: For LVTOT=.TRUE., VASP.5.x writes the TOTAL local potential to the
     file LOCPOT. If you want only the Hartree contributions, use LVHAR=.TRUE.
     instead. 

 POTCAR:    PAW_PBE H 15Jun2001                   
   SHA256 =  030f79b5d3ab3cf0e668861823c8fb652ff669f3e15e46930bd03bfd63a607b6 H/POTCAR              
   COPYR  = (c) Copyright 15Jun2001 Georg Kresse                                                    
   COPYR  = This file is part of the software VASP. Any use, copying, and all other rights are regul
   COPYR  = If you do not have a valid VASP license, you may not use, copy or distribute this file. 
   VRHFIN =H: ultrasoft test                                                                        
   LEXCH  = PE                                                                                      
   EATOM  =    12.4884 eV,    0.9179 Ry                                                             
                                                                                                    
   TITEL  = PAW_PBE H 15Jun2001                                                                     
   LULTRA =        F    use ultrasoft PP ?                                                          
   IUNSCR =        0    unscreen: 0-lin 1-nonlin 2-no                                               
   RPACOR =    0.000    partial core radius                                                         
   POMASS =    1.000; ZVAL   =    1.000    mass and valenz                                          
   RCORE  =    1.100    outmost cutoff radius                                                       
   RWIGS  =    0.700; RWIGS  =    0.370    wigner-seitz radius (au A)                               
   ENMAX  =  250.000; ENMIN  =  200.000 eV                                                          
   RCLOC  =    0.701    cutoff for local pot                                                        
   LCOR   =        T    correct aug charges                                                         
   LPAW   =        T    paw PP                                                                      
   EAUG   =  400.000                                                                                
   RMAX   =    1.123    core radius for proj-oper                                                   
   RAUG   =    1.200    factor for augmentation sphere                                              
   RDEP   =    1.112    radius for radial grids                                                     
   RDEPT  =    0.926    core radius for aug-charge                                                  
                                                                                                    
   Atomic configuration                                                                             
    2 entries                                                                                       
     n  l   j            E        occ.                                                              
     1  0  0.50        -6.4927   1.0000                                                             
     2  1  0.50        -3.4015   0.0000                                                             
   Description                                                                                      
     l       E           TYP  RCUT    TYP  RCUT                                                     
     0     -6.4927494     23  1.100                                                                 
     0      6.8029130     23  1.100                                                                 
     1     -4.0817478     23  1.100                                                                 
  local pseudopotential read in
  atomic valenz-charges read in
  non local Contribution for L=            0  read in
    real space projection operators read in
  non local Contribution for L=            0  read in
    real space projection operators read in
  non local Contribution for L=            1  read in
    real space projection operators read in
    PAW grid and wavefunctions read in
 
   number of l-projection  operators is LMAX  =            3
   number of lm-projection operators is LMMAX =            5
 
 POTCAR:    PAW_PBE C 08Apr2002                   
   SHA256 =  253f7b50bb8d59471dbedb8285d89021f4a42ed1a2c5d38a03a736e69125dd95 C/POTCAR              
   COPYR  = (c) Copyright 08Apr2002 Georg Kresse                                                    
   COPYR  = This file is part of the software VASP. Any use, copying, and all other rights are regul
   COPYR  = If you do not have a valid VASP license, you may not use, copy or distribute this file. 
   VRHFIN =C: s2p2                                                                                  
   LEXCH  = PE                                                                                      
   EATOM  =   147.1560 eV,   10.8157 Ry                                                             
                                                                                                    
   TITEL  = PAW_PBE C 08Apr2002                                                                     
   LULTRA =        F    use ultrasoft PP ?                                                          
   IUNSCR =        1    unscreen: 0-lin 1-nonlin 2-no                                               
   RPACOR =    1.200    partial core radius                                                         
   POMASS =   12.011; ZVAL   =    4.000    mass and valenz                                          
   RCORE  =    1.500    outmost cutoff radius                                                       
   RWIGS  =    1.630; RWIGS  =    0.863    wigner-seitz radius (au A)                               
   ENMAX  =  400.000; ENMIN  =  300.000 eV                                                          
   ICORE  =        2    local potential                                                             
   LCOR   =        T    correct aug charges                                                         
   LPAW   =        T    paw PP                                                                      
   EAUG   =  644.873                                                                                
   DEXC   =    0.000                                                                                
   RMAX   =    1.529    core radius for proj-oper                                                   
   RAUG   =    1.300    factor for augmentation sphere                                              
   RDEP   =    1.501    radius for radial grids                                                     
   RDEPT  =    1.300    core radius for aug-charge                                                  
                                                                                                    
   Atomic configuration                                                                             
    4 entries                                                                                       
     n  l   j            E        occ.                                                              
     1  0  0.50      -273.3789   2.0000                                                             
     2  0  0.50       -13.7508   2.0000                                                             
     2  1  0.50        -5.2854   2.0000                                                             
     3  2  1.50        -5.4423   0.0000                                                             
   Description                                                                                      
     l       E           TYP  RCUT    TYP  RCUT                                                     
     0    -13.7508458     23  1.200                                                                 
     0     -8.2022199     23  1.200                                                                 
     1     -5.2854383     23  1.500                                                                 
     1     34.0145650     23  1.500                                                                 
     2     -5.4423304      7  1.500                                                                 
  local pseudopotential read in
  partial core-charges read in
  partial kinetic energy density read in
  atomic valenz-charges read in
  non local Contribution for L=            0  read in
    real space projection operators read in
  non local Contribution for L=            0  read in
    real space projection operators read in
  non local Contribution for L=            1  read in
    real space projection operators read in
  non local Contribution for L=            1  read in
    real space projection operators read in
    PAW grid and wavefunctions read in
 
   number of l-projection  operators is LMAX  =            4
   number of lm-projection operators is LMMAX =            8
 
 POTCAR:    PAW_PBE N 08Apr2002                   
   SHA256 =  e053789ff3a61a86a1b75d8a110fcc91f86041011e7b0817c7c99e4e8a6349d7 N/POTCAR              
   COPYR  = (c) Copyright 08Apr2002 Georg Kresse                                                    
   COPYR  = This file is part of the software VASP. Any use, copying, and all other rights are regul
   COPYR  = If you do not have a valid VASP license, you may not use, copy or distribute this file. 
   VRHFIN =N: s2p3                                                                                  
   LEXCH  = PE                                                                                      
   EATOM  =   264.5486 eV,   19.4438 Ry                                                             
                                                                                                    
   TITEL  = PAW_PBE N 08Apr2002                                                                     
   LULTRA =        F    use ultrasoft PP ?                                                          
   IUNSCR =        1    unscreen: 0-lin 1-nonlin 2-no                                               
   RPACOR =    1.200    partial core radius                                                         
   POMASS =   14.001; ZVAL   =    5.000    mass and valenz                                          
   RCORE  =    1.500    outmost cutoff radius                                                       
   RWIGS  =    1.400; RWIGS  =    0.741    wigner-seitz radius (au A)                               
   ENMAX  =  400.000; ENMIN  =  300.000 eV                                                          
   ICORE  =        2    local potential                                                             
   LCOR   =        T    correct aug charges                                                         
   LPAW   =        T    paw PP                                                                      
   EAUG   =  627.112                                                                                
   DEXC   =    0.000                                                                                
   RMAX   =    1.529    core radius for proj-oper                                                   
   RAUG   =    1.300    factor for augmentation sphere                                              
   RDEP   =    1.514    radius for radial grids                                                     
   RDEPT  =    1.338    core radius for aug-charge                                                  
                                                                                                    
   Atomic configuration                                                                             
    4 entries                                                                                       
     n  l   j            E        occ.                                                              
     1  0  0.50      -384.7179   2.0000                                                             
     2  0  0.50       -18.5828   2.0000                                                             
     2  1  0.50        -7.0898   3.0000                                                             
     3  2  1.50        -6.8029   0.0000                                                             
   Description                                                                                      
     l       E           TYP  RCUT    TYP  RCUT                                                     
     0    -18.5828119     23  1.200                                                                 
     0    -13.5018863     23  1.200                                                                 
     1     -7.0897853     23  1.500                                                                 
     1      9.5240782     23  1.500                                                                 
     2     -6.8029130      7  1.500                                                                 
  local pseudopotential read in
  partial core-charges read in
  partial kinetic energy density read in
  atomic valenz-charges read in
  non local Contribution for L=            0  read in
    real space projection operators read in
  non local Contribution for L=            0  read in
    real space projection operators read in
  non local Contribution for L=            1  read in
    real space projection operators read in
  non local Contribution for L=            1  read in
    real space projection operators read in
    PAW grid and wavefunctions read in
 
   number of l-projection  operators is LMAX  =            4
   number of lm-projection operators is LMMAX =            8
 
 POTCAR:    PAW_PBE I 08Apr2002                   
   SHA256 =  e40f3f59b681c1fc3e3091736183c4589116986673d2b852a5012aec72758799 I/POTCAR              
   COPYR  = (c) Copyright 08Apr2002 Georg Kresse                                                    
   COPYR  = This file is part of the software VASP. Any use, copying, and all other rights are regul
   COPYR  = If you do not have a valid VASP license, you may not use, copy or distribute this file. 
   VRHFIN =I : s2p5                                                                                 
   LEXCH  = PE                                                                                      
   EATOM  =   315.8678 eV,   23.2156 Ry                                                             
                                                                                                    
   TITEL  = PAW_PBE I 08Apr2002                                                                     
   LULTRA =        F    use ultrasoft PP ?                                                          
   IUNSCR =        1    unscreen: 0-lin 1-nonlin 2-no                                               
   RPACOR =    2.200    partial core radius                                                         
   POMASS =  126.904; ZVAL   =    7.000    mass and valenz                                          
   RCORE  =    2.300    outmost cutoff radius                                                       
   RWIGS  =    2.810; RWIGS  =    1.487    wigner-seitz radius (au A)                               
   ENMAX  =  175.647; ENMIN  =  131.735 eV                                                          
   ICORE  =        3    local potential                                                             
   LCOR   =        T    correct aug charges                                                         
   LPAW   =        T    paw PP                                                                      
   EAUG   =  370.139                                                                                
   DEXC   =    0.000                                                                                
   RMAX   =    2.359    core radius for proj-oper                                                   
   RAUG   =    1.300    factor for augmentation sphere                                              
   RDEP   =    2.392    radius for radial grids                                                     
   RDEPT  =    2.170    core radius for aug-charge                                                  
                                                                                                    
   Atomic configuration                                                                             
   13 entries                                                                                       
     n  l   j            E        occ.                                                              
     1  0  0.50    -32976.3739   2.0000                                                             
     2  0  0.50     -5094.5933   2.0000                                                             
     2  1  1.50     -4572.0131   6.0000                                                             
     3  0  0.50     -1028.2813   2.0000                                                             
     3  1  1.50      -859.0250   6.0000                                                             
     3  2  2.50      -605.7620  10.0000                                                             
     4  0  0.50      -180.5540   2.0000                                                             
     4  1  1.50      -127.5306   6.0000                                                             
     4  2  2.50       -50.2720  10.0000                                                             
     5  0  0.50       -17.4058   2.0000                                                             
     5  1  0.50        -7.0851   5.0000                                                             
     5  2  1.50        -7.0750   0.0000                                                             
     4  3  2.50        -7.0750   0.0000                                                             
   Description                                                                                      
     l       E           TYP  RCUT    TYP  RCUT                                                     
     0    -17.4058016     23  2.300                                                                 
     0    -18.7663842     23  2.300                                                                 
     1     -7.0850686     23  2.300                                                                 
     1     -4.2150896     23  2.300                                                                 
     2     -7.0750295     23  2.300                                                                 
     3     -1.3605826     23  2.300                                                                 
  local pseudopotential read in
  partial core-charges read in
  partial kinetic energy density read in
  atomic valenz-charges read in
  non local Contribution for L=            0  read in
    real space projection operators read in
  non local Contribution for L=            0  read in
    real space projection operators read in
  non local Contribution for L=            1  read in
    real space projection operators read in
  non local Contribution for L=            1  read in
    real space projection operators read in
  non local Contribution for L=            2  read in
    real space projection operators read in
    PAW grid and wavefunctions read in
 
   number of l-projection  operators is LMAX  =            5
   number of lm-projection operators is LMMAX =           13
 
 POTCAR:    PAW_PBE Pb 08Apr2002                  
   SHA256 =  797118a27cf1bcd06b9881c67a26cdde129e3cd1a551dd4a281f9681ce847303 Pb/POTCAR             
   COPYR  = (c) Copyright 08Apr2002 Georg Kresse                                                    
   COPYR  = This file is part of the software VASP. Any use, copying, and all other rights are regul
   COPYR  = If you do not have a valid VASP license, you may not use, copy or distribute this file. 
   VRHFIN =Pb:                                                                                      
   LEXCH  = PE                                                                                      
   EATOM  =    96.9868 eV,    7.1283 Ry                                                             
                                                                                                    
   TITEL  = PAW_PBE Pb 08Apr2002                                                                    
   LULTRA =        F    use ultrasoft PP ?                                                          
   IUNSCR =        1    unscreen: 0-lin 1-nonlin 2-no                                               
   RPACOR =    2.200    partial core radius                                                         
   POMASS =  207.200; ZVAL   =    4.000    mass and valenz                                          
   RCORE  =    3.100    outmost cutoff radius                                                       
   RWIGS  =    3.260; RWIGS  =    1.725    wigner-seitz radius (au A)                               
   ENMAX  =   97.973; ENMIN  =   73.480 eV                                                          
   ICORE  =        3    local potential                                                             
   LCOR   =        T    correct aug charges                                                         
   LPAW   =        T    paw PP                                                                      
   EAUG   =  234.873                                                                                
   DEXC   =    0.000                                                                                
   RMAX   =    3.158    core radius for proj-oper                                                   
   RAUG   =    1.300    factor for augmentation sphere                                              
   RDEP   =    3.202    radius for radial grids                                                     
   RDEPT  =    2.659    core radius for aug-charge                                                  
                                                                                                    
   Atomic configuration                                                                             
   17 entries                                                                                       
     n  l   j            E        occ.                                                              
     1  0  0.50    -88091.8466   2.0000                                                             
     2  0  0.50    -15753.4197   2.0000                                                             
     2  1  1.50    -13508.1797   6.0000                                                             
     3  0  0.50     -3781.7194   2.0000                                                             
     3  1  1.50     -3138.2529   6.0000                                                             
     3  2  2.50     -2483.2977  10.0000                                                             
     4  0  0.50      -856.2895   2.0000                                                             
     4  1  1.50      -645.4943   6.0000                                                             
     4  2  2.50      -401.8768  10.0000                                                             
     4  3  3.50      -132.9059  14.0000                                                             
     5  0  0.50      -144.0950   2.0000                                                             
     5  1  1.50       -85.7879   6.0000                                                             
     5  2  2.50       -21.1769  10.0000                                                             
     6  0  0.50       -12.0372   2.0000                                                             
     6  1  1.50        -3.4971   2.0000                                                             
     6  2  2.50        -1.3606   0.0000                                                             
     5  3  2.50        -2.7212   0.0000                                                             
   Description                                                                                      
     l       E           TYP  RCUT    TYP  RCUT                                                     
     0    -12.0371566     23  3.100                                                                 
     0    -13.3977392     23  3.100                                                                 
     1     -3.4971341     23  3.100                                                                 
     1     -5.4423304     23  3.100                                                                 
     2     -1.3605826     23  3.100                                                                 
     3     -1.3605826     23  3.100                                                                 
  local pseudopotential read in
  partial core-charges read in
  partial kinetic energy density read in
  atomic valenz-charges read in
  non local Contribution for L=            0  read in
    real space projection operators read in
  non local Contribution for L=            0  read in
    real space projection operators read in
  non local Contribution for L=            1  read in
    real space projection operators read in
  non local Contribution for L=            1  read in
    real space projection operators read in
  non local Contribution for L=            2  read in
    real space projection operators read in
    PAW grid and wavefunctions read in
 
   number of l-projection  operators is LMAX  =            5
   number of lm-projection operators is LMMAX =           13
 
 Optimization of the real space projectors (new method)

 maximal supplied QI-value         = 34.20
 optimisation between [QCUT,QGAM] = [ 11.29, 22.57] = [ 35.68,142.71] Ry 
 Optimized for a Real-space Cutoff    1.16 Angstroem

   l    n(q)    QCUT    max X(q) W(low)/X(q) W(high)/X(q)  e(spline) 
   0      8    11.287    19.460    0.40E-03    0.73E-03    0.16E-06
   0      8    11.287    12.209    0.38E-03    0.70E-03    0.15E-06
   1      7    11.287     4.655    0.22E-03    0.25E-04    0.22E-06
 Optimization of the real space projectors (new method)

 maximal supplied QI-value         = 25.13
 optimisation between [QCUT,QGAM] = [ 11.31, 22.87] = [ 35.82,146.48] Ry 
 Optimized for a Real-space Cutoff    1.00 Angstroem

   l    n(q)    QCUT    max X(q) W(low)/X(q) W(high)/X(q)  e(spline) 
   0      7    11.310   115.676    0.43E-03    0.13E-02    0.19E-06
   0      7    11.310    87.132    0.43E-03    0.13E-02    0.18E-06
   1      6    11.310     4.429    0.42E-03    0.74E-03    0.11E-06
   1      6    11.310     2.733    0.34E-03    0.55E-03    0.92E-07
 Optimization of the real space projectors (new method)

 maximal supplied QI-value         = 25.13
 optimisation between [QCUT,QGAM] = [ 11.31, 22.87] = [ 35.82,146.48] Ry 
 Optimized for a Real-space Cutoff    1.27 Angstroem

   l    n(q)    QCUT    max X(q) W(low)/X(q) W(high)/X(q)  e(spline) 
   0      9    11.310    79.467    0.75E-04    0.16E-03    0.36E-06
   0      9    11.310    66.151    0.74E-04    0.16E-03    0.36E-06
   1      8    11.310    17.416    0.35E-03    0.12E-03    0.95E-06
   1      8    11.310    12.382    0.37E-03    0.13E-03    0.98E-06
 Optimization of the real space projectors (new method)

 maximal supplied QI-value         = 16.25
 optimisation between [QCUT,QGAM] = [ 11.38, 22.75] = [ 36.24,144.96] Ry 
 Optimized for a Real-space Cutoff    1.31 Angstroem

   l    n(q)    QCUT    max X(q) W(low)/X(q) W(high)/X(q)  e(spline) 
   0      9    11.376   194.483    0.24E-03    0.23E-03    0.67E-07
   0      9    11.376   190.334    0.23E-03    0.22E-03    0.65E-07
   1      8    11.376   116.687    0.25E-03    0.63E-04    0.16E-06
   1      8    11.376    88.696    0.25E-03    0.61E-04    0.16E-06
   2      8    11.376     4.877    0.17E-03    0.14E-03    0.29E-07
 Optimization of the real space projectors (new method)

 maximal supplied QI-value         = 12.09
 optimisation between [QCUT,QGAM] = [ 11.37, 22.86] = [ 36.19,146.31] Ry 
 Optimized for a Real-space Cutoff    1.66 Angstroem

   l    n(q)    QCUT    max X(q) W(low)/X(q) W(high)/X(q)  e(spline) 
   0     11    11.369   135.111    0.12E-03    0.69E-04    0.19E-05
   0     11    11.369   146.850    0.11E-03    0.65E-04    0.18E-05
   1     11    11.369   148.016    0.17E-03    0.32E-03    0.89E-06
   1     11    11.369   122.989    0.17E-03    0.32E-03    0.91E-06
   2     10    11.369     8.916    0.12E-03    0.45E-04    0.33E-06
  PAW_PBE H 15Jun2001                   :
 energy of atom  1       EATOM=  -12.4884
 kinetic energy error for atom=    0.0020 (will be added to EATOM!!)
  PAW_PBE C 08Apr2002                   :
 energy of atom  2       EATOM= -147.1560
 kinetic energy error for atom=    0.0076 (will be added to EATOM!!)
  PAW_PBE N 08Apr2002                   :
 energy of atom  3       EATOM= -264.5486
 kinetic energy error for atom=    0.0138 (will be added to EATOM!!)
  PAW_PBE I 08Apr2002                   :
 energy of atom  4       EATOM= -315.8678
 kinetic energy error for atom=    0.0009 (will be added to EATOM!!)
  PAW_PBE Pb 08Apr2002                  :
 energy of atom  5       EATOM=  -96.9868
 kinetic energy error for atom=    0.0000 (will be added to EATOM!!)
 
 
 POSCAR:  H  C  N  I Pb
  positions in cartesian coordinates
  No initial velocities read in
 exchange correlation table for  LEXCH =        8
   RHO(1)=    0.500       N(1)  =     2000
   RHO(2)=  100.500       N(2)  =     4000
 


--------------------------------------------------------------------------------------------------------


 ion  position               nearest neighbor table
   1  0.474  0.334  0.570- 187 1.02
   2  0.450  0.836  0.574- 188 1.03
   3  0.923  0.246  0.581- 189 1.03
   4  0.942  0.816  0.575- 190 1.02
   5  0.318  0.074  0.570- 194 1.02
   6  0.341  0.564  0.567- 195 1.02
   7  0.798  0.090  0.572- 196 1.02
   8  0.105  0.247  0.557- 183 1.03
   9  0.084  0.674  0.574- 184 1.02
  10  0.549  0.151  0.560- 185 1.02
  11  0.497  0.645  0.561- 186 1.03
  12  0.368  0.010  0.556- 194 1.02
  13  0.286  0.633  0.556- 195 1.03
  14  0.870  0.034  0.563- 196 1.02
  15  0.058  0.248  0.581- 183 1.02
  16  0.001  0.695  0.587- 184 1.03
  17  0.574  0.239  0.570- 185 1.03
  18  0.452  0.700  0.580- 186 1.02
  19  0.281  0.441  0.574- 191 1.02
  20  0.182  0.059  0.572- 192 1.02
  21  0.672  0.030  0.573- 193 1.02
  22  0.388  0.305  0.560- 187 1.02
  23  0.503  0.869  0.553- 188 1.02
  24  0.878  0.237  0.556- 189 1.02
  25  0.988  0.867  0.556- 190 1.03
  26  0.192  0.432  0.564- 191 1.00
  27  0.143  0.988  0.557- 192 1.02
  28  0.669  0.939  0.563- 193 1.01
  29  0.430  0.189  0.551- 146 1.09
  30  0.541  0.750  0.542- 147 1.09
  31  0.993  0.239  0.537- 144 1.09
  32  0.083  0.778  0.553- 145 1.10
  33  0.185  0.553  0.552- 148 1.09
  34  0.260  0.943  0.546- 149 1.09
  35  0.792  0.935  0.556- 150 1.09
  36  0.462  0.308  0.674- 205 1.03
  37  0.441  0.808  0.672- 206 1.03
  38  0.947  0.277  0.676- 207 1.02
  39  0.923  0.737  0.673- 208 1.03
  40  0.308  0.049  0.672- 209 1.03
  41  0.295  0.552  0.676- 210 1.02
  42  0.795  0.053  0.675- 211 1.02
  43  0.844  0.473  0.664- 212 1.02
  44  0.092  0.174  0.648- 197 1.02
  45  0.109  0.713  0.652- 198 1.01
  46  0.580  0.168  0.649- 199 1.02
  47  0.574  0.670  0.652- 200 1.02
  48  0.186  0.409  0.648- 201 1.02
  49  0.168  0.928  0.647- 202 1.01
  50  0.644  0.476  0.659- 203 1.03
  51  0.679  0.914  0.648- 204 1.01
  52  0.057  0.184  0.674- 197 1.03
  53  0.049  0.676  0.671- 198 1.02
  54  0.562  0.208  0.674- 199 1.03
  55  0.538  0.701  0.677- 200 1.03
  56  0.204  0.439  0.674- 201 1.03
  57  0.199  0.954  0.673- 202 1.03
  58  0.716  0.422  0.669- 203 1.02
  59  0.700  0.945  0.674- 204 1.03
  60  0.421  0.325  0.649- 205 1.02
  61  0.423  0.832  0.646- 206 1.02
  62  0.925  0.320  0.651- 207 1.01
  63  0.909  0.812  0.655- 208 1.02
  64  0.337  0.072  0.646- 209 1.02
  65  0.323  0.585  0.651- 210 1.03
  66  0.825  0.082  0.650- 211 1.02
  67  0.852  0.554  0.650- 212 1.02
  68  0.014  0.258  0.632- 151 1.08
  69  0.026  0.803  0.641- 152 1.09
  70  0.493  0.240  0.631- 153 1.09
  71  0.505  0.748  0.632- 154 1.08
  72  0.252  0.999  0.629- 156 1.08
  73  0.258  0.497  0.632- 155 1.08
  74  0.756  0.996  0.631- 158 1.08
  75  0.725  0.564  0.644- 157 1.08
  76  0.449  0.301  0.769- 221 1.02
  77  0.449  0.801  0.769- 222 1.02
  78  0.949  0.301  0.769- 223 1.02
  79  0.949  0.801  0.769- 224 1.02
  80  0.301  0.051  0.769- 225 1.02
  81  0.301  0.551  0.769- 226 1.02
  82  0.801  0.051  0.769- 227 1.02
  83  0.801  0.551  0.769- 228 1.02
  84  0.079  0.171  0.743- 213 1.02
  85  0.079  0.671  0.743- 214 1.02
  86  0.579  0.171  0.743- 215 1.02
  87  0.579  0.671  0.743- 216 1.02
  88  0.171  0.421  0.743- 217 1.02
  89  0.171  0.921  0.743- 218 1.02
  90  0.671  0.421  0.743- 219 1.02
  91  0.671  0.921  0.743- 220 1.02
  92  0.051  0.199  0.769- 213 1.02
  93  0.051  0.699  0.769- 214 1.02
  94  0.551  0.199  0.769- 215 1.02
  95  0.551  0.699  0.769- 216 1.02
  96  0.199  0.449  0.769- 217 1.02
  97  0.199  0.949  0.769- 218 1.02
  98  0.699  0.449  0.769- 219 1.02
  99  0.699  0.949  0.769- 220 1.02
 100  0.421  0.329  0.743- 221 1.02
 101  0.421  0.829  0.743- 222 1.02
 102  0.921  0.329  0.743- 223 1.02
 103  0.921  0.829  0.743- 224 1.02
 104  0.329  0.079  0.743- 225 1.02
 105  0.329  0.579  0.743- 226 1.02
 106  0.829  0.079  0.743- 227 1.02
 107  0.829  0.579  0.743- 228 1.02
 108  0.000  0.250  0.726- 161 1.09
 109  0.000  0.750  0.726- 162 1.09
 110  0.500  0.250  0.726- 159 1.09
 111  0.500  0.750  0.726- 160 1.09
 112  0.250  0.000  0.726- 163 1.09
 113  0.250  0.500  0.726- 164 1.09
 114  0.750  0.000  0.726- 165 1.09
 115  0.750  0.500  0.726- 166 1.09
 116  0.719  0.442  0.541- 173 1.10
 117  0.737  0.493  0.518- 173 1.08
 118  0.660  0.553  0.559- 174 1.09
 119  0.707  0.638  0.556- 174 1.10
 120  0.849  0.507  0.569- 175 1.09
 121  0.789  0.576  0.579- 175 1.10
 122  0.869  0.562  0.530- 176 1.09
 123  0.796  0.624  0.524- 176 1.10
 124  0.870  0.463  0.519- 177 1.10
 125  0.863  0.424  0.544- 177 1.10
 126  0.871  0.326  0.519- 178 1.10
 127  0.783  0.322  0.530- 178 1.10
 128  0.635  0.551  0.519- 179 1.09
 129  0.687  0.634  0.516- 179 1.10
 130  0.606  0.633  0.531- 179 1.09
 131  0.754  0.467  0.597- 180 1.10
 132  0.755  0.410  0.574- 180 1.10
 133  0.684  0.477  0.578- 180 1.09
 134  0.817  0.691  0.559- 181 1.10
 135  0.901  0.686  0.544- 181 1.10
 136  0.887  0.625  0.566- 181 1.10
 137  0.820  0.381  0.485- 182 1.10
 138  0.784  0.293  0.492- 182 1.11
 139  0.663  0.309  0.520- 168 1.09
 140  0.730  0.460  0.470- 169 1.10
 141  0.537  0.362  0.519- 170 1.09
 142  0.603  0.513  0.469- 171 1.10
 143  0.506  0.464  0.494- 172 1.10
 144  0.991  0.242  0.555-  31 1.09 189 1.31 183 1.32
 145  0.036  0.769  0.563-  32 1.10 184 1.31 190 1.31
 146  0.469  0.228  0.558-  29 1.09 185 1.31 187 1.32
 147  0.504  0.757  0.556-  30 1.09 188 1.30 186 1.31
 148  0.237  0.533  0.559-  33 1.09 195 1.31 191 1.32
 149  0.256  0.994  0.556-  34 1.09 192 1.31 194 1.31
 150  0.770  0.986  0.562-  35 1.09 196 1.31 193 1.31
 151  0.008  0.247  0.649-  68 1.08 197 1.31 207 1.32
 152  0.009  0.764  0.653-  69 1.09 208 1.31 198 1.31
 153  0.501  0.247  0.648-  70 1.09 205 1.31 199 1.32
 154  0.498  0.750  0.649-  71 1.08 200 1.31 206 1.31
 155  0.255  0.496  0.649-  73 1.08 210 1.30 201 1.31
 156  0.253  0.000  0.647-  72 1.08 209 1.30 202 1.32
 157  0.747  0.518  0.653-  75 1.08 212 1.31 203 1.31
 158  0.753  0.998  0.648-  74 1.08 211 1.30 204 1.32
 159  0.500  0.250  0.743- 110 1.09 221 1.31 215 1.31
 160  0.500  0.750  0.743- 111 1.09 222 1.31 216 1.31
 161  1.000  0.250  0.743- 108 1.09 223 1.31 213 1.31
 162  1.000  0.750  0.743- 109 1.09 224 1.31 214 1.31
 163  0.250  0.000  0.743- 112 1.09 225 1.31 218 1.31
 164  0.250  0.500  0.743- 113 1.09 226 1.31 217 1.31
 165  0.750  0.000  0.743- 114 1.09 227 1.31 220 1.31
 166  0.750  0.500  0.743- 115 1.09 228 1.31 219 1.31
 167  0.706  0.381  0.495- 169 1.40 168 1.41 182 1.51
 168  0.650  0.353  0.509- 139 1.09 170 1.39 167 1.41
 169  0.687  0.438  0.481- 140 1.10 167 1.40 171 1.41
 170  0.579  0.383  0.508- 141 1.09 168 1.39 172 1.41
 171  0.615  0.467  0.481- 142 1.10 172 1.38 169 1.41
 172  0.562  0.441  0.494- 143 1.10 171 1.38 170 1.41
 173  0.762  0.475  0.533- 117 1.08 116 1.10 229 1.52 177 1.53
 174  0.695  0.586  0.548- 118 1.09 119 1.10 179 1.52 229 1.54
 175  0.791  0.525  0.570- 120 1.09 121 1.10 180 1.52 229 1.52
 176  0.826  0.597  0.537- 122 1.09 123 1.10 181 1.52 229 1.53
 177  0.832  0.432  0.529- 125 1.10 124 1.10 173 1.53 178 1.53
 178  0.818  0.355  0.519- 126 1.10 127 1.10 177 1.53 182 1.54
 179  0.655  0.601  0.527- 128 1.09 130 1.09 129 1.10 174 1.52
 180  0.743  0.466  0.580- 133 1.09 131 1.10 132 1.10 175 1.52
 181  0.859  0.653  0.552- 136 1.10 134 1.10 135 1.10 176 1.52
 182  0.784  0.351  0.497- 137 1.10 138 1.11 167 1.51 178 1.54
 183  0.055  0.243  0.565-  15 1.02   8 1.03 144 1.32
 184  0.039  0.709  0.575-   9 1.02  16 1.03 145 1.31
 185  0.537  0.206  0.562-  10 1.02  17 1.03 146 1.31
 186  0.485  0.698  0.567-  18 1.02  11 1.03 147 1.31
 187  0.443  0.295  0.562-   1 1.02  22 1.02 146 1.32
 188  0.482  0.824  0.560-  23 1.02   2 1.03 147 1.30
 189  0.927  0.245  0.564-  24 1.02   3 1.03 144 1.31
 190  0.981  0.817  0.563-   4 1.02  25 1.03 145 1.31
 191  0.238  0.463  0.565-  26 1.00  19 1.02 148 1.32
 192  0.190  0.016  0.561-  20 1.02  27 1.02 149 1.31
 193  0.698  0.987  0.566-  28 1.01  21 1.02 150 1.31
 194  0.318  0.029  0.560-  12 1.02   5 1.02 149 1.31
 195  0.293  0.579  0.560-   6 1.02  13 1.03 148 1.31
 196  0.815  0.041  0.566-   7 1.02  14 1.02 150 1.31
 197  0.054  0.199  0.658-  44 1.02  52 1.03 151 1.31
 198  0.058  0.714  0.659-  45 1.01  53 1.02 152 1.31
 199  0.551  0.206  0.658-  46 1.02  54 1.03 153 1.32
 200  0.538  0.705  0.660-  47 1.02  55 1.03 154 1.31
 201  0.214  0.445  0.658-  48 1.02  56 1.03 155 1.31
 202  0.203  0.958  0.656-  49 1.01  57 1.03 156 1.32
 203  0.700  0.468  0.661-  58 1.02  50 1.03 157 1.31
 204  0.708  0.949  0.657-  51 1.01  59 1.03 158 1.32
 205  0.460  0.296  0.658-  60 1.02  36 1.03 153 1.31
 206  0.452  0.799  0.656-  61 1.02  37 1.03 154 1.31
 207  0.956  0.284  0.660-  62 1.01  38 1.02 151 1.32
 208  0.943  0.773  0.661-  63 1.02  39 1.03 152 1.31
 209  0.302  0.042  0.656-  64 1.02  40 1.03 156 1.30
 210  0.293  0.546  0.660-  41 1.02  65 1.03 155 1.30
 211  0.793  0.047  0.658-  66 1.02  42 1.02 158 1.30
 212  0.819  0.515  0.656-  67 1.02  43 1.02 157 1.31
 213  0.046  0.204  0.753-  92 1.02  84 1.02 161 1.31
 214  0.046  0.704  0.753-  93 1.02  85 1.02 162 1.31
 215  0.546  0.204  0.753-  94 1.02  86 1.02 159 1.31
 216  0.546  0.704  0.753-  95 1.02  87 1.02 160 1.31
 217  0.204  0.454  0.753-  96 1.02  88 1.02 164 1.31
 218  0.204  0.954  0.753-  97 1.02  89 1.02 163 1.31
 219  0.704  0.454  0.753-  98 1.02  90 1.02 166 1.31
 220  0.704  0.954  0.753-  99 1.02  91 1.02 165 1.31
 221  0.454  0.296  0.753-  76 1.02 100 1.02 159 1.31
 222  0.454  0.796  0.753-  77 1.02 101 1.02 160 1.31
 223  0.954  0.296  0.753-  78 1.02 102 1.02 161 1.31
 224  0.954  0.796  0.753-  79 1.02 103 1.02 162 1.31
 225  0.296  0.046  0.753-  80 1.02 104 1.02 163 1.31
 226  0.296  0.546  0.753-  81 1.02 105 1.02 164 1.31
 227  0.796  0.046  0.753-  82 1.02 106 1.02 165 1.31
 228  0.796  0.546  0.753-  83 1.02 107 1.02 166 1.31
 229  0.770  0.545  0.547- 173 1.52 175 1.52 176 1.53 174 1.54
 230  0.509  0.015  0.551- 304 3.35
 231  0.483  0.506  0.555- 305 3.14
 232  0.999  0.009  0.552- 302 3.32
 233  0.031  0.505  0.555- 303 3.15
 234  0.249  0.248  0.553- 306 3.21
 235  0.244  0.766  0.553- 307 3.21
 236  0.732  0.211  0.556- 308 3.20
 237  0.700  0.796  0.554- 309 3.21
 238  0.997  0.988  0.655- 302 3.11 310 3.15
 239  0.015  0.495  0.656- 311 3.07 303 3.19
 240  0.501  0.005  0.654- 304 3.12 312 3.17
 241  0.504  0.495  0.655- 313 3.12 305 3.16
 242  0.257  0.243  0.655- 314 3.13 306 3.16
 243  0.253  0.757  0.654- 315 3.15 307 3.16
 244  0.747  0.269  0.655- 316 3.13 308 3.13
 245  0.746  0.744  0.654- 317 3.18 309 3.19
 246  0.131  0.120  0.608- 302 3.23 306 3.25
 247  0.152  0.607  0.609- 307 3.17 303 3.21
 248  0.640  0.114  0.610- 304 3.20 308 3.22
 249  0.628  0.621  0.610- 305 3.16 309 3.23
 250  0.364  0.387  0.608- 306 3.17 305 3.24
 251  0.373  0.882  0.606- 304 3.21 307 3.27
 252  0.887  0.371  0.610- 303 3.25 308 3.30
 253  0.867  0.880  0.607- 309 3.18 302 3.22
 254  0.123  0.366  0.608- 306 3.11 303 3.30
 255  0.123  0.877  0.607- 307 3.18 302 3.24
 256  0.594  0.346  0.603- 308 3.20 305 3.24
 257  0.615  0.866  0.612- 309 3.07 304 3.27
 258  0.385  0.132  0.606- 304 3.14 306 3.24
 259  0.382  0.632  0.612- 305 3.25 307 3.31
 260  0.883  0.137  0.613- 302 3.20 308 3.31
 261  0.905  0.644  0.615- 303 3.17 309 3.67
 262  0.000  0.000  0.755- 310 3.13 318 3.27
 263  0.000  0.500  0.755- 311 3.13 319 3.27
 264  0.500  0.000  0.755- 312 3.13 320 3.27
 265  0.500  0.500  0.755- 313 3.13 321 3.27
 266  0.250  0.250  0.755- 314 3.13 322 3.27
 267  0.250  0.750  0.755- 315 3.13 323 3.27
 268  0.750  0.250  0.755- 316 3.13 324 3.27
 269  0.750  0.750  0.755- 317 3.13 325 3.27
 270  0.136  0.114  0.705- 310 3.20 314 3.20
 271  0.136  0.614  0.705- 311 3.20 315 3.20
 272  0.636  0.114  0.705- 312 3.20 316 3.20
 273  0.636  0.614  0.705- 313 3.20 317 3.20
 274  0.364  0.386  0.705- 313 3.20 314 3.20
 275  0.364  0.886  0.705- 312 3.20 315 3.20
 276  0.864  0.386  0.705- 311 3.20 316 3.20
 277  0.864  0.886  0.705- 310 3.20 317 3.20
 278  0.114  0.364  0.705- 314 3.21 311 3.21
 279  0.114  0.864  0.705- 315 3.21 310 3.21
 280  0.614  0.364  0.705- 316 3.21 313 3.21
 281  0.614  0.864  0.705- 317 3.21 312 3.21
 282  0.386  0.136  0.705- 314 3.21 312 3.21
 283  0.386  0.636  0.705- 315 3.21 313 3.21
 284  0.886  0.136  0.705- 316 3.21 310 3.21
 285  0.886  0.636  0.705- 317 3.21 311 3.21
 286  0.135  0.115  0.801- 318 3.22 322 3.22
 287  0.135  0.615  0.801- 319 3.22 323 3.22
 288  0.635  0.115  0.801- 320 3.22 324 3.22
 289  0.635  0.615  0.801- 321 3.22 325 3.22
 290  0.365  0.385  0.801- 321 3.22 322 3.22
 291  0.365  0.885  0.801- 320 3.22 323 3.22
 292  0.865  0.385  0.801- 319 3.22 324 3.22
 293  0.865  0.885  0.801- 318 3.22 325 3.22
 294  0.115  0.365  0.801- 319 3.23 322 3.23
 295  0.115  0.865  0.801- 318 3.23 323 3.23
 296  0.615  0.365  0.801- 321 3.23 324 3.23
 297  0.615  0.865  0.801- 320 3.23 325 3.23
 298  0.385  0.135  0.801- 320 3.23 322 3.23
 299  0.385  0.635  0.801- 321 3.23 323 3.23
 300  0.885  0.135  0.801- 318 3.23 324 3.23
 301  0.885  0.635  0.801- 319 3.23 325 3.23
 302  0.997  0.003  0.605- 238 3.11 260 3.20 253 3.22 246 3.23 255 3.24 232 3.32
 303  0.006  0.505  0.605- 233 3.15 261 3.17 239 3.19 247 3.21 252 3.25 254 3.30
 304  0.502  0.004  0.604- 240 3.12 258 3.14 248 3.20 251 3.21 257 3.27 230 3.35
 305  0.503  0.501  0.604- 231 3.14 241 3.16 249 3.16 250 3.24 256 3.24 259 3.25
 306  0.252  0.253  0.604- 254 3.11 242 3.16 250 3.17 234 3.21 258 3.24 246 3.25
 307  0.247  0.752  0.604- 243 3.16 247 3.17 255 3.18 235 3.21 251 3.27 259 3.31
 308  0.746  0.256  0.605- 244 3.13 236 3.20 256 3.20 248 3.22 252 3.30 260 3.31
 309  0.742  0.757  0.603- 257 3.07 253 3.18 245 3.19 237 3.21 249 3.23 261 3.67
 310  0.000  0.000  0.705- 262 3.13 238 3.15 270 3.20 277 3.20 279 3.21 284 3.21
 311  0.000  0.500  0.705- 239 3.07 263 3.13 271 3.20 276 3.20 278 3.21 285 3.21
 312  0.500  0.000  0.705- 264 3.13 240 3.17 272 3.20 275 3.20 281 3.21 282 3.21
 313  0.500  0.500  0.705- 241 3.12 265 3.13 273 3.20 274 3.20 280 3.21 283 3.21
 314  0.250  0.250  0.705- 266 3.13 242 3.13 270 3.20 274 3.20 282 3.21 278 3.21
 315  0.250  0.750  0.705- 267 3.13 243 3.15 271 3.20 275 3.20 283 3.21 279 3.21
 316  0.750  0.250  0.705- 244 3.13 268 3.13 272 3.20 276 3.20 284 3.21 280 3.21
 317  0.750  0.750  0.705- 269 3.13 245 3.18 273 3.20 277 3.20 285 3.21 281 3.21
 318  0.000  0.000  0.807- 286 3.22 293 3.22 300 3.23 295 3.23 262 3.27
 319  0.000  0.500  0.807- 287 3.22 292 3.22 301 3.23 294 3.23 263 3.27
 320  0.500  0.000  0.807- 288 3.22 291 3.22 298 3.23 297 3.23 264 3.27
 321  0.500  0.500  0.807- 289 3.22 290 3.22 299 3.23 296 3.23 265 3.27
 322  0.250  0.250  0.807- 290 3.22 286 3.22 294 3.23 298 3.23 266 3.27
 323  0.250  0.750  0.807- 291 3.22 287 3.22 299 3.23 295 3.23 267 3.27
 324  0.750  0.250  0.807- 292 3.22 288 3.22 296 3.23 300 3.23 268 3.27
 325  0.750  0.750  0.807- 293 3.22 289 3.22 297 3.23 301 3.23 269 3.27
 

IMPORTANT INFORMATION: All symmetrisations will be switched off!
NOSYMM: (Re-)initialisation of all symmetry stuff for point group C_1.


----------------------------------------------------------------------------------------

                                     Primitive cell                                     

  volume of cell :   20385.2105

  direct lattice vectors                    reciprocal lattice vectors
    18.060800552  0.000000000  0.000000000     0.055368531  0.000015077 -0.000000000
    -0.004918649 18.062799454  0.000000000     0.000000000  0.055362404  0.000000000
     0.000000000  0.000000000 62.487499237     0.000000000 -0.000000000  0.016003201

  length of vectors
    18.060800552 18.062800123 62.487499237     0.055368533  0.055362404  0.016003201

  position of ions in fractional coordinates (direct lattice)
     0.474002370  0.333823560  0.569980214
     0.449609654  0.836143861  0.573515040
     0.923160608  0.245895718  0.580538173
     0.941853775  0.816214840  0.575300065
     0.318181259  0.074161580  0.569905126
     0.341432274  0.563550377  0.567459507
     0.797546033  0.090173929  0.572300014
     0.104777518  0.246513556  0.557260995
     0.083610187  0.674331943  0.573917952
     0.548803841  0.151250424  0.559982914
     0.496906877  0.645081223  0.561481444
     0.368106088  0.009599317  0.555523038
     0.286144840  0.633222226  0.556303040
     0.869945792  0.034422069  0.562848844
     0.057893799  0.247757074  0.581397048
     0.000534435  0.695132390  0.586731611
     0.574267340  0.238861189  0.570136312
     0.452417492  0.699682654  0.580164380
     0.281276007  0.440970268  0.573509484
     0.182095120  0.059059273  0.571603586
     0.672276146  0.029796304  0.573069394
     0.388316617  0.305368872  0.559568280
     0.503430542  0.869403985  0.552762598
     0.878230080  0.237202550  0.555985471
     0.987812297  0.866644618  0.555968928
     0.192116224  0.431934548  0.564030965
     0.142701203  0.988035475  0.557236820
     0.669272904  0.939101242  0.563420797
     0.429733593  0.188597037  0.551474987
     0.541321938  0.749559166  0.542424715
     0.993405371  0.238893660  0.537315233
     0.082765668  0.777557893  0.552666021
     0.184915162  0.552615392  0.552334534
     0.259782461  0.942597308  0.546279734
     0.792401188  0.934926746  0.555873266
     0.462022492  0.308346425  0.673640596
     0.440732454  0.807739436  0.672292609
     0.946585446  0.276783615  0.675556384
     0.922998752  0.737137661  0.672819875
     0.308471873  0.048756230  0.671900074
     0.295034302  0.551829076  0.675848191
     0.794820117  0.052997790  0.674694823
     0.844110720  0.472663620  0.664215615
     0.092487205  0.173815264  0.648181036
     0.108856669  0.713197863  0.651955655
     0.580462693  0.168352603  0.648769227
     0.574036877  0.669773020  0.652469003
     0.186239817  0.409034521  0.648179693
     0.167878673  0.928027195  0.647408481
     0.644302267  0.475794154  0.659291473
     0.679110669  0.914048369  0.648013217
     0.056554190  0.184199253  0.673658055
     0.049320288  0.675632297  0.670633341
     0.562280026  0.207989501  0.673752068
     0.537660996  0.701404018  0.676617693
     0.203557227  0.439129291  0.673993449
     0.198570430  0.953761234  0.672680015
     0.715956116  0.422151213  0.669220339
     0.700145081  0.944540785  0.673760676
     0.421485970  0.324904127  0.648985762
     0.422923172  0.831809222  0.645979118
     0.924952794  0.319526127  0.651191587
     0.908586382  0.811669591  0.655397628
     0.336800348  0.072435036  0.646450404
     0.322785256  0.584684823  0.650955455
     0.825487163  0.081938537  0.649830841
     0.852107133  0.554300748  0.649511075
     0.014221542  0.258446893  0.632364212
     0.026388333  0.802599791  0.640588758
     0.493149959  0.240246839  0.631073915
     0.505050931  0.747666843  0.631610827
     0.252208564  0.998942445  0.629201837
     0.258281234  0.496556323  0.631942314
     0.756030474  0.996384028  0.631185754
     0.724776613  0.563621760  0.644489929
     0.448745018  0.301283966  0.768889017
     0.448745007  0.801283913  0.768889017
     0.948744965  0.301283966  0.768889017
     0.948745007  0.801283913  0.768889017
     0.301275995  0.051294496  0.768872961
     0.301276011  0.551294499  0.768872961
     0.801275943  0.051294496  0.768872961
     0.801275984  0.551294499  0.768872961
     0.078771004  0.171180501  0.743441971
     0.078771006  0.671180448  0.743441971
     0.578771004  0.171180501  0.743441971
     0.578770992  0.671180448  0.743441971
     0.171199499  0.421174482  0.743421032
     0.171199501  0.921174508  0.743421032
     0.671199512  0.421174482  0.743421032
     0.671199501  0.921174508  0.743421032
     0.051256000  0.198714991  0.768889017
     0.051256002  0.698714925  0.768889017
     0.551256027  0.198714991  0.768889017
     0.551256016  0.698714925  0.768889017
     0.198723491  0.448703970  0.768872046
     0.198723493  0.948703970  0.768872046
     0.698723518  0.448703970  0.768872046
     0.698723507  0.948703970  0.768872046
     0.421231519  0.328817467  0.743441971
     0.421231508  0.828817440  0.743441971
     0.921231466  0.328817467  0.743441971
     0.921231508  0.828817440  0.743441971
     0.328800503  0.078824997  0.743421032
     0.328800492  0.578824964  0.743421032
     0.828800477  0.078824997  0.743421032
     0.828800519  0.578824964  0.743421032
     0.000003500  0.250001478  0.725821992
     0.000003500  0.750001452  0.725821992
     0.500003506  0.250001478  0.725821992
     0.500003495  0.750001452  0.725821992
     0.250000502  0.000000000  0.725803983
     0.250000517  0.500000000  0.725803983
     0.750000502  0.000000000  0.725803983
     0.750000490  0.500000000  0.725803983
     0.719388976  0.441524775  0.541428788
     0.737394193  0.492514236  0.518326755
     0.660042605  0.552850870  0.558773688
     0.706907711  0.638377077  0.556206280
     0.849241872  0.507251395  0.569059498
     0.789339299  0.576421929  0.578896975
     0.869491927  0.562314858  0.530101754
     0.796438308  0.624488219  0.523614007
     0.869884017  0.462938230  0.518630893
     0.862705166  0.423780312  0.544172501
     0.871125888  0.325994505  0.518622896
     0.782736115  0.322058516  0.529957377
     0.634815796  0.550838486  0.519475728
     0.687313259  0.634281770  0.515974173
     0.605874515  0.633144085  0.531417997
     0.754389368  0.467446415  0.597117844
     0.755284930  0.409910197  0.574098530
     0.683825178  0.476704122  0.577686162
     0.816880084  0.690962163  0.558803662
     0.900848348  0.685577167  0.543988321
     0.886838011  0.625186891  0.565856220
     0.820107378  0.380716948  0.485276779
     0.783725017  0.292576701  0.491564689
     0.662716996  0.308539347  0.520085469
     0.730420188  0.460415714  0.470474258
     0.536539554  0.362095436  0.519403631
     0.603052955  0.512533699  0.469491273
     0.505720672  0.464322111  0.494325434
     0.991431221  0.242247291  0.554673625
     0.035507702  0.768809947  0.563357185
     0.468962669  0.227868312  0.558426511
     0.504036359  0.757151158  0.556036934
     0.237045640  0.532758440  0.559035642
     0.255857096  0.993679854  0.555524503
     0.769755112  0.986083819  0.562323348
     0.008462331  0.247238997  0.649328177
     0.009473409  0.764168237  0.653091747
     0.501200144  0.246913473  0.648177617
     0.498373998  0.750463009  0.648769410
     0.255266991  0.496243655  0.649219268
     0.252535954  0.000332111  0.646553696
     0.747061320  0.517572923  0.653401684
     0.752718520  0.997899981  0.648492499
     0.499988984  0.249994984  0.743277021
     0.499989025  0.749994958  0.743277021
     0.999988984  0.249994984  0.743277021
     0.999989025  0.749994958  0.743277021
     0.250000502  0.000001000  0.743255960
     0.250000517  0.500001003  0.743255960
     0.750000502  0.000001000  0.743255960
     0.750000491  0.500001003  0.743255960
     0.705803176  0.381118765  0.495316080
     0.649799021  0.353097573  0.508907085
     0.687429856  0.438089018  0.481102086
     0.578892085  0.382531579  0.508436105
     0.615337988  0.467251961  0.480588250
     0.561802950  0.440672621  0.494321435
     0.761582641  0.475215386  0.533389704
     0.695003969  0.585731484  0.548182214
     0.791299110  0.524875110  0.569639814
     0.826185438  0.597298722  0.536846573
     0.832397466  0.431552134  0.529115473
     0.817792395  0.355234665  0.519235384
     0.655077047  0.600871542  0.527275139
     0.742947846  0.466098806  0.579898030
     0.858851492  0.652698506  0.552492952
     0.783817581  0.351322910  0.496657535
     0.054844352  0.243335293  0.565068892
     0.039027964  0.708926529  0.575231569
     0.537117172  0.206209282  0.562083371
     0.484774122  0.697898197  0.566726450
     0.443432529  0.295162627  0.562060905
     0.482449248  0.824169025  0.560462441
     0.926762805  0.245282024  0.564158981
     0.980639568  0.816618320  0.563469268
     0.237815513  0.463046941  0.565275965
     0.189776158  0.016145891  0.561224312
     0.697871356  0.986598636  0.565579248
     0.317541811  0.029093910  0.559998237
     0.293024798  0.578542021  0.560381309
     0.814930458  0.040802220  0.566378358
     0.054340500  0.198911385  0.657763397
     0.058104883  0.713946059  0.658893139
     0.551491986  0.205620495  0.657660715
     0.538405093  0.704657887  0.660103953
     0.213751055  0.444746359  0.657933536
     0.202970690  0.958494469  0.656349601
     0.700393458  0.468001530  0.660758686
     0.708317496  0.949035902  0.657499733
     0.459750049  0.296362666  0.657609557
     0.451576096  0.799056220  0.656364008
     0.956368352  0.283688525  0.659642374
     0.943439282  0.772500559  0.661345717
     0.301692619  0.042290419  0.655712816
     0.292884633  0.546168740  0.659545675
     0.792822696  0.046911389  0.658443220
     0.818834741  0.514821054  0.656024096
     0.045862501  0.204119496  0.752725994
     0.045862500  0.704119456  0.752725994
     0.545862507  0.204119496  0.752725994
     0.545862496  0.704119456  0.752725994
     0.204119002  0.454101003  0.752704994
     0.204118991  0.954100951  0.752704994
     0.704118976  0.454101003  0.752704994
     0.704118964  0.954100951  0.752704994
     0.454140018  0.295888490  0.752726971
     0.454140007  0.795888516  0.752726971
     0.954140018  0.295888490  0.752726971
     0.954140060  0.795888516  0.752726971
     0.295882492  0.045900498  0.752704994
     0.295882481  0.545900528  0.752704994
     0.795882439  0.045900498  0.752704994
     0.795882481  0.545900528  0.752704994
     0.769589878  0.544633700  0.546823116
     0.509172729  0.014591411  0.550756887
     0.483254535  0.505924536  0.554544754
     0.999498103  0.008840604  0.551926981
     0.030904144  0.505446453  0.555106573
     0.249451422  0.248266546  0.552970830
     0.243673912  0.766014150  0.552566575
     0.731864746  0.210534060  0.555948721
     0.700262936  0.795513652  0.554431450
     0.997464308  0.988483480  0.654567811
     0.015070679  0.494881421  0.655946261
     0.500975752  0.005024464  0.654155314
     0.503560233  0.495411774  0.654977012
     0.257120778  0.242782501  0.654742590
     0.253247275  0.756708503  0.654423984
     0.746711510  0.268860976  0.655120473
     0.745863696  0.744084994  0.654046223
     0.131321712  0.120280915  0.607772624
     0.151523822  0.606512396  0.609474380
     0.639978938  0.114048199  0.609904825
     0.628165794  0.621114762  0.610094499
     0.364406650  0.387311118  0.608248183
     0.373158037  0.882475429  0.606485379
     0.887222334  0.370870758  0.609996213
     0.867361341  0.880239393  0.606849466
     0.122938081  0.365601547  0.608405563
     0.123405631  0.877038321  0.607316966
     0.593715130  0.346008742  0.602666378
     0.615234143  0.866154444  0.612410759
     0.384617587  0.132482847  0.605665147
     0.382437128  0.632175881  0.611878731
     0.882826908  0.136631981  0.612511059
     0.904788977  0.644108637  0.615427842
     0.000000000  0.000000000  0.754927972
     0.000000000  0.500000000  0.754927972
     0.500000000  0.000000000  0.754927972
     0.499999989  0.500000000  0.754927972
     0.250000496  0.250000000  0.754939022
     0.250000511  0.749999974  0.754939022
     0.750000470  0.250000000  0.754939022
     0.750000458  0.749999974  0.754939022
     0.135790500  0.114209997  0.704782994
     0.135790502  0.614209984  0.704782994
     0.635790447  0.114209997  0.704782994
     0.635790488  0.614209984  0.704782994
     0.364209516  0.385789989  0.704782994
     0.364209505  0.885789963  0.704782994
     0.864209542  0.385789989  0.704782994
     0.864209531  0.885789963  0.704782994
     0.114217990  0.364218986  0.704780979
     0.114217992  0.864218986  0.704780979
     0.614218004  0.364218986  0.704780979
     0.614217992  0.864218986  0.704780979
     0.385782012  0.135781489  0.704782017
     0.385782001  0.635781489  0.704782017
     0.885781985  0.135781489  0.704782017
     0.885782027  0.635781489  0.704782017
     0.134667000  0.115332001  0.801256025
     0.134666989  0.615331988  0.801256025
     0.634666987  0.115332001  0.801256025
     0.634666976  0.615331988  0.801256025
     0.365333002  0.384667985  0.801256025
     0.365332990  0.884667959  0.801256025
     0.865332949  0.384667985  0.801256025
     0.865332938  0.884667959  0.801256025
     0.115328503  0.365337004  0.801264999
     0.115328505  0.865336978  0.801264999
     0.615328503  0.365337004  0.801264999
     0.615328492  0.865336978  0.801264999
     0.384671513  0.134662996  0.801264999
     0.384671501  0.634662970  0.801264999
     0.884671486  0.134662996  0.801264999
     0.884671528  0.634662970  0.801264999
     0.996512779  0.003327809  0.605011024
     0.006015024  0.505271851  0.605022990
     0.502146998  0.004285338  0.604208740
     0.502720891  0.500732357  0.604496822
     0.252065783  0.252840939  0.604315878
     0.247301608  0.752489702  0.603819929
     0.746306476  0.255950803  0.605203384
     0.741728407  0.757343870  0.603170446
     0.000000500  0.000000500  0.704828963
     0.000000500  0.500000475  0.704828963
     0.500000475  0.000000500  0.704828963
     0.500000464  0.500000475  0.704828963
     0.249999994  0.249999472  0.704824995
     0.250000010  0.749999498  0.704824995
     0.749999994  0.249999472  0.704824995
     0.749999983  0.749999498  0.704824995
     0.000000000  0.000000000  0.807317968
     0.000000000  0.500000000  0.807317968
     0.500000000  0.000000000  0.807317968
     0.499999989  0.500000000  0.807317968
     0.249999994  0.250000000  0.807317968
     0.250000010  0.749999974  0.807317968
     0.749999994  0.250000000  0.807317968
     0.749999983  0.749999974  0.807317968

  ion indices of the primitive-cell ions
   primitive index   ion index
                 1           1
                 2           2
                 3           3
                 4           4
                 5           5
                 6           6
                 7           7
                 8           8
                 9           9
                10          10
                11          11
                12          12
                13          13
                14          14
                15          15
                16          16
                17          17
                18          18
                19          19
                20          20
                21          21
                22          22
                23          23
                24          24
                25          25
                26          26
                27          27
                28          28
                29          29
                30          30
                31          31
                32          32
                33          33
                34          34
                35          35
                36          36
                37          37
                38          38
                39          39
                40          40
                41          41
                42          42
                43          43
                44          44
                45          45
                46          46
                47          47
                48          48
                49          49
                50          50
                51          51
                52          52
                53          53
                54          54
                55          55
                56          56
                57          57
                58          58
                59          59
                60          60
                61          61
                62          62
                63          63
                64          64
                65          65
                66          66
                67          67
                68          68
                69          69
                70          70
                71          71
                72          72
                73          73
                74          74
                75          75
                76          76
                77          77
                78          78
                79          79
                80          80
                81          81
                82          82
                83          83
                84          84
                85          85
                86          86
                87          87
                88          88
                89          89
                90          90
                91          91
                92          92
                93          93
                94          94
                95          95
                96          96
                97          97
                98          98
                99          99
               100         100
               101         101
               102         102
               103         103
               104         104
               105         105
               106         106
               107         107
               108         108
               109         109
               110         110
               111         111
               112         112
               113         113
               114         114
               115         115
               116         116
               117         117
               118         118
               119         119
               120         120
               121         121
               122         122
               123         123
               124         124
               125         125
               126         126
               127         127
               128         128
               129         129
               130         130
               131         131
               132         132
               133         133
               134         134
               135         135
               136         136
               137         137
               138         138
               139         139
               140         140
               141         141
               142         142
               143         143
               144         144
               145         145
               146         146
               147         147
               148         148
               149         149
               150         150
               151         151
               152         152
               153         153
               154         154
               155         155
               156         156
               157         157
               158         158
               159         159
               160         160
               161         161
               162         162
               163         163
               164         164
               165         165
               166         166
               167         167
               168         168
               169         169
               170         170
               171         171
               172         172
               173         173
               174         174
               175         175
               176         176
               177         177
               178         178
               179         179
               180         180
               181         181
               182         182
               183         183
               184         184
               185         185
               186         186
               187         187
               188         188
               189         189
               190         190
               191         191
               192         192
               193         193
               194         194
               195         195
               196         196
               197         197
               198         198
               199         199
               200         200
               201         201
               202         202
               203         203
               204         204
               205         205
               206         206
               207         207
               208         208
               209         209
               210         210
               211         211
               212         212
               213         213
               214         214
               215         215
               216         216
               217         217
               218         218
               219         219
               220         220
               221         221
               222         222
               223         223
               224         224
               225         225
               226         226
               227         227
               228         228
               229         229
               230         230
               231         231
               232         232
               233         233
               234         234
               235         235
               236         236
               237         237
               238         238
               239         239
               240         240
               241         241
               242         242
               243         243
               244         244
               245         245
               246         246
               247         247
               248         248
               249         249
               250         250
               251         251
               252         252
               253         253
               254         254
               255         255
               256         256
               257         257
               258         258
               259         259
               260         260
               261         261
               262         262
               263         263
               264         264
               265         265
               266         266
               267         267
               268         268
               269         269
               270         270
               271         271
               272         272
               273         273
               274         274
               275         275
               276         276
               277         277
               278         278
               279         279
               280         280
               281         281
               282         282
               283         283
               284         284
               285         285
               286         286
               287         287
               288         288
               289         289
               290         290
               291         291
               292         292
               293         293
               294         294
               295         295
               296         296
               297         297
               298         298
               299         299
               300         300
               301         301
               302         302
               303         303
               304         304
               305         305
               306         306
               307         307
               308         308
               309         309
               310         310
               311         311
               312         312
               313         313
               314         314
               315         315
               316         316
               317         317
               318         318
               319         319
               320         320
               321         321
               322         322
               323         323
               324         324
               325         325

----------------------------------------------------------------------------------------

 
 
 KPOINTS: Automatic Mesh                          

Automatic generation of k-mesh.
 Grid dimensions read from file:
 generate k-points for:    3    3    1

 Generating k-lattice:

  Cartesian coordinates                     Fractional coordinates (reciprocal lattice)
     0.018456177  0.000005026 -0.000000000     0.333333333  0.000000000  0.000000000
     0.000000000  0.018454135  0.000000000     0.000000000  0.333333333  0.000000000
     0.000000000 -0.000000000  0.016003201     0.000000000  0.000000000  1.000000000

  Length of vectors
     0.018456178  0.018454135  0.016003201

  Shift w.r.t. Gamma in fractional coordinates (k-lattice)
     0.000000000  0.000000000  0.000000000

 
 Subroutine IBZKPT returns following result:
 ===========================================
 
 Found      5 irreducible k-points:
 
 Following reciprocal coordinates:
            Coordinates               Weight
  0.000000  0.000000  0.000000      1.000000
  0.333333  0.000000  0.000000      2.000000
  0.000000  0.333333  0.000000      2.000000
  0.333333  0.333333  0.000000      2.000000
 -0.333333  0.333333  0.000000      2.000000
 
 Following cartesian coordinates:
            Coordinates               Weight
  0.000000  0.000000  0.000000      1.000000
  0.018456  0.000005  0.000000      2.000000
  0.000000  0.018454  0.000000      2.000000
  0.018456  0.018459  0.000000      2.000000
 -0.018456  0.018449  0.000000      2.000000
 


--------------------------------------------------------------------------------------------------------




 Dimension of arrays:
   k-points           NKPTS =      5   k-points in BZ     NKDIM =      5   number of bands    NBANDS=    732
   number of dos      NEDOS =    301   number of ions     NIONS =    325
   non local maximal  LDIM  =      5   non local SUM 2l+1 LMDIM =     13
   total plane-waves  NPLWV = ******
   max r-space proj   IRMAX =   3336   max aug-charges    IRDMAX=  19845
   dimension x,y,z NGX =   100 NGY =  100 NGZ =  350
   dimension x,y,z NGXF=   200 NGYF=  200 NGZF=  700
   support grid    NGXF=   200 NGYF=  200 NGZF=  700
   ions per type =             143  39  47  72  24
   NGX,Y,Z   is equivalent  to a cutoff of   9.20,  9.20,  9.31 a.u.
   NGXF,Y,Z  is equivalent  to a cutoff of  18.41, 18.41, 18.62 a.u.

 SYSTEM =  PSC                                     
 POSCAR =   H  C  N  I Pb                          

 Startparameter for this run:
   NWRITE =      2    write-flag & timer
   PREC   = normal    normal or accurate (medium, high low for compatibility)
   ISTART =      0    job   : 0-new  1-cont  2-samecut
   ICHARG =      1    charge: 1-file 2-atom 10-const
   ISPIN  =      1    spin polarized calculation?
   LNONCOLLINEAR =      F non collinear calculations
   LSORBIT =      F    spin-orbit coupling
   INIWAV =      1    electr: 0-lowe 1-rand  2-diag
   LASPH  =      F    aspherical Exc in radial PAW
 Electronic Relaxation 1
   ENCUT  =  500.0 eV  36.75 Ry    6.06 a.u.  32.93 32.93113.93*2*pi/ulx,y,z
   ENINI  =  500.0     initial cutoff
   ENAUG  =  644.9 eV  augmentation charge cutoff
   NELM   =    600;   NELMIN=  2; NELMDL=  0     # of ELM steps 
   EDIFF  = 0.1E-03   stopping-criterion for ELM
   LREAL  =      T    real-space projection
   NLSPLINE    = F    spline interpolate recip. space projectors
   LCOMPAT=      F    compatible to vasp.4.4
   GGA_COMPAT  = F    GGA compatible to vasp.4.4-vasp.4.6
   LMAXPAW     = -100 max onsite density
   LMAXMIX     =    2 max onsite mixed and CHGCAR
   VOSKOWN=      0    Vosko Wilk Nusair interpolation
   ROPT   =   -0.00050  -0.00050  -0.00050  -0.00050
   ROPT   =   -0.00050
 Ionic relaxation
   EDIFFG = 0.1E-02   stopping-criterion for IOM
   NSW    =      0    number of steps for IOM
   NBLOCK =      1;   KBLOCK =      1    inner block; outer block 
   IBRION =     -1    ionic relax: 0-MD 1-quasi-New 2-CG
   NFREE  =      0    steps in history (QN), initial steepest desc. (CG)
   ISIF   =      2    stress and relaxation
   IWAVPR =     10    prediction:  0-non 1-charg 2-wave 3-comb
   ISYM   =      0    0-nonsym 1-usesym 2-fastsym
   LCORR  =      T    Harris-Foulkes like correction to forces

   POTIM  = 0.5000    time-step for ionic-motion
   TEIN   =    0.0    initial temperature
   TEBEG  =    0.0;   TEEND  =   0.0 temperature during run
   SMASS  =  -3.00    Nose mass-parameter (am)
   estimated Nose-frequenzy (Omega)   =  0.10E-29 period in steps = 0.13E+47 mass=  -0.745E-26a.u.
   SCALEE = 1.0000    scale energy and forces
   NPACO  =    256;   APACO  = 16.0  distance and # of slots for P.C.
   PSTRESS=    0.0 pullay stress

  Mass of Ions in am
   POMASS =   1.00 12.01 14.00126.90207.20
  Ionic Valenz
   ZVAL   =   1.00  4.00  5.00  7.00  4.00
  Atomic Wigner-Seitz radii
   RWIGS  =  -1.00 -1.00 -1.00 -1.00 -1.00
  virtual crystal weights 
   VCA    =   1.00  1.00  1.00  1.00  1.00
   NELECT =    1134.0000    total number of electrons
   NUPDOWN=      -1.0000    fix difference up-down

 DOS related values:
   EMIN   =  10.00;   EMAX   =-10.00  energy-range for DOS
   EFERMI =   0.00
   ISMEAR =     0;   SIGMA  =   0.05  broadening in eV -4-tet -1-fermi 0-gaus

 Electronic relaxation 2 (details)
   IALGO  =     38    algorithm
   LDIAG  =      T    sub-space diagonalisation (order eigenvalues)
   LSUBROT=      F    optimize rotation matrix (better conditioning)
   TURBO    =      0    0=normal 1=particle mesh
   IRESTART =      0    0=no restart 2=restart with 2 vectors
   NREBOOT  =      0    no. of reboots
   NMIN     =      0    reboot dimension
   EREF     =   0.00    reference energy to select bands
   IMIX   =      4    mixing-type and parameters
     AMIX     =   0.40;   BMIX     =  0.01
     AMIX_MAG =   1.60;   BMIX_MAG =  0.01
     AMIN     =   0.01
     WC   =   100.;   INIMIX=   1;  MIXPRE=   1;  MAXMIX= -45

 Intra band minimization:
   WEIMIN = 0.0000     energy-eigenvalue tresh-hold
   EBREAK =  0.34E-07  absolut break condition
   DEPER  =   0.30     relativ break condition  

   TIME   =   0.40     timestep for ELM

  volume/ion in A,a.u.               =      62.72       423.28
  Fermi-wavevector in a.u.,A,eV,Ry     =   0.624944  1.180972  5.313816  0.390554
  Thomas-Fermi vector in A             =   1.685677
 
 Write flags
   LWAVE        =      F    write WAVECAR
   LDOWNSAMPLE  =      F    k-point downsampling of WAVECAR
   LCHARG       =      T    write CHGCAR
   LVTOT        =      T    write LOCPOT, total local potential
   LVHAR        =      F    write LOCPOT, Hartree potential only
   LELF         =      F    write electronic localiz. function (ELF)
   LORBIT       =      0    0 simple, 1 ext, 2 COOP (PROOUT), +10 PAW based schemes


 Dipole corrections
   LMONO  =      F    monopole corrections only (constant potential shift)
   LDIPOL =      T    correct potential (dipole corrections)
   IDIPOL =      3    1-x, 2-y, 3-z, 4-all directions 
   EPSILON=  1.0000000 bulk dielectric constant

 Exchange correlation treatment:
   GGA     =    --    GGA type
   LEXCH   =     8    internal setting for exchange type
   VOSKOWN=      0    Vosko Wilk Nusair interpolation
   LHFCALC =     F    Hartree Fock is set to
   LHFONE  =     F    Hartree Fock one center treatment
   AEXX    =    0.0000 exact exchange contribution

 Linear response parameters
   LEPSILON=     F    determine dielectric tensor
   LRPA    =     F    only Hartree local field effects (RPA)
   LNABLA  =     F    use nabla operator in PAW spheres
   LVEL    =     F    velocity operator in full k-point grid
   LINTERFAST=   F  fast interpolation
   KINTER  =     0    interpolate to denser k-point grid
   CSHIFT  =0.1000    complex shift for real part using Kramers Kronig
   OMEGAMAX=  -1.0    maximum frequency
   DEG_THRESHOLD= 0.2000000E-02 threshold for treating states as degnerate
   RTIME   =   -0.100 relaxation time in fs
  (WPLASMAI=    0.000 imaginary part of plasma frequency in eV, 0.658/RTIME)
   DFIELD  = 0.0000000 0.0000000 0.0000000 field for delta impulse in time
 
 Orbital magnetization related:
   ORBITALMAG=     F  switch on orbital magnetization
   LCHIMAG   =     F  perturbation theory with respect to B field
   DQ        =  0.001000  dq finite difference perturbation B field
   LLRAUG    =     F  two centre corrections for induced B field



--------------------------------------------------------------------------------------------------------


 Static calculation
 charge density and potential will be updated during run
 non-spin polarized calculation
 Variant of blocked Davidson
 Davidson routine will perform the subspace rotation
 perform sub-space diagonalisation
    after iterative eigenvector-optimisation
 modified Broyden-mixing scheme, WC =      100.0
 initial mixing is a Kerker type mixing with AMIX =  0.4000 and BMIX =      0.0100
 Hartree-type preconditioning will be used
 using additional bands           165
 real space projection scheme for non local part
[...]
     13.54561      0.00000     45.35368         0.003075     -0.010783      0.010794
     13.54315      9.03140     45.35368        -0.005983      0.004566     -0.008186
     12.99057      7.97517     33.83253         0.064465     -0.046943     -0.006110
     13.31551      8.89619     32.38894        -0.141954      0.188733     -0.288955
     11.91818      9.98603     34.91637        -0.138955     -0.042584     -0.000696
     12.76418     11.53088     34.75594         0.083700     -0.019860      0.070070
     15.33549      9.16238     35.55910         0.134591     -0.048458      0.019257
     14.25326     10.41179     36.17382        -0.084108     -0.044636     -0.034258
     15.70095     10.15698     33.12473         0.190157      0.002630      0.027163
     14.38124     11.28001     32.71933         0.182480     -0.025910      0.100872
     15.70852      8.36196     32.40795        -0.009544      0.002829     -0.046743
     15.57906      7.65466     34.00398         0.104030     -0.098897      0.058494
     15.73163      5.88837     32.40745         0.114270     -0.020447      0.018792
     14.13526      5.81728     33.11571         0.040807      0.087191      0.106913
     11.46257      9.94969     32.46074        -0.010658     -0.167836     -0.123027
     12.41031     11.45690     32.24194         0.034064      0.009909     -0.030276
     10.93946     11.43635     33.20698        -0.077355      0.107304      0.035973
     13.62258      8.44339     37.31240        -0.062442     -0.066781     -0.012906
     13.63903      7.40413     35.87398        -0.005742      0.116749      0.027867
     12.34809      8.61061     36.09816        -0.062140     -0.046021      0.097298
     14.75011     12.48071     34.91824         0.075326      0.020651     -0.077772
     16.26667     12.38344     33.99247        -0.119707     -0.007714     -0.017198
     16.01393     11.29263     35.35894         0.095435      0.046765     -0.068929
     14.80992      6.87681     30.32373        -0.104337      0.029957     -0.034660
     14.15326      5.28475     30.71665         0.027484      0.138227      0.100411
     11.96768      5.57308     32.49884         0.023339     -0.050705      0.025947
     13.18971      8.31640     29.39876        -0.162810     -0.057909      0.084210
      9.68855      6.54046     32.45623         0.011210     -0.021710     -0.026517
     10.88910      9.25779     29.33734        -0.039445     -0.102493      0.066541
      9.13144      8.38696     30.88916         0.261011     -0.098252     -0.004769
     17.90485      4.37566     34.66017         0.415904      0.046681      0.414462
      0.63752     13.88686     35.20278         0.155359     -0.394320      0.128383
      8.46872      4.11594     34.89468        -0.212281      0.429669      0.054684
      9.09958     13.67627     34.74536         0.302474     -0.447653     -0.396889
      4.27861      9.62311     34.93274        -0.153681     -0.267632      0.086940
      4.61610     17.94864     34.71334         0.166814      0.022021     -0.149780
     13.89754     17.81143     35.13818        -0.227725     -0.147911      0.099902
      0.15162      4.46583     40.57489        -0.055266     -0.136536      0.441745
      0.16734     13.80302     40.81007         0.240550     -0.069093      0.054197
      9.05086      4.45995     40.50300         0.284231     -0.238671      0.143534
      8.99734     13.55546     40.53998        -0.065020      0.056504      0.206631
      4.60789      8.96355     40.56809        -0.437808     -0.536014      0.172112
      4.56100      0.00600     40.40152        -0.697410     -0.641829      0.195329
     13.48998      9.34882     40.82944        -0.117781     -0.390136      0.314615
     13.58979     18.02487     40.52267        -0.560494     -0.695766      0.109133
      9.02897      4.51561     46.44552         0.002421      0.010336      0.027452
      9.02651     13.54701     46.44552         0.026557     -0.010728      0.043358
     18.05937      4.51561     46.44552         0.022707     -0.002748      0.036407
     18.05691     13.54701     46.44552         0.012686      0.006917      0.007869
      4.51521      0.00002     46.44421        -0.006113     -0.006591      0.052066
      4.51275      9.03142     46.44421        -0.009975     -0.010116      0.046077
     13.54561      0.00002     46.44421        -0.009729     -0.013023      0.031589
     13.54315      9.03142     46.44421        -0.006942     -0.000144      0.014709
     12.74550      6.88407     30.95106        -0.146302     -0.091575      0.051983
     11.73415      6.37793     31.80033         0.324242      0.044019     -0.213755
     12.41338      7.91311     30.06287         0.002621      0.022559     -0.015580
     10.45337      6.90959     31.77090        -0.204420      0.300986     -0.065700
     11.11120      8.43988     30.03076         0.626702      0.384553     -0.467955
     10.14444      7.95978     30.88891        -0.701597     -0.275448      0.402659
     13.75245      8.58372     33.33019        -0.127707      0.046630     -0.056691
     12.54945     10.57995     34.25454         0.123986     -0.079868     -0.125971
     14.28891      9.48071     35.59537        -0.002875     -0.105473      0.009300
     14.91863     10.78889     33.54620        -0.113005     -0.029826      0.059480
     15.03164      7.79504     33.06310        -0.079620      0.073726      0.115864
     14.76824      6.41653     32.44572        -0.036599     -0.252782     -0.016655
     11.82826     10.85342     32.94810         0.150098     -0.082307      0.107109
     13.41594      8.41905     36.23638         0.118863      0.018406     -0.129714
     15.50834     11.78956     34.52390         0.027811     -0.019200     -0.091678
     14.15464      6.34588     31.03489         0.089725      0.090809     -0.006967
      0.98934      4.39532     35.30974        -0.113416      0.121480     -0.132201
      0.70139     12.80520     35.94478         0.021583      0.037642     -0.159899
      9.69975      3.72472     35.12318        -0.192696     -0.021512      0.100613
      8.75198     12.60600     35.41332        -0.120505     -0.330436      0.068957
      8.00729      5.33146     35.12178         0.021870     -0.254792     -0.110096
      8.70937     14.88680     35.02190        -0.274465      0.569540      0.359695
     16.73687      4.43048     35.25288        -0.062817     -0.155444     -0.031177
     17.70712     14.75041     35.20979         0.268995      0.031341     -0.201225
      4.29286      8.36392     35.32268         0.654452      0.542864     -0.037994
      3.42743      0.29164     35.06950         0.045574     -0.135850      0.058523
     12.59926     17.82073     35.34163         0.322018      0.514969      0.199180
      5.73492      0.52552     34.99289        -0.486349      0.021812      0.150031
      5.28942     10.45009     35.01683        -0.077288     -0.040490      0.015043
     14.71810      0.73700     35.39157         0.088515     -0.236670     -0.123399
      0.98045      3.59290     41.10199        -0.051530     -0.023696      0.184384
      1.04591     12.89586     41.17258        -0.374297     -0.050940      0.042586
      9.95938      3.71408     41.09557        -0.238609      0.232456      0.072358
      9.72056     12.72809     41.24825         0.228296     -0.300396      0.740329
      3.85833      8.03336     41.11262        -0.066389     -0.025830      0.178863
      3.66110     17.31309     41.01365         0.623504      0.519330      0.458361
     12.64736      8.45342     41.28916        -0.134964     -0.031681      0.060717
     12.78811     17.14225     41.08551         0.360708      0.450094      0.527509
      8.30200      5.35314     41.09238        -0.199755      0.275645      0.511841
      8.15190     14.43319     41.01455        -0.230650      0.269613      0.275217
     17.27138      5.12421     41.21940         0.575687     -0.470951      0.054032
     17.03547     13.95352     41.32584        -0.203336     -0.154850      0.193293
      5.44860      0.76388     40.97385         0.450013      0.399911      0.529900
      5.28704      9.86534     41.21336         0.695078      0.953584      0.219320
     14.31878      0.84735     41.14447         0.291330      0.439332      0.489658
     14.78628      9.29911     40.99331         0.303656     -0.292143      0.133103
      0.82731      3.68697     47.03596         0.012821     -0.020499     -0.090901
      0.82485     12.71837     47.03596         0.025086     -0.025975     -0.070018
      9.85771      3.68697     47.03596         0.026811     -0.030389     -0.080449
      9.85525     12.71837     47.03596         0.008613     -0.011542     -0.083009
      3.68432      8.20234     47.03465        -0.004464     -0.005425     -0.068577
      3.68186     17.23373     47.03465        -0.005889     -0.004170     -0.061842
     12.71472      8.20234     47.03465        -0.010172     -0.016374     -0.064013
     12.71226     17.23373     47.03465        -0.011388     -0.002752     -0.065951
      8.20068      5.34457     47.03603        -0.017195      0.014146     -0.085545
      8.19822     14.37597     47.03603        -0.028650      0.027729     -0.085088
     17.23108      5.34457     47.03603        -0.033099      0.023612     -0.103336
     17.22862     14.37597     47.03603        -0.020538      0.020563     -0.068497
      5.34365      0.82909     47.03465         0.012378      0.011271     -0.061526
      5.34119      9.86049     47.03465         0.017385      0.018233     -0.070018
     14.37405      0.82909     47.03465         0.018928      0.024501     -0.068150
     14.37159      9.86049     47.03465         0.019151      0.017775     -0.072573
     13.89673      9.83761     34.16961        -0.274753      0.300257      0.052773
      9.19600      0.26356     34.41542         0.019074     -0.023642      0.060995
      8.72548      9.13841     34.65211         0.034366     -0.054334     -0.018031
     18.05169      0.15969     34.48854         0.006423     -0.011453     -0.000675
      0.55567      9.12978     34.68722        -0.128409     -0.021811     -0.023530
      4.50407      4.48439     34.55376         0.026279     -0.015275      0.011247
      4.39718     13.83636     34.52850         0.026169      0.023630      0.024832
     13.21703      3.80283     34.73985         0.087974      0.097549     -0.000419
     12.64340     14.36920     34.64503         0.019411     -0.011972     -0.090698
     18.01014     17.85478     40.90231        -0.008574     -0.013183     -0.013652
      0.26975      8.93894     40.98844         0.017937     -0.001811     -0.058914
      9.04800      0.09076     40.87653        -0.014503     -0.022930      0.013405
      9.09226      8.94852     40.92788        -0.008248      0.007115      0.023401
      4.64261      4.38533     40.91323        -0.001531      0.010189     -0.008384
      4.57013     13.66827     40.89332         0.004250     -0.015434      0.013536
     13.48489      4.85638     40.93684         0.006778     -0.045329      0.023786
     13.46724     13.44026     40.86971         0.019510     -0.031032      0.059637
      2.37118      2.17261     37.97819         0.005514     -0.002855     -0.027406
      2.73366     10.95531     38.08453         0.015046      0.005377      0.001072
     11.55797      2.06003     38.11143         0.008921     -0.009006      0.038480
     11.34212     11.21907     38.12328         0.046898      0.017591     -0.105580
      6.57957      6.99592     38.00791        -0.037483      0.026912     -0.036688
      6.73519     15.93998     37.89775        -0.007852     -0.014807     -0.043358
     16.02212      6.69896     38.11714         0.000349     -0.056003     -0.050762
     15.66091     15.89959     37.92051         0.007061      0.018865      0.022238
      2.21856      6.60379     38.01774        -0.018326     -0.019059     -0.003529
      2.22449     15.84177     37.94972        -0.008510     -0.030695     -0.024072
     10.72127      6.24989     37.65911         0.037595      0.012926     -0.030730
     11.10736     15.64517     38.26802        -0.046329      0.019226     -0.024649
      6.94585      2.39301     37.84650         0.027533      0.000869      0.010137
      6.90401     11.41887     38.23477         0.039025      0.037307     -0.056589
     15.94389      2.46796     38.27428         0.016496      0.059237      0.004621
     16.33805     11.63441     38.45655        -0.154405      0.006874     -0.249391
      0.00000      0.00000     47.17356        -0.002708      0.006351      0.385772
     -0.00246      9.03140     47.17356        -0.003982     -0.003288      0.511237
      9.03040      0.00000     47.17356         0.002101     -0.000241      0.363071
      9.02794      9.03140     47.17356        -0.001418     -0.000846      0.436907
      4.51398      4.51570     47.17425        -0.000112     -0.004149      0.434065
      4.51152     13.54710     47.17425         0.004901      0.000647      0.401673
     13.54438      4.51570     47.17425         0.004135      0.002339      0.399267
     13.54192     13.54710     47.17425        -0.002649     -0.002525      0.395955
      2.45192      2.06295     44.04013        -0.008565     -0.029278     -0.024085
      2.44946     11.09435     44.04013         0.042487     -0.015385     -0.004653
     11.48232      2.06295     44.04013         0.044390      0.020046     -0.050476
     11.47986     11.09435     44.04013        -0.059788      0.022592      0.019569
      6.57602      6.96845     44.04013         0.015487     -0.002298     -0.053786
      6.57356     15.99985     44.04013         0.034275      0.007952     -0.061797
     15.60642      6.96845     44.04013        -0.014311     -0.006298     -0.070848
     15.60396     15.99985     44.04013        -0.060471      0.038505     -0.008212
      2.06108      6.57881     44.04000         0.053999     -0.036113     -0.004588
      2.05862     15.61021     44.04000         0.060383      0.063369     -0.020945
     11.09148      6.57881     44.04000        -0.045250     -0.066887      0.008581
     11.08902     15.61021     44.04000        -0.007902      0.023164     -0.047231
      6.96686      2.45259     44.04007        -0.005507     -0.058195     -0.040872
      6.96440     11.48399     44.04007         0.014889      0.012284     -0.037412
     15.99726      2.45259     44.04007        -0.001911      0.045073     -0.084042
     15.99481     11.48399     44.04007         0.026166      0.030471     -0.088009
      2.43163      2.08322     50.06849         0.004838     -0.014133      0.023103
      2.42917     11.11462     50.06849         0.018423     -0.002619      0.025362
     11.46203      2.08322     50.06849         0.007319     -0.013529      0.022782
     11.45957     11.11462     50.06849         0.010946     -0.008280      0.024455
      6.59631      6.94818     50.06849        -0.011055      0.008714      0.024587
      6.59385     15.97958     50.06849        -0.004095      0.016283      0.023226
     15.62671      6.94818     50.06849        -0.019836     -0.001270      0.022046
     15.62425     15.97958     50.06849        -0.009423      0.014207      0.025743
      2.08113      6.59901     50.06905        -0.004605     -0.017391      0.024285
      2.07867     15.63041     50.06905        -0.012530     -0.006137      0.024944
     11.11153      6.59901     50.06905        -0.006166     -0.014963      0.023896
     11.10907     15.63041     50.06905        -0.015544     -0.004767      0.023850
      6.94681      2.43239     50.06905         0.017495      0.001922      0.024473
      6.94435     11.46379     50.06905         0.008194      0.012311      0.024569
     15.97721      2.43239     50.06905         0.009741      0.009828      0.022990
     15.97475     11.46379     50.06905         0.000734      0.016984      0.025214
     17.99780      0.06011     37.80563         0.028989      0.017405     -0.013558
      0.10615      9.12662     37.80637         0.050229     -0.040741     -0.047801
      9.06916      0.07741     37.75549         0.052133     -0.024909      0.009559
      9.07708      9.04463     37.77349        -0.063987     -0.018770     -0.023976
      4.55127      4.56702     37.76219        -0.007925      0.002529      0.001148
      4.46276     13.59207     37.73120         0.032361     -0.001565     -0.053764
     13.47763      4.62319     37.81765        -0.007629     -0.025010      0.002232
     13.39248     13.67975     37.69061        -0.002354     -0.035244      0.017485
      0.00001      0.00001     44.04300        -0.006529     -0.142110      0.135158
     -0.00245      9.03141     44.04300         0.062782      0.011269      0.176322
      9.03041      0.00001     44.04300        -0.016097      0.010208      0.098253
      9.02795      9.03141     44.04300         0.028318      0.019383      0.221105
      4.51397      4.51569     44.04275         0.014205      0.029589      0.095709
      4.51151     13.54709     44.04275        -0.089067      0.026267      0.126204
     13.54437      4.51569     44.04275        -0.057890     -0.010333      0.201830
     13.54191     13.54709     44.04275        -0.018010      0.012019      0.066783
      0.00000      0.00000     50.44728         0.001633     -0.003387     -0.623959
     -0.00246      9.03140     50.44728         0.002378      0.002378     -0.654768
      9.03040      0.00000     50.44728        -0.003344     -0.000371     -0.616414
      9.02794      9.03140     50.44728        -0.002370      0.000848     -0.637993
      4.51397      4.51570     50.44728        -0.004849      0.010045     -0.636275
      4.51151     13.54710     50.44728        -0.005928     -0.011553     -0.629048
     13.54437      4.51570     50.44728         0.002855      0.011353     -0.623250
     13.54191     13.54710     50.44728         0.006352     -0.010350     -0.630095
 -----------------------------------------------------------------------------------
    total drift:                                0.135170      0.038316      0.737058


--------------------------------------------------------------------------------------------------------



  FREE ENERGIE OF THE ION-ELECTRON SYSTEM (eV)
  ---------------------------------------------------
  free  energy   TOTEN  =     -1575.60388214 eV

  energy  without entropy=    -1575.60388214  energy(sigma->0) =    -1575.60388214
 


--------------------------------------------------------------------------------------------------------


    POTLOK:  cpu time    0.5031: real time    0.5032


--------------------------------------------------------------------------------------------------------


     LOOP+:  cpu time  265.1542: real time  265.7952
 vacuum level on the upper side and lower side of the slab         2.327         1.542
    4ORBIT:  cpu time    0.0000: real time    0.0000

 total amount of memory used by VASP MPI-rank0  8653586. kBytes
=======================================================================

   base      :      30000. kBytes
   nonlr-proj:      53624. kBytes
   fftplans  :     249280. kBytes
   grid      :     701440. kBytes
   one-center:       2636. kBytes
   wavefun   :    7616606. kBytes
 
  
  
 General timing and accounting informations for this job:
 ========================================================
  
                  Total CPU time used (sec):      476.806
                            User time (sec):      390.457
                          System time (sec):       86.349
                         Elapsed time (sec):      479.982
  
                   Maximum memory used (kb):    10307572.
                   Average memory used (kb):          N/A
  
                          Minor page faults:      3542625
                          Major page faults:           12
                 Voluntary context switches:        10468
