<?xml version="1.0" encoding="ISO-8859-1"?>
<modeling>
 <generator>
  <i name="program" type="string">vasp </i>
  <i name="version" type="string">6.2.1  </i>
  <i name="subversion" type="string">16May21 (build Nov 15 2021 14:57:28) complex                          parallel </i>
  <i name="platform" type="string">LinuxPGI </i>
  <i name="date" type="string">2023 07 30 </i>
  <i name="time" type="string">20:45:24 </i>
 </generator>
 <incar>
  <i type="string" name="SYSTEM">PSC</i>
  <i type="int" name="ISTART">     1</i>
  <i type="string" name="PREC">Normal</i>
  <i name="BMIX">      0.01000000</i>
  <i name="AMIN">      0.01000000</i>
  <i type="int" name="ICHARG">     1</i>
  <i type="int" name="NELM">   600</i>
  <i type="int" name="ISYM">     0</i>
  <i name="ENCUT">    500.00000000</i>
  <i type="string" name="LREAL">Auto</i>
  <i type="int" name="ISMEAR">     0</i>
  <i name="SIGMA">      0.05000000</i>
  <i type="logical" name="LWAVE"> F  </i>
  <i type="logical" name="LVTOT"> T  </i>
  <i type="logical" name="GGA_COMPAT"> F  </i>
  <i type="logical" name="LDIPOL"> T  </i>
  <i type="int" name="IDIPOL">     3</i>
  <i type="int" name="IVDW">    12</i>
 </incar>
 <primitive_cell>
  <structure name="primitive_cell" >
   <crystal>
    <varray name="basis" >
     <v>      18.06080055       0.00000000       0.00000000 </v>
     <v>      -0.00491865      18.06279945       0.00000000 </v>
     <v>       0.00000000       0.00000000      62.48749924 </v>
    </varray>
    <i name="volume">  20385.21054034 </i>
    <varray name="rec_basis" >
     <v>       0.05536853       0.00001508      -0.00000000 </v>
     <v>       0.00000000       0.05536240       0.00000000 </v>
     <v>       0.00000000      -0.00000000       0.01600320 </v>
    </varray>
   </crystal>
   <varray name="positions" >
    <v>       0.47400237       0.33382356       0.56998021 </v>
    <v>       0.44960965       0.83614386       0.57351504 </v>
    <v>       0.92316061       0.24589572       0.58053817 </v>
    <v>       0.94185377       0.81621484       0.57530006 </v>
    <v>       0.31818126       0.07416158       0.56990513 </v>
    <v>       0.34143227       0.56355038       0.56745951 </v>
    <v>       0.79754603       0.09017393       0.57230001 </v>
    <v>       0.10477752       0.24651356       0.55726100 </v>
    <v>       0.08361019       0.67433194       0.57391795 </v>
    <v>       0.54880384       0.15125042       0.55998291 </v>
    <v>       0.49690688       0.64508122       0.56148144 </v>
    <v>       0.36810609       0.00959932       0.55552304 </v>
    <v>       0.28614484       0.63322223       0.55630304 </v>
    <v>       0.86994579       0.03442207       0.56284884 </v>
    <v>       0.05789380       0.24775707       0.58139705 </v>
    <v>       0.00053444       0.69513239       0.58673161 </v>
    <v>       0.57426734       0.23886119       0.57013631 </v>
    <v>       0.45241749       0.69968265       0.58016438 </v>
    <v>       0.28127601       0.44097027       0.57350948 </v>
    <v>       0.18209512       0.05905927       0.57160359 </v>
    <v>       0.67227615       0.02979630       0.57306939 </v>
    <v>       0.38831662       0.30536887       0.55956828 </v>
    <v>       0.50343054       0.86940398       0.55276260 </v>
    <v>       0.87823008       0.23720255       0.55598547 </v>
    <v>       0.98781230       0.86664462       0.55596893 </v>
    <v>       0.19211622       0.43193455       0.56403096 </v>
    <v>       0.14270120       0.98803547       0.55723682 </v>
    <v>       0.66927290       0.93910124       0.56342080 </v>
    <v>       0.42973359       0.18859704       0.55147499 </v>
    <v>       0.54132194       0.74955917       0.54242471 </v>
    <v>       0.99340537       0.23889366       0.53731523 </v>
    <v>       0.08276567       0.77755789       0.55266602 </v>
    <v>       0.18491516       0.55261539       0.55233453 </v>
    <v>       0.25978246       0.94259731       0.54627973 </v>
    <v>       0.79240119       0.93492675       0.55587327 </v>
    <v>       0.46202249       0.30834642       0.67364060 </v>
    <v>       0.44073245       0.80773944       0.67229261 </v>
    <v>       0.94658545       0.27678361       0.67555638 </v>
    <v>       0.92299875       0.73713766       0.67281987 </v>
    <v>       0.30847187       0.04875623       0.67190007 </v>
    <v>       0.29503430       0.55182908       0.67584819 </v>
    <v>       0.79482012       0.05299779       0.67469482 </v>
    <v>       0.84411072       0.47266362       0.66421561 </v>
    <v>       0.09248720       0.17381526       0.64818104 </v>
    <v>       0.10885667       0.71319786       0.65195566 </v>
    <v>       0.58046269       0.16835260       0.64876923 </v>
    <v>       0.57403688       0.66977302       0.65246900 </v>
    <v>       0.18623982       0.40903452       0.64817969 </v>
    <v>       0.16787867       0.92802719       0.64740848 </v>
    <v>       0.64430227       0.47579415       0.65929147 </v>
    <v>       0.67911067       0.91404837       0.64801322 </v>
    <v>       0.05655419       0.18419925       0.67365806 </v>
    <v>       0.04932029       0.67563230       0.67063334 </v>
    <v>       0.56228003       0.20798950       0.67375207 </v>
    <v>       0.53766100       0.70140402       0.67661769 </v>
    <v>       0.20355723       0.43912929       0.67399345 </v>
    <v>       0.19857043       0.95376123       0.67268002 </v>
    <v>       0.71595612       0.42215121       0.66922034 </v>
    <v>       0.70014508       0.94454078       0.67376068 </v>
    <v>       0.42148597       0.32490413       0.64898576 </v>
    <v>       0.42292317       0.83180922       0.64597912 </v>
    <v>       0.92495279       0.31952613       0.65119159 </v>
    <v>       0.90858638       0.81166959       0.65539763 </v>
    <v>       0.33680035       0.07243504       0.64645040 </v>
    <v>       0.32278526       0.58468482       0.65095546 </v>
    <v>       0.82548716       0.08193854       0.64983084 </v>
    <v>       0.85210713       0.55430075       0.64951107 </v>
    <v>       0.01422154       0.25844689       0.63236421 </v>
    <v>       0.02638833       0.80259979       0.64058876 </v>
    <v>       0.49314996       0.24024684       0.63107392 </v>
    <v>       0.50505093       0.74766684       0.63161083 </v>
    <v>       0.25220856       0.99894244       0.62920184 </v>
    <v>       0.25828123       0.49655632       0.63194231 </v>
    <v>       0.75603047       0.99638403       0.63118575 </v>
    <v>       0.72477661       0.56362176       0.64448993 </v>
    <v>       0.44874502       0.30128397       0.76888902 </v>
    <v>       0.44874501       0.80128391       0.76888902 </v>
    <v>       0.94874497       0.30128397       0.76888902 </v>
    <v>       0.94874501       0.80128391       0.76888902 </v>
    <v>       0.30127600       0.05129450       0.76887296 </v>
    <v>       0.30127601       0.55129450       0.76887296 </v>
    <v>       0.80127594       0.05129450       0.76887296 </v>
    <v>       0.80127598       0.55129450       0.76887296 </v>
    <v>       0.07877100       0.17118050       0.74344197 </v>
    <v>       0.07877101       0.67118045       0.74344197 </v>
    <v>       0.57877100       0.17118050       0.74344197 </v>
    <v>       0.57877099       0.67118045       0.74344197 </v>
    <v>       0.17119950       0.42117448       0.74342103 </v>
    <v>       0.17119950       0.92117451       0.74342103 </v>
    <v>       0.67119951       0.42117448       0.74342103 </v>
    <v>       0.67119950       0.92117451       0.74342103 </v>
    <v>       0.05125600       0.19871499       0.76888902 </v>
    <v>       0.05125600       0.69871493       0.76888902 </v>
    <v>       0.55125603       0.19871499       0.76888902 </v>
    <v>       0.55125602       0.69871493       0.76888902 </v>
    <v>       0.19872349       0.44870397       0.76887205 </v>
    <v>       0.19872349       0.94870397       0.76887205 </v>
    <v>       0.69872352       0.44870397       0.76887205 </v>
    <v>       0.69872351       0.94870397       0.76887205 </v>
    <v>       0.42123152       0.32881747       0.74344197 </v>
    <v>       0.42123151       0.82881744       0.74344197 </v>
    <v>       0.92123147       0.32881747       0.74344197 </v>
    <v>       0.92123151       0.82881744       0.74344197 </v>
    <v>       0.32880050       0.07882500       0.74342103 </v>
    <v>       0.32880049       0.57882496       0.74342103 </v>
    <v>       0.82880048       0.07882500       0.74342103 </v>
    <v>       0.82880052       0.57882496       0.74342103 </v>
    <v>       0.00000350       0.25000148       0.72582199 </v>
    <v>       0.00000350       0.75000145       0.72582199 </v>
    <v>       0.50000351       0.25000148       0.72582199 </v>
    <v>       0.50000350       0.75000145       0.72582199 </v>
    <v>       0.25000050       0.00000000       0.72580398 </v>
    <v>       0.25000052       0.50000000       0.72580398 </v>
    <v>       0.75000050       0.00000000       0.72580398 </v>
    <v>       0.75000049       0.50000000       0.72580398 </v>
    <v>       0.71938898       0.44152478       0.54142879 </v>
    <v>       0.73739419       0.49251424       0.51832676 </v>
    <v>       0.66004260       0.55285087       0.55877369 </v>
    <v>       0.70690771       0.63837708       0.55620628 </v>
    <v>       0.84924187       0.50725139       0.56905950 </v>
    <v>       0.78933930       0.57642193       0.57889698 </v>
    <v>       0.86949193       0.56231486       0.53010175 </v>
    <v>       0.79643831       0.62448822       0.52361401 </v>
    <v>       0.86988402       0.46293823       0.51863089 </v>
    <v>       0.86270517       0.42378031       0.54417250 </v>
    <v>       0.87112589       0.32599451       0.51862290 </v>
    <v>       0.78273612       0.32205852       0.52995738 </v>
    <v>       0.63481580       0.55083849       0.51947573 </v>
    <v>       0.68731326       0.63428177       0.51597417 </v>
    <v>       0.60587452       0.63314409       0.53141800 </v>
    <v>       0.75438937       0.46744641       0.59711784 </v>
    <v>       0.75528493       0.40991020       0.57409853 </v>
    <v>       0.68382518       0.47670412       0.57768616 </v>
    <v>       0.81688008       0.69096216       0.55880366 </v>
    <v>       0.90084835       0.68557717       0.54398832 </v>
    <v>       0.88683801       0.62518689       0.56585622 </v>
    <v>       0.82010738       0.38071695       0.48527678 </v>
    <v>       0.78372502       0.29257670       0.49156469 </v>
    <v>       0.66271700       0.30853935       0.52008547 </v>
    <v>       0.73042019       0.46041571       0.47047426 </v>
    <v>       0.53653955       0.36209544       0.51940363 </v>
    <v>       0.60305295       0.51253370       0.46949127 </v>
    <v>       0.50572067       0.46432211       0.49432543 </v>
    <v>       0.99143122       0.24224729       0.55467362 </v>
    <v>       0.03550770       0.76880995       0.56335719 </v>
    <v>       0.46896267       0.22786831       0.55842651 </v>
    <v>       0.50403636       0.75715116       0.55603693 </v>
    <v>       0.23704564       0.53275844       0.55903564 </v>
    <v>       0.25585710       0.99367985       0.55552450 </v>
    <v>       0.76975511       0.98608382       0.56232335 </v>
    <v>       0.00846233       0.24723900       0.64932818 </v>
    <v>       0.00947341       0.76416824       0.65309175 </v>
    <v>       0.50120014       0.24691347       0.64817762 </v>
    <v>       0.49837400       0.75046301       0.64876941 </v>
    <v>       0.25526699       0.49624365       0.64921927 </v>
    <v>       0.25253595       0.00033211       0.64655370 </v>
    <v>       0.74706132       0.51757292       0.65340168 </v>
    <v>       0.75271852       0.99789998       0.64849250 </v>
    <v>       0.49998898       0.24999498       0.74327702 </v>
    <v>       0.49998903       0.74999496       0.74327702 </v>
    <v>       0.99998898       0.24999498       0.74327702 </v>
    <v>       0.99998903       0.74999496       0.74327702 </v>
    <v>       0.25000050       0.00000100       0.74325596 </v>
    <v>       0.25000052       0.50000100       0.74325596 </v>
    <v>       0.75000050       0.00000100       0.74325596 </v>
    <v>       0.75000049       0.50000100       0.74325596 </v>
    <v>       0.70580318       0.38111877       0.49531608 </v>
    <v>       0.64979902       0.35309757       0.50890709 </v>
    <v>       0.68742986       0.43808902       0.48110209 </v>
    <v>       0.57889209       0.38253158       0.50843611 </v>
    <v>       0.61533799       0.46725196       0.48058825 </v>
    <v>       0.56180295       0.44067262       0.49432144 </v>
    <v>       0.76158264       0.47521539       0.53338970 </v>
    <v>       0.69500397       0.58573148       0.54818221 </v>
    <v>       0.79129911       0.52487511       0.56963981 </v>
    <v>       0.82618544       0.59729872       0.53684657 </v>
    <v>       0.83239747       0.43155213       0.52911547 </v>
    <v>       0.81779240       0.35523467       0.51923538 </v>
    <v>       0.65507705       0.60087154       0.52727514 </v>
    <v>       0.74294785       0.46609881       0.57989803 </v>
    <v>       0.85885149       0.65269851       0.55249295 </v>
    <v>       0.78381758       0.35132291       0.49665753 </v>
    <v>       0.05484435       0.24333529       0.56506889 </v>
    <v>       0.03902796       0.70892653       0.57523157 </v>
    <v>       0.53711717       0.20620928       0.56208337 </v>
    <v>       0.48477412       0.69789820       0.56672645 </v>
    <v>       0.44343253       0.29516263       0.56206091 </v>
    <v>       0.48244925       0.82416902       0.56046244 </v>
    <v>       0.92676280       0.24528202       0.56415898 </v>
    <v>       0.98063957       0.81661832       0.56346927 </v>
    <v>       0.23781551       0.46304694       0.56527596 </v>
    <v>       0.18977616       0.01614589       0.56122431 </v>
    <v>       0.69787136       0.98659864       0.56557925 </v>
    <v>       0.31754181       0.02909391       0.55999824 </v>
    <v>       0.29302480       0.57854202       0.56038131 </v>
    <v>       0.81493046       0.04080222       0.56637836 </v>
    <v>       0.05434050       0.19891139       0.65776340 </v>
    <v>       0.05810488       0.71394606       0.65889314 </v>
    <v>       0.55149199       0.20562049       0.65766071 </v>
    <v>       0.53840509       0.70465789       0.66010395 </v>
    <v>       0.21375106       0.44474636       0.65793354 </v>
    <v>       0.20297069       0.95849447       0.65634960 </v>
    <v>       0.70039346       0.46800153       0.66075869 </v>
    <v>       0.70831750       0.94903590       0.65749973 </v>
    <v>       0.45975005       0.29636267       0.65760956 </v>
    <v>       0.45157610       0.79905622       0.65636401 </v>
    <v>       0.95636835       0.28368852       0.65964237 </v>
    <v>       0.94343928       0.77250056       0.66134572 </v>
    <v>       0.30169262       0.04229042       0.65571282 </v>
    <v>       0.29288463       0.54616874       0.65954567 </v>
    <v>       0.79282270       0.04691139       0.65844322 </v>
    <v>       0.81883474       0.51482105       0.65602410 </v>
    <v>       0.04586250       0.20411950       0.75272599 </v>
    <v>       0.04586250       0.70411946       0.75272599 </v>
    <v>       0.54586251       0.20411950       0.75272599 </v>
    <v>       0.54586250       0.70411946       0.75272599 </v>
    <v>       0.20411900       0.45410100       0.75270499 </v>
    <v>       0.20411899       0.95410095       0.75270499 </v>
    <v>       0.70411898       0.45410100       0.75270499 </v>
    <v>       0.70411896       0.95410095       0.75270499 </v>
    <v>       0.45414002       0.29588849       0.75272697 </v>
    <v>       0.45414001       0.79588852       0.75272697 </v>
    <v>       0.95414002       0.29588849       0.75272697 </v>
    <v>       0.95414006       0.79588852       0.75272697 </v>
    <v>       0.29588249       0.04590050       0.75270499 </v>
    <v>       0.29588248       0.54590053       0.75270499 </v>
    <v>       0.79588244       0.04590050       0.75270499 </v>
    <v>       0.79588248       0.54590053       0.75270499 </v>
    <v>       0.76958988       0.54463370       0.54682312 </v>
    <v>       0.50917273       0.01459141       0.55075689 </v>
    <v>       0.48325454       0.50592454       0.55454475 </v>
    <v>       0.99949810       0.00884060       0.55192698 </v>
    <v>       0.03090414       0.50544645       0.55510657 </v>
    <v>       0.24945142       0.24826655       0.55297083 </v>
    <v>       0.24367391       0.76601415       0.55256657 </v>
    <v>       0.73186475       0.21053406       0.55594872 </v>
    <v>       0.70026294       0.79551365       0.55443145 </v>
    <v>       0.99746431       0.98848348       0.65456781 </v>
    <v>       0.01507068       0.49488142       0.65594626 </v>
    <v>       0.50097575       0.00502446       0.65415531 </v>
    <v>       0.50356023       0.49541177       0.65497701 </v>
    <v>       0.25712078       0.24278250       0.65474259 </v>
    <v>       0.25324727       0.75670850       0.65442398 </v>
    <v>       0.74671151       0.26886098       0.65512047 </v>
    <v>       0.74586370       0.74408499       0.65404622 </v>
    <v>       0.13132171       0.12028091       0.60777262 </v>
    <v>       0.15152382       0.60651240       0.60947438 </v>
    <v>       0.63997894       0.11404820       0.60990483 </v>
    <v>       0.62816579       0.62111476       0.61009450 </v>
    <v>       0.36440665       0.38731112       0.60824818 </v>
    <v>       0.37315804       0.88247543       0.60648538 </v>
    <v>       0.88722233       0.37087076       0.60999621 </v>
    <v>       0.86736134       0.88023939       0.60684947 </v>
    <v>       0.12293808       0.36560155       0.60840556 </v>
    <v>       0.12340563       0.87703832       0.60731697 </v>
    <v>       0.59371513       0.34600874       0.60266638 </v>
    <v>       0.61523414       0.86615444       0.61241076 </v>
    <v>       0.38461759       0.13248285       0.60566515 </v>
    <v>       0.38243713       0.63217588       0.61187873 </v>
    <v>       0.88282691       0.13663198       0.61251106 </v>
    <v>       0.90478898       0.64410864       0.61542784 </v>
    <v>       0.00000000       0.00000000       0.75492797 </v>
    <v>       0.00000000       0.50000000       0.75492797 </v>
    <v>       0.50000000       0.00000000       0.75492797 </v>
    <v>       0.49999999       0.50000000       0.75492797 </v>
    <v>       0.25000050       0.25000000       0.75493902 </v>
    <v>       0.25000051       0.74999997       0.75493902 </v>
    <v>       0.75000047       0.25000000       0.75493902 </v>
    <v>       0.75000046       0.74999997       0.75493902 </v>
    <v>       0.13579050       0.11421000       0.70478299 </v>
    <v>       0.13579050       0.61420998       0.70478299 </v>
    <v>       0.63579045       0.11421000       0.70478299 </v>
    <v>       0.63579049       0.61420998       0.70478299 </v>
    <v>       0.36420952       0.38578999       0.70478299 </v>
    <v>       0.36420950       0.88578996       0.70478299 </v>
    <v>       0.86420954       0.38578999       0.70478299 </v>
    <v>       0.86420953       0.88578996       0.70478299 </v>
    <v>       0.11421799       0.36421899       0.70478098 </v>
    <v>       0.11421799       0.86421899       0.70478098 </v>
    <v>       0.61421800       0.36421899       0.70478098 </v>
    <v>       0.61421799       0.86421899       0.70478098 </v>
    <v>       0.38578201       0.13578149       0.70478202 </v>
    <v>       0.38578200       0.63578149       0.70478202 </v>
    <v>       0.88578199       0.13578149       0.70478202 </v>
    <v>       0.88578203       0.63578149       0.70478202 </v>
    <v>       0.13466700       0.11533200       0.80125603 </v>
    <v>       0.13466699       0.61533199       0.80125603 </v>
    <v>       0.63466699       0.11533200       0.80125603 </v>
    <v>       0.63466698       0.61533199       0.80125603 </v>
    <v>       0.36533300       0.38466799       0.80125603 </v>
    <v>       0.36533299       0.88466796       0.80125603 </v>
    <v>       0.86533295       0.38466799       0.80125603 </v>
    <v>       0.86533294       0.88466796       0.80125603 </v>
    <v>       0.11532850       0.36533700       0.80126500 </v>
    <v>       0.11532850       0.86533698       0.80126500 </v>
    <v>       0.61532850       0.36533700       0.80126500 </v>
    <v>       0.61532849       0.86533698       0.80126500 </v>
    <v>       0.38467151       0.13466300       0.80126500 </v>
    <v>       0.38467150       0.63466297       0.80126500 </v>
    <v>       0.88467149       0.13466300       0.80126500 </v>
    <v>       0.88467153       0.63466297       0.80126500 </v>
    <v>       0.99651278       0.00332781       0.60501102 </v>
    <v>       0.00601502       0.50527185       0.60502299 </v>
    <v>       0.50214700       0.00428534       0.60420874 </v>
    <v>       0.50272089       0.50073236       0.60449682 </v>
    <v>       0.25206578       0.25284094       0.60431588 </v>
    <v>       0.24730161       0.75248970       0.60381993 </v>
    <v>       0.74630648       0.25595080       0.60520338 </v>
    <v>       0.74172841       0.75734387       0.60317045 </v>
    <v>       0.00000050       0.00000050       0.70482896 </v>
    <v>       0.00000050       0.50000048       0.70482896 </v>
    <v>       0.50000048       0.00000050       0.70482896 </v>
    <v>       0.50000046       0.50000048       0.70482896 </v>
    <v>       0.24999999       0.24999947       0.70482499 </v>
    <v>       0.25000001       0.74999950       0.70482499 </v>
    <v>       0.74999999       0.24999947       0.70482499 </v>
    <v>       0.74999998       0.74999950       0.70482499 </v>
    <v>       0.00000000       0.00000000       0.80731797 </v>
    <v>       0.00000000       0.50000000       0.80731797 </v>
    <v>       0.50000000       0.00000000       0.80731797 </v>
    <v>       0.49999999       0.50000000       0.80731797 </v>
    <v>       0.24999999       0.25000000       0.80731797 </v>
    <v>       0.25000001       0.74999997       0.80731797 </v>
    <v>       0.74999999       0.25000000       0.80731797 </v>
    <v>       0.74999998       0.74999997       0.80731797 </v>
   </varray>
  </structure>
  <varray name="primitive_index" >
   <v type="int" >        1 </v>
   <v type="int" >        2 </v>
   <v type="int" >        3 </v>
   <v type="int" >        4 </v>
   <v type="int" >        5 </v>
   <v type="int" >        6 </v>
   <v type="int" >        7 </v>
   <v type="int" >        8 </v>
   <v type="int" >        9 </v>
   <v type="int" >       10 </v>
   <v type="int" >       11 </v>
   <v type="int" >       12 </v>
   <v type="int" >       13 </v>
   <v type="int" >       14 </v>
   <v type="int" >       15 </v>
   <v type="int" >       16 </v>
   <v type="int" >       17 </v>
   <v type="int" >       18 </v>
   <v type="int" >       19 </v>
   <v type="int" >       20 </v>
   <v type="int" >       21 </v>
   <v type="int" >       22 </v>
   <v type="int" >       23 </v>
   <v type="int" >       24 </v>
   <v type="int" >       25 </v>
   <v type="int" >       26 </v>
   <v type="int" >       27 </v>
   <v type="int" >       28 </v>
   <v type="int" >       29 </v>
   <v type="int" >       30 </v>
   <v type="int" >       31 </v>
   <v type="int" >       32 </v>
   <v type="int" >       33 </v>
   <v type="int" >       34 </v>
   <v type="int" >       35 </v>
   <v type="int" >       36 </v>
   <v type="int" >       37 </v>
   <v type="int" >       38 </v>
   <v type="int" >       39 </v>
   <v type="int" >       40 </v>
   <v type="int" >       41 </v>
   <v type="int" >       42 </v>
   <v type="int" >       43 </v>
   <v type="int" >       44 </v>
   <v type="int" >       45 </v>
   <v type="int" >       46 </v>
   <v type="int" >       47 </v>
   <v type="int" >       48 </v>
   <v type="int" >       49 </v>
   <v type="int" >       50 </v>
   <v type="int" >       51 </v>
   <v type="int" >       52 </v>
   <v type="int" >       53 </v>
   <v type="int" >       54 </v>
   <v type="int" >       55 </v>
   <v type="int" >       56 </v>
   <v type="int" >       57 </v>
   <v type="int" >       58 </v>
   <v type="int" >       59 </v>
   <v type="int" >       60 </v>
   <v type="int" >       61 </v>
   <v type="int" >       62 </v>
   <v type="int" >       63 </v>
   <v type="int" >       64 </v>
   <v type="int" >       65 </v>
   <v type="int" >       66 </v>
   <v type="int" >       67 </v>
   <v type="int" >       68 </v>
   <v type="int" >       69 </v>
   <v type="int" >       70 </v>
   <v type="int" >       71 </v>
   <v type="int" >       72 </v>
   <v type="int" >       73 </v>
   <v type="int" >       74 </v>
   <v type="int" >       75 </v>
   <v type="int" >       76 </v>
   <v type="int" >       77 </v>
   <v type="int" >       78 </v>
   <v type="int" >       79 </v>
   <v type="int" >       80 </v>
   <v type="int" >       81 </v>
   <v type="int" >       82 </v>
   <v type="int" >       83 </v>
   <v type="int" >       84 </v>
   <v type="int" >       85 </v>
   <v type="int" >       86 </v>
   <v type="int" >       87 </v>
   <v type="int" >       88 </v>
   <v type="int" >       89 </v>
   <v type="int" >       90 </v>
   <v type="int" >       91 </v>
   <v type="int" >       92 </v>
   <v type="int" >       93 </v>
   <v type="int" >       94 </v>
   <v type="int" >       95 </v>
   <v type="int" >       96 </v>
   <v type="int" >       97 </v>
   <v type="int" >       98 </v>
   <v type="int" >       99 </v>
   <v type="int" >      100 </v>
   <v type="int" >      101 </v>
   <v type="int" >      102 </v>
   <v type="int" >      103 </v>
   <v type="int" >      104 </v>
   <v type="int" >      105 </v>
   <v type="int" >      106 </v>
   <v type="int" >      107 </v>
   <v type="int" >      108 </v>
   <v type="int" >      109 </v>
   <v type="int" >      110 </v>
   <v type="int" >      111 </v>
   <v type="int" >      112 </v>
   <v type="int" >      113 </v>
   <v type="int" >      114 </v>
   <v type="int" >      115 </v>
   <v type="int" >      116 </v>
   <v type="int" >      117 </v>
   <v type="int" >      118 </v>
   <v type="int" >      119 </v>
   <v type="int" >      120 </v>
   <v type="int" >      121 </v>
   <v type="int" >      122 </v>
   <v type="int" >      123 </v>
   <v type="int" >      124 </v>
   <v type="int" >      125 </v>
   <v type="int" >      126 </v>
   <v type="int" >      127 </v>
   <v type="int" >      128 </v>
   <v type="int" >      129 </v>
   <v type="int" >      130 </v>
   <v type="int" >      131 </v>
   <v type="int" >      132 </v>
   <v type="int" >      133 </v>
   <v type="int" >      134 </v>
   <v type="int" >      135 </v>
   <v type="int" >      136 </v>
   <v type="int" >      137 </v>
   <v type="int" >      138 </v>
   <v type="int" >      139 </v>
   <v type="int" >      140 </v>
   <v type="int" >      141 </v>
   <v type="int" >      142 </v>
   <v type="int" >      143 </v>
   <v type="int" >      144 </v>
   <v type="int" >      145 </v>
   <v type="int" >      146 </v>
   <v type="int" >      147 </v>
   <v type="int" >      148 </v>
   <v type="int" >      149 </v>
   <v type="int" >      150 </v>
   <v type="int" >      151 </v>
   <v type="int" >      152 </v>
   <v type="int" >      153 </v>
   <v type="int" >      154 </v>
   <v type="int" >      155 </v>
   <v type="int" >      156 </v>
   <v type="int" >      157 </v>
   <v type="int" >      158 </v>
   <v type="int" >      159 </v>
   <v type="int" >      160 </v>
   <v type="int" >      161 </v>
   <v type="int" >      162 </v>
   <v type="int" >      163 </v>
   <v type="int" >      164 </v>
   <v type="int" >      165 </v>
   <v type="int" >      166 </v>
   <v type="int" >      167 </v>
   <v type="int" >      168 </v>
   <v type="int" >      169 </v>
   <v type="int" >      170 </v>
   <v type="int" >      171 </v>
   <v type="int" >      172 </v>
   <v type="int" >      173 </v>
   <v type="int" >      174 </v>
   <v type="int" >      175 </v>
   <v type="int" >      176 </v>
   <v type="int" >      177 </v>
   <v type="int" >      178 </v>
   <v type="int" >      179 </v>
   <v type="int" >      180 </v>
   <v type="int" >      181 </v>
   <v type="int" >      182 </v>
   <v type="int" >      183 </v>
   <v type="int" >      184 </v>
   <v type="int" >      185 </v>
   <v type="int" >      186 </v>
   <v type="int" >      187 </v>
   <v type="int" >      188 </v>
   <v type="int" >      189 </v>
   <v type="int" >      190 </v>
   <v type="int" >      191 </v>
   <v type="int" >      192 </v>
   <v type="int" >      193 </v>
   <v type="int" >      194 </v>
   <v type="int" >      195 </v>
   <v type="int" >      196 </v>
   <v type="int" >      197 </v>
   <v type="int" >      198 </v>
   <v type="int" >      199 </v>
   <v type="int" >      200 </v>
   <v type="int" >      201 </v>
   <v type="int" >      202 </v>
   <v type="int" >      203 </v>
   <v type="int" >      204 </v>
   <v type="int" >      205 </v>
   <v type="int" >      206 </v>
   <v type="int" >      207 </v>
   <v type="int" >      208 </v>
   <v type="int" >      209 </v>
   <v type="int" >      210 </v>
   <v type="int" >      211 </v>
   <v type="int" >      212 </v>
   <v type="int" >      213 </v>
   <v type="int" >      214 </v>
   <v type="int" >      215 </v>
   <v type="int" >      216 </v>
   <v type="int" >      217 </v>
   <v type="int" >      218 </v>
   <v type="int" >      219 </v>
   <v type="int" >      220 </v>
   <v type="int" >      221 </v>
   <v type="int" >      222 </v>
   <v type="int" >      223 </v>
   <v type="int" >      224 </v>
   <v type="int" >      225 </v>
   <v type="int" >      226 </v>
   <v type="int" >      227 </v>
   <v type="int" >      228 </v>
   <v type="int" >      229 </v>
   <v type="int" >      230 </v>
   <v type="int" >      231 </v>
   <v type="int" >      232 </v>
   <v type="int" >      233 </v>
   <v type="int" >      234 </v>
   <v type="int" >      235 </v>
   <v type="int" >      236 </v>
   <v type="int" >      237 </v>
   <v type="int" >      238 </v>
   <v type="int" >      239 </v>
   <v type="int" >      240 </v>
   <v type="int" >      241 </v>
   <v type="int" >      242 </v>
   <v type="int" >      243 </v>
   <v type="int" >      244 </v>
   <v type="int" >      245 </v>
   <v type="int" >      246 </v>
   <v type="int" >      247 </v>
   <v type="int" >      248 </v>
   <v type="int" >      249 </v>
   <v type="int" >      250 </v>
   <v type="int" >      251 </v>
   <v type="int" >      252 </v>
   <v type="int" >      253 </v>
   <v type="int" >      254 </v>
   <v type="int" >      255 </v>
   <v type="int" >      256 </v>
   <v type="int" >      257 </v>
   <v type="int" >      258 </v>
   <v type="int" >      259 </v>
   <v type="int" >      260 </v>
   <v type="int" >      261 </v>
   <v type="int" >      262 </v>
   <v type="int" >      263 </v>
   <v type="int" >      264 </v>
   <v type="int" >      265 </v>
   <v type="int" >      266 </v>
   <v type="int" >      267 </v>
   <v type="int" >      268 </v>
   <v type="int" >      269 </v>
   <v type="int" >      270 </v>
   <v type="int" >      271 </v>
   <v type="int" >      272 </v>
   <v type="int" >      273 </v>
   <v type="int" >      274 </v>
   <v type="int" >      275 </v>
   <v type="int" >      276 </v>
   <v type="int" >      277 </v>
   <v type="int" >      278 </v>
   <v type="int" >      279 </v>
   <v type="int" >      280 </v>
   <v type="int" >      281 </v>
   <v type="int" >      282 </v>
   <v type="int" >      283 </v>
   <v type="int" >      284 </v>
   <v type="int" >      285 </v>
   <v type="int" >      286 </v>
   <v type="int" >      287 </v>
   <v type="int" >      288 </v>
   <v type="int" >      289 </v>
   <v type="int" >      290 </v>
   <v type="int" >      291 </v>
   <v type="int" >      292 </v>
   <v type="int" >      293 </v>
   <v type="int" >      294 </v>
   <v type="int" >      295 </v>
   <v type="int" >      296 </v>
   <v type="int" >      297 </v>
   <v type="int" >      298 </v>
   <v type="int" >      299 </v>
   <v type="int" >      300 </v>
   <v type="int" >      301 </v>
   <v type="int" >      302 </v>
   <v type="int" >      303 </v>
   <v type="int" >      304 </v>
   <v type="int" >      305 </v>
   <v type="int" >      306 </v>
   <v type="int" >      307 </v>
   <v type="int" >      308 </v>
   <v type="int" >      309 </v>
   <v type="int" >      310 </v>
   <v type="int" >      311 </v>
   <v type="int" >      312 </v>
   <v type="int" >      313 </v>
   <v type="int" >      314 </v>
   <v type="int" >      315 </v>
   <v type="int" >      316 </v>
   <v type="int" >      317 </v>
   <v type="int" >      318 </v>
   <v type="int" >      319 </v>
   <v type="int" >      320 </v>
   <v type="int" >      321 </v>
   <v type="int" >      322 </v>
   <v type="int" >      323 </v>
   <v type="int" >      324 </v>
   <v type="int" >      325 </v>
  </varray>
 </primitive_cell>
 <kpoints>
  <generation param="Gamma">
   <v type="int" name="divisions">       3        3        1 </v>
   <v name="usershift">      0.00000000       0.00000000       0.00000000 </v>
   <v name="genvec1">      0.33333333       0.00000000       0.00000000 </v>
   <v name="genvec2">      0.00000000       0.33333333       0.00000000 </v>
   <v name="genvec3">      0.00000000       0.00000000       1.00000000 </v>
   <v name="shift">      0.00000000       0.00000000       0.00000000 </v>
  </generation>
  <varray name="kpointlist" >
   <v>       0.00000000       0.00000000       0.00000000 </v>
   <v>       0.33333333       0.00000000       0.00000000 </v>
   <v>       0.00000000       0.33333333       0.00000000 </v>
   <v>       0.33333333       0.33333333       0.00000000 </v>
   <v>      -0.33333333       0.33333333       0.00000000 </v>
  </varray>
  <varray name="weights" >
   <v>       0.11111111 </v>
   <v>       0.22222222 </v>
   <v>       0.22222222 </v>
   <v>       0.22222222 </v>
   <v>       0.22222222 </v>
  </varray>
 </kpoints>
 <parameters>
  <separator name="general" >
   <i type="string" name="SYSTEM">PSC</i>
   <i type="logical" name="LCOMPAT"> F  </i>
  </separator>
  <separator name="electronic" >
   <i type="string" name="PREC">normal</i>
   <i name="ENMAX">    500.00000000</i>
   <i name="ENAUG">    644.87300000</i>
   <i name="EDIFF">      0.00010000</i>
   <i type="int" name="IALGO">    38</i>
   <i type="int" name="IWAVPR">    10</i>
   <i type="int" name="NBANDS">   732</i>
   <i type="int" name="NBANDSLOW">    -1</i>
   <i type="int" name="NBANDSHIGH">    -1</i>
   <i name="NELECT">   1134.00000000</i>
   <i type="int" name="TURBO">     0</i>
   <i type="int" name="IRESTART">     0</i>
   <i type="int" name="NREBOOT">     0</i>
   <i type="int" name="NMIN">     0</i>
   <i name="EREF">      0.00000000</i>
   <separator name="electronic smearing" >
    <i type="int" name="ISMEAR">     0</i>
    <i name="SIGMA">      0.05000000</i>
    <i name="KSPACING">      0.50000000</i>
    <i type="logical" name="KGAMMA"> T  </i>
    <i type="logical" name="KBLOWUP"> T  </i>
   </separator>
   <separator name="electronic projectors" >
    <i type="logical" name="LREAL"> T  </i>
    <v name="ROPT">     -0.00050000     -0.00050000     -0.00050000     -0.00050000     -0.00050000</v>
    <i type="int" name="LMAXPAW">  -100</i>
    <i type="int" name="LMAXMIX">     2</i>
    <i type="logical" name="NLSPLINE"> F  </i>
   </separator>
   <separator name="electronic startup" >
    <i type="int" name="ISTART">     0</i>
    <i type="int" name="ICHARG">     1</i>
    <i type="int" name="INIWAV">     1</i>
   </separator>
   <separator name="electronic spin" >
    <i type="int" name="ISPIN">     1</i>
    <i type="logical" name="LNONCOLLINEAR"> F  </i>
    <v name="MAGMOM">      1.00000000      1.00000000      1.00000000      1.00000000      1.00000000      1.00000000      1.00000000      1.00000000      1.00000000      1.00000000      1.00000000      1.00000000      1.00000000      1.00000000      1.00000000      1.00000000      1.00000000      1.00000000      1.00000000      1.00000000
      1.00000000      1.00000000      1.00000000      1.00000000      1.00000000      1.00000000      1.00000000      1.00000000      1.00000000      1.00000000      1.00000000      1.00000000      1.00000000      1.00000000      1.00000000      1.00000000      1.00000000      1.00000000      1.00000000      1.00000000
      1.00000000      1.00000000      1.00000000      1.00000000      1.00000000      1.00000000      1.00000000      1.00000000      1.00000000      1.00000000      1.00000000      1.00000000      1.00000000      1.00000000      1.00000000      1.00000000      1.00000000      1.00000000      1.00000000      1.00000000
      1.00000000      1.00000000      1.00000000      1.00000000      1.00000000      1.00000000      1.00000000      1.00000000      1.00000000      1.00000000      1.00000000      1.00000000      1.00000000      1.00000000      1.00000000      1.00000000      1.00000000      1.00000000      1.00000000      1.00000000
      1.00000000      1.00000000      1.00000000      1.00000000      1.00000000      1.00000000      1.00000000      1.00000000      1.00000000      1.00000000      1.00000000      1.00000000      1.00000000      1.00000000      1.00000000      1.00000000      1.00000000      1.00000000      1.00000000      1.00000000
      1.00000000      1.00000000      1.00000000      1.00000000      1.00000000      1.00000000      1.00000000      1.00000000      1.00000000      1.00000000      1.00000000      1.00000000      1.00000000      1.00000000      1.00000000      1.00000000      1.00000000      1.00000000      1.00000000      1.00000000
      1.00000000      1.00000000      1.00000000      1.00000000      1.00000000      1.00000000      1.00000000      1.00000000      1.00000000      1.00000000      1.00000000      1.00000000      1.00000000      1.00000000      1.00000000      1.00000000      1.00000000      1.00000000      1.00000000      1.00000000
      1.00000000      1.00000000      1.00000000      1.00000000      1.00000000      1.00000000      1.00000000      1.00000000      1.00000000      1.00000000      1.00000000      1.00000000      1.00000000      1.00000000      1.00000000      1.00000000      1.00000000      1.00000000      1.00000000      1.00000000
      1.00000000      1.00000000      1.00000000      1.00000000      1.00000000      1.00000000      1.00000000      1.00000000      1.00000000      1.00000000      1.00000000      1.00000000      1.00000000      1.00000000      1.00000000      1.00000000      1.00000000      1.00000000      1.00000000      1.00000000
      1.00000000      1.00000000      1.00000000      1.00000000      1.00000000      1.00000000      1.00000000      1.00000000      1.00000000      1.00000000      1.00000000      1.00000000      1.00000000      1.00000000      1.00000000      1.00000000      1.00000000      1.00000000      1.00000000      1.00000000
      1.00000000      1.00000000      1.00000000      1.00000000      1.00000000      1.00000000      1.00000000      1.00000000      1.00000000      1.00000000      1.00000000      1.00000000      1.00000000      1.00000000      1.00000000      1.00000000      1.00000000      1.00000000      1.00000000      1.00000000
      1.00000000      1.00000000      1.00000000      1.00000000      1.00000000      1.00000000      1.00000000      1.00000000      1.00000000      1.00000000      1.00000000      1.00000000      1.00000000      1.00000000      1.00000000      1.00000000      1.00000000      1.00000000      1.00000000      1.00000000
      1.00000000      1.00000000      1.00000000      1.00000000      1.00000000      1.00000000      1.00000000      1.00000000      1.00000000      1.00000000      1.00000000      1.00000000      1.00000000      1.00000000      1.00000000      1.00000000      1.00000000      1.00000000      1.00000000      1.00000000
      1.00000000      1.00000000      1.00000000      1.00000000      1.00000000      1.00000000      1.00000000      1.00000000      1.00000000      1.00000000      1.00000000      1.00000000      1.00000000      1.00000000      1.00000000      1.00000000      1.00000000      1.00000000      1.00000000      1.00000000
      1.00000000      1.00000000      1.00000000      1.00000000      1.00000000      1.00000000      1.00000000      1.00000000      1.00000000      1.00000000      1.00000000      1.00000000      1.00000000      1.00000000      1.00000000      1.00000000      1.00000000      1.00000000      1.00000000      1.00000000
      1.00000000      1.00000000      1.00000000      1.00000000      1.00000000      1.00000000      1.00000000      1.00000000      1.00000000      1.00000000      1.00000000      1.00000000      1.00000000      1.00000000      1.00000000      1.00000000      1.00000000      1.00000000      1.00000000      1.00000000
      1.00000000      1.00000000      1.00000000      1.00000000      1.00000000</v>
    <i name="NUPDOWN">     -1.00000000</i>
    <i type="logical" name="LSORBIT"> F  </i>
    <v name="SAXIS">      0.00000000      0.00000000      1.00000000</v>
    <i type="logical" name="LSPIRAL"> F  </i>
    <v name="QSPIRAL">      0.00000000      0.00000000      0.00000000</v>
    <i type="logical" name="LZEROZ"> F  </i>
   </separator>
   <separator name="electronic exchange-correlation" >
    <i type="logical" name="LASPH"> F  </i>
    <i type="logical" name="LMETAGGA"> F  </i>
   </separator>
   <separator name="electronic convergence" >
    <i type="int" name="NELM">   600</i>
    <i type="int" name="NELMDL">     0</i>
    <i type="int" name="NELMIN">     2</i>
    <i name="ENINI">    500.00000000</i>
    <separator name="electronic convergence detail" >
     <i type="logical" name="LDIAG"> T  </i>
     <i type="logical" name="LSUBROT"> F  </i>
     <i name="WEIMIN">      0.00000000</i>
     <i name="EBREAK">      0.00000003</i>
     <i name="DEPER">      0.30000000</i>
     <i type="int" name="NRMM">     4</i>
     <i name="TIME">      0.40000000</i>
    </separator>
   </separator>
   <separator name="electronic mixer" >
    <i name="AMIX">      0.40000000</i>
    <i name="BMIX">      0.01000000</i>
    <i name="AMIN">      0.01000000</i>
    <i name="AMIX_MAG">      1.60000000</i>
    <i name="BMIX_MAG">      0.01000000</i>
    <separator name="electronic mixer details" >
     <i type="int" name="IMIX">     4</i>
     <i type="logical" name="MIXFIRST"> F  </i>
     <i type="int" name="MAXMIX">   -45</i>
     <i name="WC">    100.00000000</i>
     <i type="int" name="INIMIX">     1</i>
     <i type="int" name="MIXPRE">     1</i>
     <i type="int" name="MREMOVE">     5</i>
    </separator>
   </separator>
   <separator name="electronic dipolcorrection" >
    <i type="logical" name="LDIPOL"> T  </i>
    <i type="logical" name="LMONO"> F  </i>
    <i type="int" name="IDIPOL">     3</i>
    <i name="EPSILON">      1.00000000</i>
    <v name="DIPOL">   -100.00000000   -100.00000000   -100.00000000</v>
    <i name="EFIELD">      0.00000000</i>
   </separator>
  </separator>
  <separator name="grids" >
   <i type="int" name="NGX">   100</i>
   <i type="int" name="NGY">   100</i>
   <i type="int" name="NGZ">   350</i>
   <i type="int" name="NGXF">   200</i>
   <i type="int" name="NGYF">   200</i>
   <i type="int" name="NGZF">   700</i>
   <i type="logical" name="ADDGRID"> F  </i>
  </separator>
  <separator name="ionic" >
   <i type="int" name="NSW">     0</i>
   <i type="int" name="IBRION">    -1</i>
   <i type="int" name="MDALGO">     0</i>
   <i type="int" name="ISIF">     2</i>
   <i name="PSTRESS">      0.00000000</i>
   <i name="EDIFFG">      0.00100000</i>
   <i type="int" name="NFREE">     0</i>
   <i name="POTIM">      0.50000000</i>
   <i name="SMASS">     -3.00000000</i>
   <i name="SCALEE">      1.00000000</i>
  </separator>
  <separator name="ionic md" >
   <i name="TEBEG">      0.00010000</i>
   <i name="TEEND">      0.00010000</i>
   <i type="int" name="NBLOCK">     1</i>
   <i type="int" name="KBLOCK">     1</i>
   <i type="int" name="NPACO">   256</i>
   <i name="APACO">     16.00000000</i>
  </separator>
  <separator name="symmetry" >
   <i type="int" name="ISYM">     0</i>
   <i name="SYMPREC">      0.00001000</i>
  </separator>
  <separator name="dos" >
   <i type="int" name="LORBIT">     0</i>
   <v name="RWIGS">     -1.00000000     -1.00000000     -1.00000000     -1.00000000     -1.00000000</v>
   <i type="int" name="NEDOS">   301</i>
   <i name="EMIN">     10.00000000</i>
   <i name="EMAX">    -10.00000000</i>
   <i name="EFERMI">      0.00000000</i>
  </separator>
  <separator name="writing" >
   <i type="int" name="NWRITE">     2</i>
   <i type="logical" name="LWAVE"> F  </i>
   <i type="logical" name="LDOWNSAMPLE"> F  </i>
   <i type="logical" name="LCHARG"> T  </i>
   <i type="logical" name="LPARD"> F  </i>
   <i type="logical" name="LVTOT"> T  </i>
   <i type="logical" name="LVHAR"> F  </i>
   <i type="logical" name="LELF"> F  </i>
   <i type="logical" name="LOPTICS"> F  </i>
   <v name="STM">      0.00000000      0.00000000      0.00000000      0.00000000      0.00000000      0.00000000      0.00000000</v>
  </separator>
  <separator name="performance" >
   <i type="int" name="NPAR">     4</i>
   <i type="int" name="NSIM">     4</i>
   <i type="int" name="NBLK">    -1</i>
   <i type="logical" name="LPLANE"> T  </i>
   <i type="logical" name="LSCALAPACK"> T  </i>
   <i type="logical" name="LSCAAWARE"> F  </i>
   <i type="logical" name="LSCALU"> F  </i>
   <i type="logical" name="LASYNC"> F  </i>
   <i type="logical" name="LORBITALREAL"> F  </i>
  </separator>
  <separator name="miscellaneous" >
   <i type="int" name="IDIOT">     3</i>
   <i type="int" name="PHON_NSTRUCT">    -1</i>
   <i type="logical" name="LMUSIC"> F  </i>
   <v name="POMASS">      1.00000000     12.01100000     14.00100000    126.90400000    207.20000000</v>
   <v name="DARWINR">      0.00000000      0.00000000      0.00000000      0.00000000      0.00000000</v>
   <v name="DARWINV">      1.00000000      1.00000000      1.00000000      1.00000000      1.00000000</v>
   <i type="logical" name="LCORR"> T  </i>
  </separator>
  <i type="logical" name="GGA_COMPAT"> F  </i>
  <i type="logical" name="LBERRY"> F  </i>
  <i type="int" name="ICORELEVEL">     0</i>
  <i type="logical" name="LDAU"> F  </i>
  <i type="int" name="I_CONSTRAINED_M">     0</i>
  <separator name="electronic exchange-correlation" >
   <i type="string" name="GGA">--</i>
   <i type="int" name="VOSKOWN">     0</i>
   <i type="logical" name="LHFCALC"> F  </i>
   <i type="string" name="PRECFOCK"></i>
   <i type="logical" name="LSYMGRAD"> F  </i>
   <i type="logical" name="LHFONE"> F  </i>
   <i type="logical" name="LRHFCALC"> F  </i>
   <i type="logical" name="LTHOMAS"> F  </i>
   <i type="logical" name="LMODELHF"> F  </i>
   <i type="logical" name="LFOCKACE"> F  </i>
   <i name="ENCUT4O">     -1.00000000</i>
   <i type="int" name="EXXOEP">     0</i>
   <i type="int" name="FOURORBIT">     0</i>
   <i name="AEXX">      0.00000000</i>
   <i name="HFALPHA">      0.00000000</i>
   <i name="MCALPHA">      0.00000000</i>
   <i name="ALDAX">      1.00000000</i>
   <i name="AGGAX">      1.00000000</i>
   <i name="ALDAC">      1.00000000</i>
   <i name="AGGAC">      1.00000000</i>
   <i type="int" name="NKREDX">     1</i>
   <i type="int" name="NKREDY">     1</i>
   <i type="int" name="NKREDZ">     1</i>
   <i type="logical" name="SHIFTRED"> F  </i>
   <i type="logical" name="ODDONLY"> F  </i>
   <i type="logical" name="EVENONLY"> F  </i>
   <i type="int" name="LMAXFOCK">     0</i>
   <i type="int" name="NMAXFOCKAE">     0</i>
   <i type="logical" name="LFOCKAEDFT"> F  </i>
   <i name="HFSCREEN">      0.00000000</i>
   <i name="HFSCREENC">      0.00000000</i>
   <i type="int" name="NBANDSGWLOW">     0</i>
  </separator>
  <separator name="vdW DFT" >
   <i type="logical" name="LUSE_VDW"> F  </i>
   <i name="Zab_VDW">     -0.84910000</i>
   <i name="PARAM1">      0.12340000</i>
   <i name="PARAM2">      1.00000000</i>
   <i name="PARAM3">      0.00000000</i>
  </separator>
  <separator name="model GW" >
   <i type="int" name="MODEL_GW">     0</i>
   <i name="MODEL_EPS0">     37.63423484</i>
   <i name="MODEL_ALPHA">      1.00000000</i>
  </separator>
  <separator name="linear response parameters" >
   <i type="logical" name="LEPSILON"> F  </i>
   <i type="logical" name="LRPA"> F  </i>
   <i type="logical" name="LNABLA"> F  </i>
   <i type="logical" name="LVEL"> F  </i>
   <i type="int" name="KINTER">     0</i>
   <i name="CSHIFT">      0.10000000</i>
   <i name="OMEGAMAX">     -1.00000000</i>
   <i name="DEG_THRESHOLD">      0.00200000</i>
   <i name="RTIME">     -0.10000000</i>
   <i name="WPLASMAI">      0.00000000</i>
   <v name="DFIELD">      0.00000000      0.00000000      0.00000000</v>
   <v name="WPLASMA">      0.00000000      0.00000000      0.00000000      0.00000000      0.00000000      0.00000000      0.00000000      0.00000000      0.00000000</v>
  </separator>
  <separator name="orbital magnetization" >
   <i type="logical" name="NUCIND"> F  </i>
   <v name="MAGPOS">      0.00000000      0.00000000      0.00000000</v>
   <i type="logical" name="LNICSALL"> T  </i>
   <i type="logical" name="ORBITALMAG"> F  </i>
   <i type="logical" name="LMAGBLOCH"> F  </i>
   <i type="logical" name="LCHIMAG"> F  </i>
   <i type="logical" name="LGAUGE"> T  </i>
   <i type="int" name="MAGATOM">     0</i>
   <v name="MAGDIPOL">      0.00000000      0.00000000      0.00000000</v>
   <v name="AVECCONST">      0.00000000      0.00000000      0.00000000</v>
  </separator>
  <separator name="response functions" >
   <i type="logical" name="LFINITE_TEMPERATURE"> F  </i>
   <i type="logical" name="LADDER"> F  </i>
   <i type="logical" name="LRPAFORCE"> F  </i>
   <i type="logical" name="LFXC"> F  </i>
   <i type="logical" name="LHARTREE"> T  </i>
   <i type="int" name="IBSE">     0</i>
   <v type="int" name="KPOINT">    -1     0     0     0</v>
   <i type="logical" name="LTCTC"> F  </i>
   <i type="logical" name="LTCTE"> F  </i>
   <i type="logical" name="LTETE"> F  </i>
   <i type="logical" name="LTRIPLET"> F  </i>
   <i type="logical" name="LFXCEPS"> F  </i>
   <i type="logical" name="LFXHEG"> F  </i>
   <i type="int" name="NATURALO">     2</i>
   <i type="logical" name="LHOLEGF"> F  </i>
   <i type="logical" name="L2ORDER"> F  </i>
   <i type="logical" name="LDMP1"> F  </i>
   <i type="logical" name="LMP2LT"> F  </i>
   <i type="logical" name="LSMP2LT"> F  </i>
   <i type="logical" name="LGWLF"> F  </i>
   <i name="ENCUTGW">     -2.00000000</i>
   <i name="ENCUTGWSOFT">     -2.00000000</i>
   <i name="ENCUTLF">     -1.00000000</i>
   <i type="logical" name="LESF_SPLINES"> F  </i>
   <i type="int" name="LMAXMP2">    -1</i>
   <i name="SCISSOR">      0.00000000</i>
   <i type="int" name="NOMEGA">     0</i>
   <i type="int" name="NOMEGAR">     0</i>
   <i type="int" name="NBANDSGW">    -1</i>
   <i type="int" name="NBANDSO">    -1</i>
   <i type="int" name="NBANDSV">    -1</i>
   <i type="int" name="NELM">   600</i>
   <i type="int" name="NELMHF">     1</i>
   <i type="int" name="DIM">     3</i>
   <i type="int" name="IESPILON">     4</i>
   <i type="int" name="ANTIRES">     0</i>
   <i name="OMEGAMAX">    -30.00000000</i>
   <i name="OMEGAMIN">    -30.00000000</i>
   <i name="OMEGATL">   -200.00000000</i>
   <i type="int" name="OMEGAGRID">     0</i>
   <i name="CSHIFT">     -0.10000000</i>
   <i type="logical" name="LSELFENERGY"> F  </i>
   <i type="logical" name="LSPECTRAL"> F  </i>
   <i type="logical" name="LSPECTRALGW"> F  </i>
   <i type="logical" name="LSINGLES"> F  </i>
   <i type="logical" name="LFERMIGW"> F  </i>
   <i type="logical" name="ODDONLYGW"> F  </i>
   <i type="logical" name="EVENONLYGW"> F  </i>
   <i type="int" name="NKREDLFX">     1</i>
   <i type="int" name="NKREDLFY">     1</i>
   <i type="int" name="NKREDLFZ">     1</i>
   <i type="int" name="MAXMEM">  2800</i>
   <i type="int" name="TELESCOPE">     0</i>
   <i type="int" name="NTAUPAR">    -1</i>
   <i type="int" name="NOMEGAPAR">    -1</i>
   <i name="DAMP_NEWTON">      0.80000001</i>
   <i name="LAMBDA">      1.00000000</i>
  </separator>
  <separator name="External order field" >
   <i name="OFIELD_KAPPA">      0.00000000</i>
   <v name="OFIELD_K">      0.00000000      0.00000000      0.00000000</v>
   <i name="OFIELD_Q6_NEAR">      0.00000000</i>
   <i name="OFIELD_Q6_FAR">      0.00000000</i>
   <i name="OFIELD_A">      0.00000000</i>
  </separator>
 </parameters>
 <atominfo>
  <atoms>     325 </atoms>
  <types>       5 </types>
  <array name="atoms" >
   <dimension dim="1">ion</dimension>
   <field type="string">element</field>
   <field type="int">atomtype</field>
   <set>
    <rc><c>H </c><c>   1</c></rc>
    <rc><c>H </c><c>   1</c></rc>
    <rc><c>H </c><c>   1</c></rc>
    <rc><c>H </c><c>   1</c></rc>
    <rc><c>H </c><c>   1</c></rc>
    <rc><c>H </c><c>   1</c></rc>
    <rc><c>H </c><c>   1</c></rc>
    <rc><c>H </c><c>   1</c></rc>
    <rc><c>H </c><c>   1</c></rc>
    <rc><c>H </c><c>   1</c></rc>
    <rc><c>H </c><c>   1</c></rc>
    <rc><c>H </c><c>   1</c></rc>
    <rc><c>H </c><c>   1</c></rc>
    <rc><c>H </c><c>   1</c></rc>
    <rc><c>H </c><c>   1</c></rc>
    <rc><c>H </c><c>   1</c></rc>
    <rc><c>H </c><c>   1</c></rc>
    <rc><c>H </c><c>   1</c></rc>
    <rc><c>H </c><c>   1</c></rc>
    <rc><c>H </c><c>   1</c></rc>
    <rc><c>H </c><c>   1</c></rc>
    <rc><c>H </c><c>   1</c></rc>
    <rc><c>H </c><c>   1</c></rc>
    <rc><c>H </c><c>   1</c></rc>
    <rc><c>H </c><c>   1</c></rc>
    <rc><c>H </c><c>   1</c></rc>
    <rc><c>H </c><c>   1</c></rc>
    <rc><c>H </c><c>   1</c></rc>
    <rc><c>H </c><c>   1</c></rc>
    <rc><c>H </c><c>   1</c></rc>
    <rc><c>H </c><c>   1</c></rc>
    <rc><c>H </c><c>   1</c></rc>
    <rc><c>H </c><c>   1</c></rc>
    <rc><c>H </c><c>   1</c></rc>
    <rc><c>H </c><c>   1</c></rc>
    <rc><c>H </c><c>   1</c></rc>
    <rc><c>H </c><c>   1</c></rc>
    <rc><c>H </c><c>   1</c></rc>
    <rc><c>H </c><c>   1</c></rc>
    <rc><c>H </c><c>   1</c></rc>
    <rc><c>H </c><c>   1</c></rc>
    <rc><c>H </c><c>   1</c></rc>
    <rc><c>H </c><c>   1</c></rc>
    <rc><c>H </c><c>   1</c></rc>
    <rc><c>H </c><c>   1</c></rc>
    <rc><c>H </c><c>   1</c></rc>
    <rc><c>H </c><c>   1</c></rc>
    <rc><c>H </c><c>   1</c></rc>
    <rc><c>H </c><c>   1</c></rc>
    <rc><c>H </c><c>   1</c></rc>
    <rc><c>H </c><c>   1</c></rc>
    <rc><c>H </c><c>   1</c></rc>
    <rc><c>H </c><c>   1</c></rc>
    <rc><c>H </c><c>   1</c></rc>
    <rc><c>H </c><c>   1</c></rc>
    <rc><c>H </c><c>   1</c></rc>
    <rc><c>H </c><c>   1</c></rc>
    <rc><c>H </c><c>   1</c></rc>
    <rc><c>H </c><c>   1</c></rc>
    <rc><c>H </c><c>   1</c></rc>
    <rc><c>H </c><c>   1</c></rc>
    <rc><c>H </c><c>   1</c></rc>
    <rc><c>H </c><c>   1</c></rc>
    <rc><c>H </c><c>   1</c></rc>
    <rc><c>H </c><c>   1</c></rc>
    <rc><c>H </c><c>   1</c></rc>
    <rc><c>H </c><c>   1</c></rc>
    <rc><c>H </c><c>   1</c></rc>
    <rc><c>H </c><c>   1</c></rc>
    <rc><c>H </c><c>   1</c></rc>
    <rc><c>H </c><c>   1</c></rc>
    <rc><c>H </c><c>   1</c></rc>
    <rc><c>H </c><c>   1</c></rc>
    <rc><c>H </c><c>   1</c></rc>
    <rc><c>H </c><c>   1</c></rc>
    <rc><c>H </c><c>   1</c></rc>
    <rc><c>H </c><c>   1</c></rc>
    <rc><c>H </c><c>   1</c></rc>
    <rc><c>H </c><c>   1</c></rc>
    <rc><c>H </c><c>   1</c></rc>
    <rc><c>H </c><c>   1</c></rc>
    <rc><c>H </c><c>   1</c></rc>
    <rc><c>H </c><c>   1</c></rc>
    <rc><c>H </c><c>   1</c></rc>
    <rc><c>H </c><c>   1</c></rc>
    <rc><c>H </c><c>   1</c></rc>
    <rc><c>H </c><c>   1</c></rc>
    <rc><c>H </c><c>   1</c></rc>
    <rc><c>H </c><c>   1</c></rc>
    <rc><c>H </c><c>   1</c></rc>
    <rc><c>H </c><c>   1</c></rc>
    <rc><c>H </c><c>   1</c></rc>
    <rc><c>H </c><c>   1</c></rc>
    <rc><c>H </c><c>   1</c></rc>
    <rc><c>H </c><c>   1</c></rc>
    <rc><c>H </c><c>   1</c></rc>
    <rc><c>H </c><c>   1</c></rc>
    <rc><c>H </c><c>   1</c></rc>
    <rc><c>H </c><c>   1</c></rc>
    <rc><c>H </c><c>   1</c></rc>
    <rc><c>H </c><c>   1</c></rc>
    <rc><c>H </c><c>   1</c></rc>
    <rc><c>H </c><c>   1</c></rc>
    <rc><c>H </c><c>   1</c></rc>
    <rc><c>H </c><c>   1</c></rc>
    <rc><c>H </c><c>   1</c></rc>
    <rc><c>H </c><c>   1</c></rc>
    <rc><c>H </c><c>   1</c></rc>
    <rc><c>H </c><c>   1</c></rc>
    <rc><c>H </c><c>   1</c></rc>
    <rc><c>H </c><c>   1</c></rc>
    <rc><c>H </c><c>   1</c></rc>
    <rc><c>H </c><c>   1</c></rc>
    <rc><c>H </c><c>   1</c></rc>
    <rc><c>H </c><c>   1</c></rc>
    <rc><c>H </c><c>   1</c></rc>
    <rc><c>H </c><c>   1</c></rc>
    <rc><c>H </c><c>   1</c></rc>
    <rc><c>H </c><c>   1</c></rc>
    <rc><c>H </c><c>   1</c></rc>
    <rc><c>H </c><c>   1</c></rc>
    <rc><c>H </c><c>   1</c></rc>
    <rc><c>H </c><c>   1</c></rc>
    <rc><c>H </c><c>   1</c></rc>
    <rc><c>H </c><c>   1</c></rc>
    <rc><c>H </c><c>   1</c></rc>
    <rc><c>H </c><c>   1</c></rc>
    <rc><c>H </c><c>   1</c></rc>
    <rc><c>H </c><c>   1</c></rc>
    <rc><c>H </c><c>   1</c></rc>
    <rc><c>H </c><c>   1</c></rc>
    <rc><c>H </c><c>   1</c></rc>
    <rc><c>H </c><c>   1</c></rc>
    <rc><c>H </c><c>   1</c></rc>
    <rc><c>H </c><c>   1</c></rc>
    <rc><c>H </c><c>   1</c></rc>
    <rc><c>H </c><c>   1</c></rc>
    <rc><c>H </c><c>   1</c></rc>
    <rc><c>H </c><c>   1</c></rc>
    <rc><c>H </c><c>   1</c></rc>
    <rc><c>H </c><c>   1</c></rc>
    <rc><c>H </c><c>   1</c></rc>
    <rc><c>H </c><c>   1</c></rc>
    <rc><c>C </c><c>   2</c></rc>
    <rc><c>C </c><c>   2</c></rc>
    <rc><c>C </c><c>   2</c></rc>
    <rc><c>C </c><c>   2</c></rc>
    <rc><c>C </c><c>   2</c></rc>
    <rc><c>C </c><c>   2</c></rc>
    <rc><c>C </c><c>   2</c></rc>
    <rc><c>C </c><c>   2</c></rc>
    <rc><c>C </c><c>   2</c></rc>
    <rc><c>C </c><c>   2</c></rc>
    <rc><c>C </c><c>   2</c></rc>
    <rc><c>C </c><c>   2</c></rc>
    <rc><c>C </c><c>   2</c></rc>
    <rc><c>C </c><c>   2</c></rc>
    <rc><c>C </c><c>   2</c></rc>
    <rc><c>C </c><c>   2</c></rc>
    <rc><c>C </c><c>   2</c></rc>
    <rc><c>C </c><c>   2</c></rc>
    <rc><c>C </c><c>   2</c></rc>
    <rc><c>C </c><c>   2</c></rc>
    <rc><c>C </c><c>   2</c></rc>
    <rc><c>C </c><c>   2</c></rc>
    <rc><c>C </c><c>   2</c></rc>
    <rc><c>C </c><c>   2</c></rc>
    <rc><c>C </c><c>   2</c></rc>
    <rc><c>C </c><c>   2</c></rc>
    <rc><c>C </c><c>   2</c></rc>
    <rc><c>C </c><c>   2</c></rc>
    <rc><c>C </c><c>   2</c></rc>
    <rc><c>C </c><c>   2</c></rc>
    <rc><c>C </c><c>   2</c></rc>
    <rc><c>C </c><c>   2</c></rc>
    <rc><c>C </c><c>   2</c></rc>
    <rc><c>C </c><c>   2</c></rc>
    <rc><c>C </c><c>   2</c></rc>
    <rc><c>C </c><c>   2</c></rc>
    <rc><c>C </c><c>   2</c></rc>
    <rc><c>C </c><c>   2</c></rc>
    <rc><c>C </c><c>   2</c></rc>
    <rc><c>N </c><c>   3</c></rc>
    <rc><c>N </c><c>   3</c></rc>
    <rc><c>N </c><c>   3</c></rc>
    <rc><c>N </c><c>   3</c></rc>
    <rc><c>N </c><c>   3</c></rc>
    <rc><c>N </c><c>   3</c></rc>
    <rc><c>N </c><c>   3</c></rc>
    <rc><c>N </c><c>   3</c></rc>
    <rc><c>N </c><c>   3</c></rc>
    <rc><c>N </c><c>   3</c></rc>
    <rc><c>N </c><c>   3</c></rc>
    <rc><c>N </c><c>   3</c></rc>
    <rc><c>N </c><c>   3</c></rc>
    <rc><c>N </c><c>   3</c></rc>
    <rc><c>N </c><c>   3</c></rc>
    <rc><c>N </c><c>   3</c></rc>
    <rc><c>N </c><c>   3</c></rc>
    <rc><c>N </c><c>   3</c></rc>
    <rc><c>N </c><c>   3</c></rc>
    <rc><c>N </c><c>   3</c></rc>
    <rc><c>N </c><c>   3</c></rc>
    <rc><c>N </c><c>   3</c></rc>
    <rc><c>N </c><c>   3</c></rc>
    <rc><c>N </c><c>   3</c></rc>
    <rc><c>N </c><c>   3</c></rc>
    <rc><c>N </c><c>   3</c></rc>
    <rc><c>N </c><c>   3</c></rc>
    <rc><c>N </c><c>   3</c></rc>
    <rc><c>N </c><c>   3</c></rc>
    <rc><c>N </c><c>   3</c></rc>
    <rc><c>N </c><c>   3</c></rc>
    <rc><c>N </c><c>   3</c></rc>
    <rc><c>N </c><c>   3</c></rc>
    <rc><c>N </c><c>   3</c></rc>
    <rc><c>N </c><c>   3</c></rc>
    <rc><c>N </c><c>   3</c></rc>
    <rc><c>N </c><c>   3</c></rc>
    <rc><c>N </c><c>   3</c></rc>
    <rc><c>N </c><c>   3</c></rc>
    <rc><c>N </c><c>   3</c></rc>
    <rc><c>N </c><c>   3</c></rc>
    <rc><c>N </c><c>   3</c></rc>
    <rc><c>N </c><c>   3</c></rc>
    <rc><c>N </c><c>   3</c></rc>
    <rc><c>N </c><c>   3</c></rc>
    <rc><c>N </c><c>   3</c></rc>
    <rc><c>N </c><c>   3</c></rc>
    <rc><c>I </c><c>   4</c></rc>
    <rc><c>I </c><c>   4</c></rc>
    <rc><c>I </c><c>   4</c></rc>
    <rc><c>I </c><c>   4</c></rc>
    <rc><c>I </c><c>   4</c></rc>
    <rc><c>I </c><c>   4</c></rc>
    <rc><c>I </c><c>   4</c></rc>
    <rc><c>I </c><c>   4</c></rc>
    <rc><c>I </c><c>   4</c></rc>
    <rc><c>I </c><c>   4</c></rc>
    <rc><c>I </c><c>   4</c></rc>
    <rc><c>I </c><c>   4</c></rc>
    <rc><c>I </c><c>   4</c></rc>
    <rc><c>I </c><c>   4</c></rc>
    <rc><c>I </c><c>   4</c></rc>
    <rc><c>I </c><c>   4</c></rc>
    <rc><c>I </c><c>   4</c></rc>
    <rc><c>I </c><c>   4</c></rc>
    <rc><c>I </c><c>   4</c></rc>
    <rc><c>I </c><c>   4</c></rc>
    <rc><c>I </c><c>   4</c></rc>
    <rc><c>I </c><c>   4</c></rc>
    <rc><c>I </c><c>   4</c></rc>
    <rc><c>I </c><c>   4</c></rc>
    <rc><c>I </c><c>   4</c></rc>
    <rc><c>I </c><c>   4</c></rc>
    <rc><c>I </c><c>   4</c></rc>
    <rc><c>I </c><c>   4</c></rc>
    <rc><c>I </c><c>   4</c></rc>
    <rc><c>I </c><c>   4</c></rc>
    <rc><c>I </c><c>   4</c></rc>
    <rc><c>I </c><c>   4</c></rc>
    <rc><c>I </c><c>   4</c></rc>
    <rc><c>I </c><c>   4</c></rc>
    <rc><c>I </c><c>   4</c></rc>
    <rc><c>I </c><c>   4</c></rc>
    <rc><c>I </c><c>   4</c></rc>
    <rc><c>I </c><c>   4</c></rc>
    <rc><c>I </c><c>   4</c></rc>
    <rc><c>I </c><c>   4</c></rc>
    <rc><c>I </c><c>   4</c></rc>
    <rc><c>I </c><c>   4</c></rc>
    <rc><c>I </c><c>   4</c></rc>
    <rc><c>I </c><c>   4</c></rc>
    <rc><c>I </c><c>   4</c></rc>
    <rc><c>I </c><c>   4</c></rc>
    <rc><c>I </c><c>   4</c></rc>
    <rc><c>I </c><c>   4</c></rc>
    <rc><c>I </c><c>   4</c></rc>
    <rc><c>I </c><c>   4</c></rc>
    <rc><c>I </c><c>   4</c></rc>
    <rc><c>I </c><c>   4</c></rc>
    <rc><c>I </c><c>   4</c></rc>
    <rc><c>I </c><c>   4</c></rc>
    <rc><c>I </c><c>   4</c></rc>
    <rc><c>I </c><c>   4</c></rc>
    <rc><c>I </c><c>   4</c></rc>
    <rc><c>I </c><c>   4</c></rc>
    <rc><c>I </c><c>   4</c></rc>
    <rc><c>I </c><c>   4</c></rc>
    <rc><c>I </c><c>   4</c></rc>
    <rc><c>I </c><c>   4</c></rc>
    <rc><c>I </c><c>   4</c></rc>
    <rc><c>I </c><c>   4</c></rc>
    <rc><c>I </c><c>   4</c></rc>
    <rc><c>I </c><c>   4</c></rc>
    <rc><c>I </c><c>   4</c></rc>
    <rc><c>I </c><c>   4</c></rc>
    <rc><c>I </c><c>   4</c></rc>
    <rc><c>I </c><c>   4</c></rc>
    <rc><c>I </c><c>   4</c></rc>
    <rc><c>I </c><c>   4</c></rc>
    <rc><c>Pb</c><c>   5</c></rc>
    <rc><c>Pb</c><c>   5</c></rc>
    <rc><c>Pb</c><c>   5</c></rc>
    <rc><c>Pb</c><c>   5</c></rc>
    <rc><c>Pb</c><c>   5</c></rc>
    <rc><c>Pb</c><c>   5</c></rc>
    <rc><c>Pb</c><c>   5</c></rc>
    <rc><c>Pb</c><c>   5</c></rc>
    <rc><c>Pb</c><c>   5</c></rc>
    <rc><c>Pb</c><c>   5</c></rc>
    <rc><c>Pb</c><c>   5</c></rc>
    <rc><c>Pb</c><c>   5</c></rc>
    <rc><c>Pb</c><c>   5</c></rc>
    <rc><c>Pb</c><c>   5</c></rc>
    <rc><c>Pb</c><c>   5</c></rc>
    <rc><c>Pb</c><c>   5</c></rc>
    <rc><c>Pb</c><c>   5</c></rc>
    <rc><c>Pb</c><c>   5</c></rc>
    <rc><c>Pb</c><c>   5</c></rc>
    <rc><c>Pb</c><c>   5</c></rc>
    <rc><c>Pb</c><c>   5</c></rc>
    <rc><c>Pb</c><c>   5</c></rc>
    <rc><c>Pb</c><c>   5</c></rc>
    <rc><c>Pb</c><c>   5</c></rc>
   </set>
  </array>
  <array name="atomtypes" >
   <dimension dim="1">type</dimension>
   <field type="int">atomspertype</field>
   <field type="string">element</field>
   <field>mass</field>
   <field>valence</field>
   <field type="string">pseudopotential</field>
   <set>
    <rc><c> 143</c><c>H </c><c>      1.00000000</c><c>      1.00000000</c><c>  PAW_PBE H 15Jun2001                   </c></rc>
    <rc><c>  39</c><c>C </c><c>     12.01100000</c><c>      4.00000000</c><c>  PAW_PBE C 08Apr2002                   </c></rc>
    <rc><c>  47</c><c>N </c><c>     14.00100000</c><c>      5.00000000</c><c>  PAW_PBE N 08Apr2002                   </c></rc>
    <rc><c>  72</c><c>I </c><c>    126.90400000</c><c>      7.00000000</c><c>  PAW_PBE I 08Apr2002                   </c></rc>
    <rc><c>  24</c><c>Pb</c><c>    207.20000000</c><c>      4.00000000</c><c>  PAW_PBE Pb 08Apr2002                  </c></rc>
   </set>
  </array>
 </atominfo>
 <structure name="initialpos" >
  <crystal>
   <varray name="basis" >
    <v>      18.06080055       0.00000000       0.00000000 </v>
    <v>      -0.00491865      18.06279945       0.00000000 </v>
    <v>       0.00000000       0.00000000      62.48749924 </v>
   </varray>
   <i name="volume">  20385.21054034 </i>
   <varray name="rec_basis" >
    <v>       0.05536853       0.00001508      -0.00000000 </v>
    <v>       0.00000000       0.05536240       0.00000000 </v>
    <v>       0.00000000      -0.00000000       0.01600320 </v>
   </varray>
  </crystal>
  <varray name="positions" >
   <v>       0.47400237       0.33382356       0.56998021 </v>
   <v>       0.44960965       0.83614386       0.57351504 </v>
   <v>       0.92316061       0.24589572       0.58053817 </v>
   <v>       0.94185377       0.81621484       0.57530006 </v>
   <v>       0.31818126       0.07416158       0.56990513 </v>
   <v>       0.34143227       0.56355038       0.56745951 </v>
   <v>       0.79754603       0.09017393       0.57230001 </v>
   <v>       0.10477752       0.24651356       0.55726100 </v>
   <v>       0.08361019       0.67433194       0.57391795 </v>
   <v>       0.54880384       0.15125042       0.55998291 </v>
   <v>       0.49690688       0.64508122       0.56148144 </v>
   <v>       0.36810609       0.00959932       0.55552304 </v>
   <v>       0.28614484       0.63322223       0.55630304 </v>
   <v>       0.86994579       0.03442207       0.56284884 </v>
   <v>       0.05789380       0.24775707       0.58139705 </v>
   <v>       0.00053444       0.69513239       0.58673161 </v>
   <v>       0.57426734       0.23886119       0.57013631 </v>
   <v>       0.45241749       0.69968265       0.58016438 </v>
   <v>       0.28127601       0.44097027       0.57350948 </v>
   <v>       0.18209512       0.05905927       0.57160359 </v>
   <v>       0.67227615       0.02979630       0.57306939 </v>
   <v>       0.38831662       0.30536887       0.55956828 </v>
   <v>       0.50343054       0.86940398       0.55276260 </v>
   <v>       0.87823008       0.23720255       0.55598547 </v>
   <v>       0.98781230       0.86664462       0.55596893 </v>
   <v>       0.19211622       0.43193455       0.56403096 </v>
   <v>       0.14270120       0.98803547       0.55723682 </v>
   <v>       0.66927290       0.93910124       0.56342080 </v>
   <v>       0.42973359       0.18859704       0.55147499 </v>
   <v>       0.54132194       0.74955917       0.54242471 </v>
   <v>       0.99340537       0.23889366       0.53731523 </v>
   <v>       0.08276567       0.77755789       0.55266602 </v>
   <v>       0.18491516       0.55261539       0.55233453 </v>
   <v>       0.25978246       0.94259731       0.54627973 </v>
   <v>       0.79240119       0.93492675       0.55587327 </v>
   <v>       0.46202249       0.30834642       0.67364060 </v>
   <v>       0.44073245       0.80773944       0.67229261 </v>
   <v>       0.94658545       0.27678361       0.67555638 </v>
   <v>       0.92299875       0.73713766       0.67281987 </v>
   <v>       0.30847187       0.04875623       0.67190007 </v>
   <v>       0.29503430       0.55182908       0.67584819 </v>
   <v>       0.79482012       0.05299779       0.67469482 </v>
   <v>       0.84411072       0.47266362       0.66421561 </v>
   <v>       0.09248720       0.17381526       0.64818104 </v>
   <v>       0.10885667       0.71319786       0.65195566 </v>
   <v>       0.58046269       0.16835260       0.64876923 </v>
   <v>       0.57403688       0.66977302       0.65246900 </v>
   <v>       0.18623982       0.40903452       0.64817969 </v>
   <v>       0.16787867       0.92802719       0.64740848 </v>
   <v>       0.64430227       0.47579415       0.65929147 </v>
   <v>       0.67911067       0.91404837       0.64801322 </v>
   <v>       0.05655419       0.18419925       0.67365806 </v>
   <v>       0.04932029       0.67563230       0.67063334 </v>
   <v>       0.56228003       0.20798950       0.67375207 </v>
   <v>       0.53766100       0.70140402       0.67661769 </v>
   <v>       0.20355723       0.43912929       0.67399345 </v>
   <v>       0.19857043       0.95376123       0.67268002 </v>
   <v>       0.71595612       0.42215121       0.66922034 </v>
   <v>       0.70014508       0.94454078       0.67376068 </v>
   <v>       0.42148597       0.32490413       0.64898576 </v>
   <v>       0.42292317       0.83180922       0.64597912 </v>
   <v>       0.92495279       0.31952613       0.65119159 </v>
   <v>       0.90858638       0.81166959       0.65539763 </v>
   <v>       0.33680035       0.07243504       0.64645040 </v>
   <v>       0.32278526       0.58468482       0.65095546 </v>
   <v>       0.82548716       0.08193854       0.64983084 </v>
   <v>       0.85210713       0.55430075       0.64951107 </v>
   <v>       0.01422154       0.25844689       0.63236421 </v>
   <v>       0.02638833       0.80259979       0.64058876 </v>
   <v>       0.49314996       0.24024684       0.63107392 </v>
   <v>       0.50505093       0.74766684       0.63161083 </v>
   <v>       0.25220856       0.99894244       0.62920184 </v>
   <v>       0.25828123       0.49655632       0.63194231 </v>
   <v>       0.75603047       0.99638403       0.63118575 </v>
   <v>       0.72477661       0.56362176       0.64448993 </v>
   <v>       0.44874502       0.30128397       0.76888902 </v>
   <v>       0.44874501       0.80128391       0.76888902 </v>
   <v>       0.94874497       0.30128397       0.76888902 </v>
   <v>       0.94874501       0.80128391       0.76888902 </v>
   <v>       0.30127600       0.05129450       0.76887296 </v>
   <v>       0.30127601       0.55129450       0.76887296 </v>
   <v>       0.80127594       0.05129450       0.76887296 </v>
   <v>       0.80127598       0.55129450       0.76887296 </v>
   <v>       0.07877100       0.17118050       0.74344197 </v>
   <v>       0.07877101       0.67118045       0.74344197 </v>
   <v>       0.57877100       0.17118050       0.74344197 </v>
   <v>       0.57877099       0.67118045       0.74344197 </v>
   <v>       0.17119950       0.42117448       0.74342103 </v>
   <v>       0.17119950       0.92117451       0.74342103 </v>
   <v>       0.67119951       0.42117448       0.74342103 </v>
   <v>       0.67119950       0.92117451       0.74342103 </v>
   <v>       0.05125600       0.19871499       0.76888902 </v>
   <v>       0.05125600       0.69871493       0.76888902 </v>
   <v>       0.55125603       0.19871499       0.76888902 </v>
   <v>       0.55125602       0.69871493       0.76888902 </v>
   <v>       0.19872349       0.44870397       0.76887205 </v>
   <v>       0.19872349       0.94870397       0.76887205 </v>
   <v>       0.69872352       0.44870397       0.76887205 </v>
   <v>       0.69872351       0.94870397       0.76887205 </v>
   <v>       0.42123152       0.32881747       0.74344197 </v>
   <v>       0.42123151       0.82881744       0.74344197 </v>
   <v>       0.92123147       0.32881747       0.74344197 </v>
   <v>       0.92123151       0.82881744       0.74344197 </v>
   <v>       0.32880050       0.07882500       0.74342103 </v>
   <v>       0.32880049       0.57882496       0.74342103 </v>
   <v>       0.82880048       0.07882500       0.74342103 </v>
   <v>       0.82880052       0.57882496       0.74342103 </v>
   <v>       0.00000350       0.25000148       0.72582199 </v>
   <v>       0.00000350       0.75000145       0.72582199 </v>
   <v>       0.50000351       0.25000148       0.72582199 </v>
   <v>       0.50000350       0.75000145       0.72582199 </v>
   <v>       0.25000050       0.00000000       0.72580398 </v>
   <v>       0.25000052       0.50000000       0.72580398 </v>
   <v>       0.75000050       0.00000000       0.72580398 </v>
   <v>       0.75000049       0.50000000       0.72580398 </v>
   <v>       0.71938898       0.44152478       0.54142879 </v>
   <v>       0.73739419       0.49251424       0.51832676 </v>
   <v>       0.66004260       0.55285087       0.55877369 </v>
   <v>       0.70690771       0.63837708       0.55620628 </v>
   <v>       0.84924187       0.50725139       0.56905950 </v>
   <v>       0.78933930       0.57642193       0.57889698 </v>
   <v>       0.86949193       0.56231486       0.53010175 </v>
   <v>       0.79643831       0.62448822       0.52361401 </v>
   <v>       0.86988402       0.46293823       0.51863089 </v>
   <v>       0.86270517       0.42378031       0.54417250 </v>
   <v>       0.87112589       0.32599451       0.51862290 </v>
   <v>       0.78273612       0.32205852       0.52995738 </v>
   <v>       0.63481580       0.55083849       0.51947573 </v>
   <v>       0.68731326       0.63428177       0.51597417 </v>
   <v>       0.60587452       0.63314409       0.53141800 </v>
   <v>       0.75438937       0.46744641       0.59711784 </v>
   <v>       0.75528493       0.40991020       0.57409853 </v>
   <v>       0.68382518       0.47670412       0.57768616 </v>
   <v>       0.81688008       0.69096216       0.55880366 </v>
   <v>       0.90084835       0.68557717       0.54398832 </v>
   <v>       0.88683801       0.62518689       0.56585622 </v>
   <v>       0.82010738       0.38071695       0.48527678 </v>
   <v>       0.78372502       0.29257670       0.49156469 </v>
   <v>       0.66271700       0.30853935       0.52008547 </v>
   <v>       0.73042019       0.46041571       0.47047426 </v>
   <v>       0.53653955       0.36209544       0.51940363 </v>
   <v>       0.60305295       0.51253370       0.46949127 </v>
   <v>       0.50572067       0.46432211       0.49432543 </v>
   <v>       0.99143122       0.24224729       0.55467362 </v>
   <v>       0.03550770       0.76880995       0.56335719 </v>
   <v>       0.46896267       0.22786831       0.55842651 </v>
   <v>       0.50403636       0.75715116       0.55603693 </v>
   <v>       0.23704564       0.53275844       0.55903564 </v>
   <v>       0.25585710       0.99367985       0.55552450 </v>
   <v>       0.76975511       0.98608382       0.56232335 </v>
   <v>       0.00846233       0.24723900       0.64932818 </v>
   <v>       0.00947341       0.76416824       0.65309175 </v>
   <v>       0.50120014       0.24691347       0.64817762 </v>
   <v>       0.49837400       0.75046301       0.64876941 </v>
   <v>       0.25526699       0.49624365       0.64921927 </v>
   <v>       0.25253595       0.00033211       0.64655370 </v>
   <v>       0.74706132       0.51757292       0.65340168 </v>
   <v>       0.75271852       0.99789998       0.64849250 </v>
   <v>       0.49998898       0.24999498       0.74327702 </v>
   <v>       0.49998903       0.74999496       0.74327702 </v>
   <v>       0.99998898       0.24999498       0.74327702 </v>
   <v>       0.99998903       0.74999496       0.74327702 </v>
   <v>       0.25000050       0.00000100       0.74325596 </v>
   <v>       0.25000052       0.50000100       0.74325596 </v>
   <v>       0.75000050       0.00000100       0.74325596 </v>
   <v>       0.75000049       0.50000100       0.74325596 </v>
   <v>       0.70580318       0.38111877       0.49531608 </v>
   <v>       0.64979902       0.35309757       0.50890709 </v>
   <v>       0.68742986       0.43808902       0.48110209 </v>
   <v>       0.57889209       0.38253158       0.50843611 </v>
   <v>       0.61533799       0.46725196       0.48058825 </v>
   <v>       0.56180295       0.44067262       0.49432144 </v>
   <v>       0.76158264       0.47521539       0.53338970 </v>
   <v>       0.69500397       0.58573148       0.54818221 </v>
   <v>       0.79129911       0.52487511       0.56963981 </v>
   <v>       0.82618544       0.59729872       0.53684657 </v>
   <v>       0.83239747       0.43155213       0.52911547 </v>
   <v>       0.81779240       0.35523467       0.51923538 </v>
   <v>       0.65507705       0.60087154       0.52727514 </v>
   <v>       0.74294785       0.46609881       0.57989803 </v>
   <v>       0.85885149       0.65269851       0.55249295 </v>
   <v>       0.78381758       0.35132291       0.49665753 </v>
   <v>       0.05484435       0.24333529       0.56506889 </v>
   <v>       0.03902796       0.70892653       0.57523157 </v>
   <v>       0.53711717       0.20620928       0.56208337 </v>
   <v>       0.48477412       0.69789820       0.56672645 </v>
   <v>       0.44343253       0.29516263       0.56206091 </v>
   <v>       0.48244925       0.82416902       0.56046244 </v>
   <v>       0.92676280       0.24528202       0.56415898 </v>
   <v>       0.98063957       0.81661832       0.56346927 </v>
   <v>       0.23781551       0.46304694       0.56527596 </v>
   <v>       0.18977616       0.01614589       0.56122431 </v>
   <v>       0.69787136       0.98659864       0.56557925 </v>
   <v>       0.31754181       0.02909391       0.55999824 </v>
   <v>       0.29302480       0.57854202       0.56038131 </v>
   <v>       0.81493046       0.04080222       0.56637836 </v>
   <v>       0.05434050       0.19891139       0.65776340 </v>
   <v>       0.05810488       0.71394606       0.65889314 </v>
   <v>       0.55149199       0.20562049       0.65766071 </v>
   <v>       0.53840509       0.70465789       0.66010395 </v>
   <v>       0.21375106       0.44474636       0.65793354 </v>
   <v>       0.20297069       0.95849447       0.65634960 </v>
   <v>       0.70039346       0.46800153       0.66075869 </v>
   <v>       0.70831750       0.94903590       0.65749973 </v>
   <v>       0.45975005       0.29636267       0.65760956 </v>
   <v>       0.45157610       0.79905622       0.65636401 </v>
   <v>       0.95636835       0.28368852       0.65964237 </v>
   <v>       0.94343928       0.77250056       0.66134572 </v>
   <v>       0.30169262       0.04229042       0.65571282 </v>
   <v>       0.29288463       0.54616874       0.65954567 </v>
   <v>       0.79282270       0.04691139       0.65844322 </v>
   <v>       0.81883474       0.51482105       0.65602410 </v>
   <v>       0.04586250       0.20411950       0.75272599 </v>
   <v>       0.04586250       0.70411946       0.75272599 </v>
   <v>       0.54586251       0.20411950       0.75272599 </v>
   <v>       0.54586250       0.70411946       0.75272599 </v>
   <v>       0.20411900       0.45410100       0.75270499 </v>
   <v>       0.20411899       0.95410095       0.75270499 </v>
   <v>       0.70411898       0.45410100       0.75270499 </v>
   <v>       0.70411896       0.95410095       0.75270499 </v>
   <v>       0.45414002       0.29588849       0.75272697 </v>
   <v>       0.45414001       0.79588852       0.75272697 </v>
   <v>       0.95414002       0.29588849       0.75272697 </v>
[...]
   <v>       0.54880384       0.15125042       0.55998291 </v>
   <v>       0.49690688       0.64508122       0.56148144 </v>
   <v>       0.36810609       0.00959932       0.55552304 </v>
   <v>       0.28614484       0.63322223       0.55630304 </v>
   <v>       0.86994579       0.03442207       0.56284884 </v>
   <v>       0.05789380       0.24775707       0.58139705 </v>
   <v>       0.00053444       0.69513239       0.58673161 </v>
   <v>       0.57426734       0.23886119       0.57013631 </v>
   <v>       0.45241749       0.69968265       0.58016438 </v>
   <v>       0.28127601       0.44097027       0.57350948 </v>
   <v>       0.18209512       0.05905927       0.57160359 </v>
   <v>       0.67227615       0.02979630       0.57306939 </v>
   <v>       0.38831662       0.30536887       0.55956828 </v>
   <v>       0.50343054       0.86940398       0.55276260 </v>
   <v>       0.87823008       0.23720255       0.55598547 </v>
   <v>       0.98781230       0.86664462       0.55596893 </v>
   <v>       0.19211622       0.43193455       0.56403096 </v>
   <v>       0.14270120       0.98803547       0.55723682 </v>
   <v>       0.66927290       0.93910124       0.56342080 </v>
   <v>       0.42973359       0.18859704       0.55147499 </v>
   <v>       0.54132194       0.74955917       0.54242471 </v>
   <v>       0.99340537       0.23889366       0.53731523 </v>
   <v>       0.08276567       0.77755789       0.55266602 </v>
   <v>       0.18491516       0.55261539       0.55233453 </v>
   <v>       0.25978246       0.94259731       0.54627973 </v>
   <v>       0.79240119       0.93492675       0.55587327 </v>
   <v>       0.46202249       0.30834642       0.67364060 </v>
   <v>       0.44073245       0.80773944       0.67229261 </v>
   <v>       0.94658545       0.27678361       0.67555638 </v>
   <v>       0.92299875       0.73713766       0.67281987 </v>
   <v>       0.30847187       0.04875623       0.67190007 </v>
   <v>       0.29503430       0.55182908       0.67584819 </v>
   <v>       0.79482012       0.05299779       0.67469482 </v>
   <v>       0.84411072       0.47266362       0.66421561 </v>
   <v>       0.09248720       0.17381526       0.64818104 </v>
   <v>       0.10885667       0.71319786       0.65195566 </v>
   <v>       0.58046269       0.16835260       0.64876923 </v>
   <v>       0.57403688       0.66977302       0.65246900 </v>
   <v>       0.18623982       0.40903452       0.64817969 </v>
   <v>       0.16787867       0.92802719       0.64740848 </v>
   <v>       0.64430227       0.47579415       0.65929147 </v>
   <v>       0.67911067       0.91404837       0.64801322 </v>
   <v>       0.05655419       0.18419925       0.67365806 </v>
   <v>       0.04932029       0.67563230       0.67063334 </v>
   <v>       0.56228003       0.20798950       0.67375207 </v>
   <v>       0.53766100       0.70140402       0.67661769 </v>
   <v>       0.20355723       0.43912929       0.67399345 </v>
   <v>       0.19857043       0.95376123       0.67268002 </v>
   <v>       0.71595612       0.42215121       0.66922034 </v>
   <v>       0.70014508       0.94454078       0.67376068 </v>
   <v>       0.42148597       0.32490413       0.64898576 </v>
   <v>       0.42292317       0.83180922       0.64597912 </v>
   <v>       0.92495279       0.31952613       0.65119159 </v>
   <v>       0.90858638       0.81166959       0.65539763 </v>
   <v>       0.33680035       0.07243504       0.64645040 </v>
   <v>       0.32278526       0.58468482       0.65095546 </v>
   <v>       0.82548716       0.08193854       0.64983084 </v>
   <v>       0.85210713       0.55430075       0.64951107 </v>
   <v>       0.01422154       0.25844689       0.63236421 </v>
   <v>       0.02638833       0.80259979       0.64058876 </v>
   <v>       0.49314996       0.24024684       0.63107392 </v>
   <v>       0.50505093       0.74766684       0.63161083 </v>
   <v>       0.25220856       0.99894244       0.62920184 </v>
   <v>       0.25828123       0.49655632       0.63194231 </v>
   <v>       0.75603047       0.99638403       0.63118575 </v>
   <v>       0.72477661       0.56362176       0.64448993 </v>
   <v>       0.44874502       0.30128397       0.76888902 </v>
   <v>       0.44874501       0.80128391       0.76888902 </v>
   <v>       0.94874497       0.30128397       0.76888902 </v>
   <v>       0.94874501       0.80128391       0.76888902 </v>
   <v>       0.30127600       0.05129450       0.76887296 </v>
   <v>       0.30127601       0.55129450       0.76887296 </v>
   <v>       0.80127594       0.05129450       0.76887296 </v>
   <v>       0.80127598       0.55129450       0.76887296 </v>
   <v>       0.07877100       0.17118050       0.74344197 </v>
   <v>       0.07877101       0.67118045       0.74344197 </v>
   <v>       0.57877100       0.17118050       0.74344197 </v>
   <v>       0.57877099       0.67118045       0.74344197 </v>
   <v>       0.17119950       0.42117448       0.74342103 </v>
   <v>       0.17119950       0.92117451       0.74342103 </v>
   <v>       0.67119951       0.42117448       0.74342103 </v>
   <v>       0.67119950       0.92117451       0.74342103 </v>
   <v>       0.05125600       0.19871499       0.76888902 </v>
   <v>       0.05125600       0.69871493       0.76888902 </v>
   <v>       0.55125603       0.19871499       0.76888902 </v>
   <v>       0.55125602       0.69871493       0.76888902 </v>
   <v>       0.19872349       0.44870397       0.76887205 </v>
   <v>       0.19872349       0.94870397       0.76887205 </v>
   <v>       0.69872352       0.44870397       0.76887205 </v>
   <v>       0.69872351       0.94870397       0.76887205 </v>
   <v>       0.42123152       0.32881747       0.74344197 </v>
   <v>       0.42123151       0.82881744       0.74344197 </v>
   <v>       0.92123147       0.32881747       0.74344197 </v>
   <v>       0.92123151       0.82881744       0.74344197 </v>
   <v>       0.32880050       0.07882500       0.74342103 </v>
   <v>       0.32880049       0.57882496       0.74342103 </v>
   <v>       0.82880048       0.07882500       0.74342103 </v>
   <v>       0.82880052       0.57882496       0.74342103 </v>
   <v>       0.00000350       0.25000148       0.72582199 </v>
   <v>       0.00000350       0.75000145       0.72582199 </v>
   <v>       0.50000351       0.25000148       0.72582199 </v>
   <v>       0.50000350       0.75000145       0.72582199 </v>
   <v>       0.25000050       0.00000000       0.72580398 </v>
   <v>       0.25000052       0.50000000       0.72580398 </v>
   <v>       0.75000050       0.00000000       0.72580398 </v>
   <v>       0.75000049       0.50000000       0.72580398 </v>
   <v>       0.71938898       0.44152478       0.54142879 </v>
   <v>       0.73739419       0.49251424       0.51832676 </v>
   <v>       0.66004260       0.55285087       0.55877369 </v>
   <v>       0.70690771       0.63837708       0.55620628 </v>
   <v>       0.84924187       0.50725139       0.56905950 </v>
   <v>       0.78933930       0.57642193       0.57889698 </v>
   <v>       0.86949193       0.56231486       0.53010175 </v>
   <v>       0.79643831       0.62448822       0.52361401 </v>
   <v>       0.86988402       0.46293823       0.51863089 </v>
   <v>       0.86270517       0.42378031       0.54417250 </v>
   <v>       0.87112589       0.32599451       0.51862290 </v>
   <v>       0.78273612       0.32205852       0.52995738 </v>
   <v>       0.63481580       0.55083849       0.51947573 </v>
   <v>       0.68731326       0.63428177       0.51597417 </v>
   <v>       0.60587452       0.63314409       0.53141800 </v>
   <v>       0.75438937       0.46744641       0.59711784 </v>
   <v>       0.75528493       0.40991020       0.57409853 </v>
   <v>       0.68382518       0.47670412       0.57768616 </v>
   <v>       0.81688008       0.69096216       0.55880366 </v>
   <v>       0.90084835       0.68557717       0.54398832 </v>
   <v>       0.88683801       0.62518689       0.56585622 </v>
   <v>       0.82010738       0.38071695       0.48527678 </v>
   <v>       0.78372502       0.29257670       0.49156469 </v>
   <v>       0.66271700       0.30853935       0.52008547 </v>
   <v>       0.73042019       0.46041571       0.47047426 </v>
   <v>       0.53653955       0.36209544       0.51940363 </v>
   <v>       0.60305295       0.51253370       0.46949127 </v>
   <v>       0.50572067       0.46432211       0.49432543 </v>
   <v>       0.99143122       0.24224729       0.55467362 </v>
   <v>       0.03550770       0.76880995       0.56335719 </v>
   <v>       0.46896267       0.22786831       0.55842651 </v>
   <v>       0.50403636       0.75715116       0.55603693 </v>
   <v>       0.23704564       0.53275844       0.55903564 </v>
   <v>       0.25585710       0.99367985       0.55552450 </v>
   <v>       0.76975511       0.98608382       0.56232335 </v>
   <v>       0.00846233       0.24723900       0.64932818 </v>
   <v>       0.00947341       0.76416824       0.65309175 </v>
   <v>       0.50120014       0.24691347       0.64817762 </v>
   <v>       0.49837400       0.75046301       0.64876941 </v>
   <v>       0.25526699       0.49624365       0.64921927 </v>
   <v>       0.25253595       0.00033211       0.64655370 </v>
   <v>       0.74706132       0.51757292       0.65340168 </v>
   <v>       0.75271852       0.99789998       0.64849250 </v>
   <v>       0.49998898       0.24999498       0.74327702 </v>
   <v>       0.49998903       0.74999496       0.74327702 </v>
   <v>       0.99998898       0.24999498       0.74327702 </v>
   <v>       0.99998903       0.74999496       0.74327702 </v>
   <v>       0.25000050       0.00000100       0.74325596 </v>
   <v>       0.25000052       0.50000100       0.74325596 </v>
   <v>       0.75000050       0.00000100       0.74325596 </v>
   <v>       0.75000049       0.50000100       0.74325596 </v>
   <v>       0.70580318       0.38111877       0.49531608 </v>
   <v>       0.64979902       0.35309757       0.50890709 </v>
   <v>       0.68742986       0.43808902       0.48110209 </v>
   <v>       0.57889209       0.38253158       0.50843611 </v>
   <v>       0.61533799       0.46725196       0.48058825 </v>
   <v>       0.56180295       0.44067262       0.49432144 </v>
   <v>       0.76158264       0.47521539       0.53338970 </v>
   <v>       0.69500397       0.58573148       0.54818221 </v>
   <v>       0.79129911       0.52487511       0.56963981 </v>
   <v>       0.82618544       0.59729872       0.53684657 </v>
   <v>       0.83239747       0.43155213       0.52911547 </v>
   <v>       0.81779240       0.35523467       0.51923538 </v>
   <v>       0.65507705       0.60087154       0.52727514 </v>
   <v>       0.74294785       0.46609881       0.57989803 </v>
   <v>       0.85885149       0.65269851       0.55249295 </v>
   <v>       0.78381758       0.35132291       0.49665753 </v>
   <v>       0.05484435       0.24333529       0.56506889 </v>
   <v>       0.03902796       0.70892653       0.57523157 </v>
   <v>       0.53711717       0.20620928       0.56208337 </v>
   <v>       0.48477412       0.69789820       0.56672645 </v>
   <v>       0.44343253       0.29516263       0.56206091 </v>
   <v>       0.48244925       0.82416902       0.56046244 </v>
   <v>       0.92676280       0.24528202       0.56415898 </v>
   <v>       0.98063957       0.81661832       0.56346927 </v>
   <v>       0.23781551       0.46304694       0.56527596 </v>
   <v>       0.18977616       0.01614589       0.56122431 </v>
   <v>       0.69787136       0.98659864       0.56557925 </v>
   <v>       0.31754181       0.02909391       0.55999824 </v>
   <v>       0.29302480       0.57854202       0.56038131 </v>
   <v>       0.81493046       0.04080222       0.56637836 </v>
   <v>       0.05434050       0.19891139       0.65776340 </v>
   <v>       0.05810488       0.71394606       0.65889314 </v>
   <v>       0.55149199       0.20562049       0.65766071 </v>
   <v>       0.53840509       0.70465789       0.66010395 </v>
   <v>       0.21375106       0.44474636       0.65793354 </v>
   <v>       0.20297069       0.95849447       0.65634960 </v>
   <v>       0.70039346       0.46800153       0.66075869 </v>
   <v>       0.70831750       0.94903590       0.65749973 </v>
   <v>       0.45975005       0.29636267       0.65760956 </v>
   <v>       0.45157610       0.79905622       0.65636401 </v>
   <v>       0.95636835       0.28368852       0.65964237 </v>
   <v>       0.94343928       0.77250056       0.66134572 </v>
   <v>       0.30169262       0.04229042       0.65571282 </v>
   <v>       0.29288463       0.54616874       0.65954567 </v>
   <v>       0.79282270       0.04691139       0.65844322 </v>
   <v>       0.81883474       0.51482105       0.65602410 </v>
   <v>       0.04586250       0.20411950       0.75272599 </v>
   <v>       0.04586250       0.70411946       0.75272599 </v>
   <v>       0.54586251       0.20411950       0.75272599 </v>
   <v>       0.54586250       0.70411946       0.75272599 </v>
   <v>       0.20411900       0.45410100       0.75270499 </v>
   <v>       0.20411899       0.95410095       0.75270499 </v>
   <v>       0.70411898       0.45410100       0.75270499 </v>
   <v>       0.70411896       0.95410095       0.75270499 </v>
   <v>       0.45414002       0.29588849       0.75272697 </v>
   <v>       0.45414001       0.79588852       0.75272697 </v>
   <v>       0.95414002       0.29588849       0.75272697 </v>
   <v>       0.95414006       0.79588852       0.75272697 </v>
   <v>       0.29588249       0.04590050       0.75270499 </v>
   <v>       0.29588248       0.54590053       0.75270499 </v>
   <v>       0.79588244       0.04590050       0.75270499 </v>
   <v>       0.79588248       0.54590053       0.75270499 </v>
   <v>       0.76958988       0.54463370       0.54682312 </v>
   <v>       0.50917273       0.01459141       0.55075689 </v>
   <v>       0.48325454       0.50592454       0.55454475 </v>
   <v>       0.99949810       0.00884060       0.55192698 </v>
   <v>       0.03090414       0.50544645       0.55510657 </v>
   <v>       0.24945142       0.24826655       0.55297083 </v>
   <v>       0.24367391       0.76601415       0.55256657 </v>
   <v>       0.73186475       0.21053406       0.55594872 </v>
   <v>       0.70026294       0.79551365       0.55443145 </v>
   <v>       0.99746431       0.98848348       0.65456781 </v>
   <v>       0.01507068       0.49488142       0.65594626 </v>
   <v>       0.50097575       0.00502446       0.65415531 </v>
   <v>       0.50356023       0.49541177       0.65497701 </v>
   <v>       0.25712078       0.24278250       0.65474259 </v>
   <v>       0.25324727       0.75670850       0.65442398 </v>
   <v>       0.74671151       0.26886098       0.65512047 </v>
   <v>       0.74586370       0.74408499       0.65404622 </v>
   <v>       0.13132171       0.12028091       0.60777262 </v>
   <v>       0.15152382       0.60651240       0.60947438 </v>
   <v>       0.63997894       0.11404820       0.60990483 </v>
   <v>       0.62816579       0.62111476       0.61009450 </v>
   <v>       0.36440665       0.38731112       0.60824818 </v>
   <v>       0.37315804       0.88247543       0.60648538 </v>
   <v>       0.88722233       0.37087076       0.60999621 </v>
   <v>       0.86736134       0.88023939       0.60684947 </v>
   <v>       0.12293808       0.36560155       0.60840556 </v>
   <v>       0.12340563       0.87703832       0.60731697 </v>
   <v>       0.59371513       0.34600874       0.60266638 </v>
   <v>       0.61523414       0.86615444       0.61241076 </v>
   <v>       0.38461759       0.13248285       0.60566515 </v>
   <v>       0.38243713       0.63217588       0.61187873 </v>
   <v>       0.88282691       0.13663198       0.61251106 </v>
   <v>       0.90478898       0.64410864       0.61542784 </v>
   <v>       0.00000000       0.00000000       0.75492797 </v>
   <v>       0.00000000       0.50000000       0.75492797 </v>
   <v>       0.50000000       0.00000000       0.75492797 </v>
   <v>       0.49999999       0.50000000       0.75492797 </v>
   <v>       0.25000050       0.25000000       0.75493902 </v>
   <v>       0.25000051       0.74999997       0.75493902 </v>
   <v>       0.75000047       0.25000000       0.75493902 </v>
   <v>       0.75000046       0.74999997       0.75493902 </v>
   <v>       0.13579050       0.11421000       0.70478299 </v>
   <v>       0.13579050       0.61420998       0.70478299 </v>
   <v>       0.63579045       0.11421000       0.70478299 </v>
   <v>       0.63579049       0.61420998       0.70478299 </v>
   <v>       0.36420952       0.38578999       0.70478299 </v>
   <v>       0.36420950       0.88578996       0.70478299 </v>
   <v>       0.86420954       0.38578999       0.70478299 </v>
   <v>       0.86420953       0.88578996       0.70478299 </v>
   <v>       0.11421799       0.36421899       0.70478098 </v>
   <v>       0.11421799       0.86421899       0.70478098 </v>
   <v>       0.61421800       0.36421899       0.70478098 </v>
   <v>       0.61421799       0.86421899       0.70478098 </v>
   <v>       0.38578201       0.13578149       0.70478202 </v>
   <v>       0.38578200       0.63578149       0.70478202 </v>
   <v>       0.88578199       0.13578149       0.70478202 </v>
   <v>       0.88578203       0.63578149       0.70478202 </v>
   <v>       0.13466700       0.11533200       0.80125603 </v>
   <v>       0.13466699       0.61533199       0.80125603 </v>
   <v>       0.63466699       0.11533200       0.80125603 </v>
   <v>       0.63466698       0.61533199       0.80125603 </v>
   <v>       0.36533300       0.38466799       0.80125603 </v>
   <v>       0.36533299       0.88466796       0.80125603 </v>
   <v>       0.86533295       0.38466799       0.80125603 </v>
   <v>       0.86533294       0.88466796       0.80125603 </v>
   <v>       0.11532850       0.36533700       0.80126500 </v>
   <v>       0.11532850       0.86533698       0.80126500 </v>
   <v>       0.61532850       0.36533700       0.80126500 </v>
   <v>       0.61532849       0.86533698       0.80126500 </v>
   <v>       0.38467151       0.13466300       0.80126500 </v>
   <v>       0.38467150       0.63466297       0.80126500 </v>
   <v>       0.88467149       0.13466300       0.80126500 </v>
   <v>       0.88467153       0.63466297       0.80126500 </v>
   <v>       0.99651278       0.00332781       0.60501102 </v>
   <v>       0.00601502       0.50527185       0.60502299 </v>
   <v>       0.50214700       0.00428534       0.60420874 </v>
   <v>       0.50272089       0.50073236       0.60449682 </v>
   <v>       0.25206578       0.25284094       0.60431588 </v>
   <v>       0.24730161       0.75248970       0.60381993 </v>
   <v>       0.74630648       0.25595080       0.60520338 </v>
   <v>       0.74172841       0.75734387       0.60317045 </v>
   <v>       0.00000050       0.00000050       0.70482896 </v>
   <v>       0.00000050       0.50000048       0.70482896 </v>
   <v>       0.50000048       0.00000050       0.70482896 </v>
   <v>       0.50000046       0.50000048       0.70482896 </v>
   <v>       0.24999999       0.24999947       0.70482499 </v>
   <v>       0.25000001       0.74999950       0.70482499 </v>
   <v>       0.74999999       0.24999947       0.70482499 </v>
   <v>       0.74999998       0.74999950       0.70482499 </v>
   <v>       0.00000000       0.00000000       0.80731797 </v>
   <v>       0.00000000       0.50000000       0.80731797 </v>
   <v>       0.50000000       0.00000000       0.80731797 </v>
   <v>       0.49999999       0.50000000       0.80731797 </v>
   <v>       0.24999999       0.25000000       0.80731797 </v>
   <v>       0.25000001       0.74999997       0.80731797 </v>
   <v>       0.74999999       0.25000000       0.80731797 </v>
   <v>       0.74999998       0.74999997       0.80731797 </v>
  </varray>
 </structure>
</modeling>
