 vasp.6.2.1 16May21 (build Nov 15 2021 14:57:28) complex                         
 executed on             LinuxPGI date 2023.07.30  20:02:56
 running on    4 total cores
 distrk:  each k-point on    4 cores,    1 groups
 distr:  one band on NCORE=   1 cores,    4 groups


--------------------------------------------------------------------------------------------------------


 INCAR:
   SYSTEM = PSC
   ISTART = 1
   ICHARG = 1
   PREC = Normal
   ENCUT = 500
   GGA_COMPAT = F
   NELM = 600
   ISYM = 0
   LREAL = Auto
   ISMEAR = 0
   SIGMA = 0.05
   AMIN = 0.01
   BMIX = 0.01
   LVTOT = T
   LWAVE = F
   LDIPOL = T
   IDIPOL = 3
   LVDW = T
   IVDW = 12

 POTCAR:    PAW_PBE H 15Jun2001                   
 POTCAR:    PAW_PBE C 08Apr2002                   
 POTCAR:    PAW_PBE N 08Apr2002                   
 POTCAR:    PAW_PBE I 08Apr2002                   
 POTCAR:    PAW_PBE Pb 08Apr2002                  
 WARNING: For LVTOT=.TRUE., VASP.5.x writes the TOTAL local potential to the
     file LOCPOT. If you want only the Hartree contributions, use LVHAR=.TRUE.
     instead. 

 POTCAR:    PAW_PBE H 15Jun2001                   
   SHA256 =  030f79b5d3ab3cf0e668861823c8fb652ff669f3e15e46930bd03bfd63a607b6 H/POTCAR              
   COPYR  = (c) Copyright 15Jun2001 Georg Kresse                                                    
   COPYR  = This file is part of the software VASP. Any use, copying, and all other rights are regul
   COPYR  = If you do not have a valid VASP license, you may not use, copy or distribute this file. 
   VRHFIN =H: ultrasoft test                                                                        
   LEXCH  = PE                                                                                      
   EATOM  =    12.4884 eV,    0.9179 Ry                                                             
                                                                                                    
   TITEL  = PAW_PBE H 15Jun2001                                                                     
   LULTRA =        F    use ultrasoft PP ?                                                          
   IUNSCR =        0    unscreen: 0-lin 1-nonlin 2-no                                               
   RPACOR =    0.000    partial core radius                                                         
   POMASS =    1.000; ZVAL   =    1.000    mass and valenz                                          
   RCORE  =    1.100    outmost cutoff radius                                                       
   RWIGS  =    0.700; RWIGS  =    0.370    wigner-seitz radius (au A)                               
   ENMAX  =  250.000; ENMIN  =  200.000 eV                                                          
   RCLOC  =    0.701    cutoff for local pot                                                        
   LCOR   =        T    correct aug charges                                                         
   LPAW   =        T    paw PP                                                                      
   EAUG   =  400.000                                                                                
   RMAX   =    1.123    core radius for proj-oper                                                   
   RAUG   =    1.200    factor for augmentation sphere                                              
   RDEP   =    1.112    radius for radial grids                                                     
   RDEPT  =    0.926    core radius for aug-charge                                                  
                                                                                                    
   Atomic configuration                                                                             
    2 entries                                                                                       
     n  l   j            E        occ.                                                              
     1  0  0.50        -6.4927   1.0000                                                             
     2  1  0.50        -3.4015   0.0000                                                             
   Description                                                                                      
     l       E           TYP  RCUT    TYP  RCUT                                                     
     0     -6.4927494     23  1.100                                                                 
     0      6.8029130     23  1.100                                                                 
     1     -4.0817478     23  1.100                                                                 
  local pseudopotential read in
  atomic valenz-charges read in
  non local Contribution for L=            0  read in
    real space projection operators read in
  non local Contribution for L=            0  read in
    real space projection operators read in
  non local Contribution for L=            1  read in
    real space projection operators read in
    PAW grid and wavefunctions read in
 
   number of l-projection  operators is LMAX  =            3
   number of lm-projection operators is LMMAX =            5
 
 POTCAR:    PAW_PBE C 08Apr2002                   
   SHA256 =  253f7b50bb8d59471dbedb8285d89021f4a42ed1a2c5d38a03a736e69125dd95 C/POTCAR              
   COPYR  = (c) Copyright 08Apr2002 Georg Kresse                                                    
   COPYR  = This file is part of the software VASP. Any use, copying, and all other rights are regul
   COPYR  = If you do not have a valid VASP license, you may not use, copy or distribute this file. 
   VRHFIN =C: s2p2                                                                                  
   LEXCH  = PE                                                                                      
   EATOM  =   147.1560 eV,   10.8157 Ry                                                             
                                                                                                    
   TITEL  = PAW_PBE C 08Apr2002                                                                     
   LULTRA =        F    use ultrasoft PP ?                                                          
   IUNSCR =        1    unscreen: 0-lin 1-nonlin 2-no                                               
   RPACOR =    1.200    partial core radius                                                         
   POMASS =   12.011; ZVAL   =    4.000    mass and valenz                                          
   RCORE  =    1.500    outmost cutoff radius                                                       
   RWIGS  =    1.630; RWIGS  =    0.863    wigner-seitz radius (au A)                               
   ENMAX  =  400.000; ENMIN  =  300.000 eV                                                          
   ICORE  =        2    local potential                                                             
   LCOR   =        T    correct aug charges                                                         
   LPAW   =        T    paw PP                                                                      
   EAUG   =  644.873                                                                                
   DEXC   =    0.000                                                                                
   RMAX   =    1.529    core radius for proj-oper                                                   
   RAUG   =    1.300    factor for augmentation sphere                                              
   RDEP   =    1.501    radius for radial grids                                                     
   RDEPT  =    1.300    core radius for aug-charge                                                  
                                                                                                    
   Atomic configuration                                                                             
    4 entries                                                                                       
     n  l   j            E        occ.                                                              
     1  0  0.50      -273.3789   2.0000                                                             
     2  0  0.50       -13.7508   2.0000                                                             
     2  1  0.50        -5.2854   2.0000                                                             
     3  2  1.50        -5.4423   0.0000                                                             
   Description                                                                                      
     l       E           TYP  RCUT    TYP  RCUT                                                     
     0    -13.7508458     23  1.200                                                                 
     0     -8.2022199     23  1.200                                                                 
     1     -5.2854383     23  1.500                                                                 
     1     34.0145650     23  1.500                                                                 
     2     -5.4423304      7  1.500                                                                 
  local pseudopotential read in
  partial core-charges read in
  partial kinetic energy density read in
  atomic valenz-charges read in
  non local Contribution for L=            0  read in
    real space projection operators read in
  non local Contribution for L=            0  read in
    real space projection operators read in
  non local Contribution for L=            1  read in
    real space projection operators read in
  non local Contribution for L=            1  read in
    real space projection operators read in
    PAW grid and wavefunctions read in
 
   number of l-projection  operators is LMAX  =            4
   number of lm-projection operators is LMMAX =            8
 
 POTCAR:    PAW_PBE N 08Apr2002                   
   SHA256 =  e053789ff3a61a86a1b75d8a110fcc91f86041011e7b0817c7c99e4e8a6349d7 N/POTCAR              
   COPYR  = (c) Copyright 08Apr2002 Georg Kresse                                                    
   COPYR  = This file is part of the software VASP. Any use, copying, and all other rights are regul
   COPYR  = If you do not have a valid VASP license, you may not use, copy or distribute this file. 
   VRHFIN =N: s2p3                                                                                  
   LEXCH  = PE                                                                                      
   EATOM  =   264.5486 eV,   19.4438 Ry                                                             
                                                                                                    
   TITEL  = PAW_PBE N 08Apr2002                                                                     
   LULTRA =        F    use ultrasoft PP ?                                                          
   IUNSCR =        1    unscreen: 0-lin 1-nonlin 2-no                                               
   RPACOR =    1.200    partial core radius                                                         
   POMASS =   14.001; ZVAL   =    5.000    mass and valenz                                          
   RCORE  =    1.500    outmost cutoff radius                                                       
   RWIGS  =    1.400; RWIGS  =    0.741    wigner-seitz radius (au A)                               
   ENMAX  =  400.000; ENMIN  =  300.000 eV                                                          
   ICORE  =        2    local potential                                                             
   LCOR   =        T    correct aug charges                                                         
   LPAW   =        T    paw PP                                                                      
   EAUG   =  627.112                                                                                
   DEXC   =    0.000                                                                                
   RMAX   =    1.529    core radius for proj-oper                                                   
   RAUG   =    1.300    factor for augmentation sphere                                              
   RDEP   =    1.514    radius for radial grids                                                     
   RDEPT  =    1.338    core radius for aug-charge                                                  
                                                                                                    
   Atomic configuration                                                                             
    4 entries                                                                                       
     n  l   j            E        occ.                                                              
     1  0  0.50      -384.7179   2.0000                                                             
     2  0  0.50       -18.5828   2.0000                                                             
     2  1  0.50        -7.0898   3.0000                                                             
     3  2  1.50        -6.8029   0.0000                                                             
   Description                                                                                      
     l       E           TYP  RCUT    TYP  RCUT                                                     
     0    -18.5828119     23  1.200                                                                 
     0    -13.5018863     23  1.200                                                                 
     1     -7.0897853     23  1.500                                                                 
     1      9.5240782     23  1.500                                                                 
     2     -6.8029130      7  1.500                                                                 
  local pseudopotential read in
  partial core-charges read in
  partial kinetic energy density read in
  atomic valenz-charges read in
  non local Contribution for L=            0  read in
    real space projection operators read in
  non local Contribution for L=            0  read in
    real space projection operators read in
  non local Contribution for L=            1  read in
    real space projection operators read in
  non local Contribution for L=            1  read in
    real space projection operators read in
    PAW grid and wavefunctions read in
 
   number of l-projection  operators is LMAX  =            4
   number of lm-projection operators is LMMAX =            8
 
 POTCAR:    PAW_PBE I 08Apr2002                   
   SHA256 =  e40f3f59b681c1fc3e3091736183c4589116986673d2b852a5012aec72758799 I/POTCAR              
   COPYR  = (c) Copyright 08Apr2002 Georg Kresse                                                    
   COPYR  = This file is part of the software VASP. Any use, copying, and all other rights are regul
   COPYR  = If you do not have a valid VASP license, you may not use, copy or distribute this file. 
   VRHFIN =I : s2p5                                                                                 
   LEXCH  = PE                                                                                      
   EATOM  =   315.8678 eV,   23.2156 Ry                                                             
                                                                                                    
   TITEL  = PAW_PBE I 08Apr2002                                                                     
   LULTRA =        F    use ultrasoft PP ?                                                          
   IUNSCR =        1    unscreen: 0-lin 1-nonlin 2-no                                               
   RPACOR =    2.200    partial core radius                                                         
   POMASS =  126.904; ZVAL   =    7.000    mass and valenz                                          
   RCORE  =    2.300    outmost cutoff radius                                                       
   RWIGS  =    2.810; RWIGS  =    1.487    wigner-seitz radius (au A)                               
   ENMAX  =  175.647; ENMIN  =  131.735 eV                                                          
   ICORE  =        3    local potential                                                             
   LCOR   =        T    correct aug charges                                                         
   LPAW   =        T    paw PP                                                                      
   EAUG   =  370.139                                                                                
   DEXC   =    0.000                                                                                
   RMAX   =    2.359    core radius for proj-oper                                                   
   RAUG   =    1.300    factor for augmentation sphere                                              
   RDEP   =    2.392    radius for radial grids                                                     
   RDEPT  =    2.170    core radius for aug-charge                                                  
                                                                                                    
   Atomic configuration                                                                             
   13 entries                                                                                       
     n  l   j            E        occ.                                                              
     1  0  0.50    -32976.3739   2.0000                                                             
     2  0  0.50     -5094.5933   2.0000                                                             
     2  1  1.50     -4572.0131   6.0000                                                             
     3  0  0.50     -1028.2813   2.0000                                                             
     3  1  1.50      -859.0250   6.0000                                                             
     3  2  2.50      -605.7620  10.0000                                                             
     4  0  0.50      -180.5540   2.0000                                                             
     4  1  1.50      -127.5306   6.0000                                                             
     4  2  2.50       -50.2720  10.0000                                                             
     5  0  0.50       -17.4058   2.0000                                                             
     5  1  0.50        -7.0851   5.0000                                                             
     5  2  1.50        -7.0750   0.0000                                                             
     4  3  2.50        -7.0750   0.0000                                                             
   Description                                                                                      
     l       E           TYP  RCUT    TYP  RCUT                                                     
     0    -17.4058016     23  2.300                                                                 
     0    -18.7663842     23  2.300                                                                 
     1     -7.0850686     23  2.300                                                                 
     1     -4.2150896     23  2.300                                                                 
     2     -7.0750295     23  2.300                                                                 
     3     -1.3605826     23  2.300                                                                 
  local pseudopotential read in
  partial core-charges read in
  partial kinetic energy density read in
  atomic valenz-charges read in
  non local Contribution for L=            0  read in
    real space projection operators read in
  non local Contribution for L=            0  read in
    real space projection operators read in
  non local Contribution for L=            1  read in
    real space projection operators read in
  non local Contribution for L=            1  read in
    real space projection operators read in
  non local Contribution for L=            2  read in
    real space projection operators read in
    PAW grid and wavefunctions read in
 
   number of l-projection  operators is LMAX  =            5
   number of lm-projection operators is LMMAX =           13
 
 POTCAR:    PAW_PBE Pb 08Apr2002                  
   SHA256 =  797118a27cf1bcd06b9881c67a26cdde129e3cd1a551dd4a281f9681ce847303 Pb/POTCAR             
   COPYR  = (c) Copyright 08Apr2002 Georg Kresse                                                    
   COPYR  = This file is part of the software VASP. Any use, copying, and all other rights are regul
   COPYR  = If you do not have a valid VASP license, you may not use, copy or distribute this file. 
   VRHFIN =Pb:                                                                                      
   LEXCH  = PE                                                                                      
   EATOM  =    96.9868 eV,    7.1283 Ry                                                             
                                                                                                    
   TITEL  = PAW_PBE Pb 08Apr2002                                                                    
   LULTRA =        F    use ultrasoft PP ?                                                          
   IUNSCR =        1    unscreen: 0-lin 1-nonlin 2-no                                               
   RPACOR =    2.200    partial core radius                                                         
   POMASS =  207.200; ZVAL   =    4.000    mass and valenz                                          
   RCORE  =    3.100    outmost cutoff radius                                                       
   RWIGS  =    3.260; RWIGS  =    1.725    wigner-seitz radius (au A)                               
   ENMAX  =   97.973; ENMIN  =   73.480 eV                                                          
   ICORE  =        3    local potential                                                             
   LCOR   =        T    correct aug charges                                                         
   LPAW   =        T    paw PP                                                                      
   EAUG   =  234.873                                                                                
   DEXC   =    0.000                                                                                
   RMAX   =    3.158    core radius for proj-oper                                                   
   RAUG   =    1.300    factor for augmentation sphere                                              
   RDEP   =    3.202    radius for radial grids                                                     
   RDEPT  =    2.659    core radius for aug-charge                                                  
                                                                                                    
   Atomic configuration                                                                             
   17 entries                                                                                       
     n  l   j            E        occ.                                                              
     1  0  0.50    -88091.8466   2.0000                                                             
     2  0  0.50    -15753.4197   2.0000                                                             
     2  1  1.50    -13508.1797   6.0000                                                             
     3  0  0.50     -3781.7194   2.0000                                                             
     3  1  1.50     -3138.2529   6.0000                                                             
     3  2  2.50     -2483.2977  10.0000                                                             
     4  0  0.50      -856.2895   2.0000                                                             
     4  1  1.50      -645.4943   6.0000                                                             
     4  2  2.50      -401.8768  10.0000                                                             
     4  3  3.50      -132.9059  14.0000                                                             
     5  0  0.50      -144.0950   2.0000                                                             
     5  1  1.50       -85.7879   6.0000                                                             
     5  2  2.50       -21.1769  10.0000                                                             
     6  0  0.50       -12.0372   2.0000                                                             
     6  1  1.50        -3.4971   2.0000                                                             
     6  2  2.50        -1.3606   0.0000                                                             
     5  3  2.50        -2.7212   0.0000                                                             
   Description                                                                                      
     l       E           TYP  RCUT    TYP  RCUT                                                     
     0    -12.0371566     23  3.100                                                                 
     0    -13.3977392     23  3.100                                                                 
     1     -3.4971341     23  3.100                                                                 
     1     -5.4423304     23  3.100                                                                 
     2     -1.3605826     23  3.100                                                                 
     3     -1.3605826     23  3.100                                                                 
  local pseudopotential read in
  partial core-charges read in
  partial kinetic energy density read in
  atomic valenz-charges read in
  non local Contribution for L=            0  read in
    real space projection operators read in
  non local Contribution for L=            0  read in
    real space projection operators read in
  non local Contribution for L=            1  read in
    real space projection operators read in
  non local Contribution for L=            1  read in
    real space projection operators read in
  non local Contribution for L=            2  read in
    real space projection operators read in
    PAW grid and wavefunctions read in
 
   number of l-projection  operators is LMAX  =            5
   number of lm-projection operators is LMMAX =           13
 
 Optimization of the real space projectors (new method)

 maximal supplied QI-value         = 34.20
 optimisation between [QCUT,QGAM] = [ 11.29, 22.57] = [ 35.68,142.71] Ry 
 Optimized for a Real-space Cutoff    1.16 Angstroem

   l    n(q)    QCUT    max X(q) W(low)/X(q) W(high)/X(q)  e(spline) 
   0      8    11.287    19.460    0.40E-03    0.73E-03    0.16E-06
   0      8    11.287    12.209    0.38E-03    0.70E-03    0.15E-06
   1      7    11.287     4.655    0.22E-03    0.25E-04    0.22E-06
 Optimization of the real space projectors (new method)

 maximal supplied QI-value         = 25.13
 optimisation between [QCUT,QGAM] = [ 11.31, 22.87] = [ 35.82,146.48] Ry 
 Optimized for a Real-space Cutoff    1.00 Angstroem

   l    n(q)    QCUT    max X(q) W(low)/X(q) W(high)/X(q)  e(spline) 
   0      7    11.310   115.676    0.43E-03    0.13E-02    0.19E-06
   0      7    11.310    87.132    0.43E-03    0.13E-02    0.18E-06
   1      6    11.310     4.429    0.42E-03    0.74E-03    0.11E-06
   1      6    11.310     2.733    0.34E-03    0.55E-03    0.92E-07
 Optimization of the real space projectors (new method)

 maximal supplied QI-value         = 25.13
 optimisation between [QCUT,QGAM] = [ 11.31, 22.87] = [ 35.82,146.48] Ry 
 Optimized for a Real-space Cutoff    1.27 Angstroem

   l    n(q)    QCUT    max X(q) W(low)/X(q) W(high)/X(q)  e(spline) 
   0      9    11.310    79.467    0.75E-04    0.16E-03    0.36E-06
   0      9    11.310    66.151    0.74E-04    0.16E-03    0.36E-06
   1      8    11.310    17.416    0.35E-03    0.12E-03    0.95E-06
   1      8    11.310    12.382    0.37E-03    0.13E-03    0.98E-06
 Optimization of the real space projectors (new method)

 maximal supplied QI-value         = 16.25
 optimisation between [QCUT,QGAM] = [ 11.38, 22.75] = [ 36.24,144.96] Ry 
 Optimized for a Real-space Cutoff    1.31 Angstroem

   l    n(q)    QCUT    max X(q) W(low)/X(q) W(high)/X(q)  e(spline) 
   0      9    11.376   194.483    0.24E-03    0.23E-03    0.67E-07
   0      9    11.376   190.334    0.23E-03    0.22E-03    0.65E-07
   1      8    11.376   116.687    0.25E-03    0.63E-04    0.16E-06
   1      8    11.376    88.696    0.25E-03    0.61E-04    0.16E-06
   2      8    11.376     4.877    0.17E-03    0.14E-03    0.29E-07
 Optimization of the real space projectors (new method)

 maximal supplied QI-value         = 12.09
 optimisation between [QCUT,QGAM] = [ 11.37, 22.86] = [ 36.19,146.31] Ry 
 Optimized for a Real-space Cutoff    1.66 Angstroem

   l    n(q)    QCUT    max X(q) W(low)/X(q) W(high)/X(q)  e(spline) 
   0     11    11.369   135.111    0.12E-03    0.69E-04    0.19E-05
   0     11    11.369   146.850    0.11E-03    0.65E-04    0.18E-05
   1     11    11.369   148.016    0.17E-03    0.32E-03    0.89E-06
   1     11    11.369   122.989    0.17E-03    0.32E-03    0.91E-06
   2     10    11.369     8.916    0.12E-03    0.45E-04    0.33E-06
  PAW_PBE H 15Jun2001                   :
 energy of atom  1       EATOM=  -12.4884
 kinetic energy error for atom=    0.0020 (will be added to EATOM!!)
  PAW_PBE C 08Apr2002                   :
 energy of atom  2       EATOM= -147.1560
 kinetic energy error for atom=    0.0076 (will be added to EATOM!!)
  PAW_PBE N 08Apr2002                   :
 energy of atom  3       EATOM= -264.5486
 kinetic energy error for atom=    0.0138 (will be added to EATOM!!)
  PAW_PBE I 08Apr2002                   :
 energy of atom  4       EATOM= -315.8678
 kinetic energy error for atom=    0.0009 (will be added to EATOM!!)
  PAW_PBE Pb 08Apr2002                  :
 energy of atom  5       EATOM=  -96.9868
 kinetic energy error for atom=    0.0000 (will be added to EATOM!!)
 
 
 POSCAR:  H  C  N  I Pb
  positions in cartesian coordinates
  No initial velocities read in
 exchange correlation table for  LEXCH =        8
   RHO(1)=    0.500       N(1)  =     2000
   RHO(2)=  100.500       N(2)  =     4000
 


--------------------------------------------------------------------------------------------------------


 ion  position               nearest neighbor table
   1  0.469  0.329  0.572- 187 1.01
   2  0.451  0.839  0.574- 188 1.02
   3  0.920  0.240  0.581- 189 1.03
   4  0.942  0.811  0.577- 190 1.04
   5  0.315  0.069  0.572- 194 1.03
   6  0.331  0.570  0.573- 195 1.03
   7  0.794  0.084  0.576- 196 1.03
   8  0.104  0.247  0.558- 183 1.03
   9  0.091  0.677  0.571- 184 1.01
  10  0.559  0.159  0.558- 185 1.02
  11  0.493  0.647  0.564- 186 1.03
  12  0.366  0.004  0.557- 194 1.04
  13  0.278  0.632  0.558- 195 1.03
  14  0.866  0.028  0.566- 196 1.03
  15  0.057  0.240  0.582- 183 1.01
  16  0.012  0.694  0.586- 184 1.03
  17  0.573  0.243  0.572- 185 1.02
  18  0.455  0.705  0.583- 186 1.03
  19  0.285  0.439  0.576- 191 1.03
  20  0.178  0.054  0.571- 192 1.03
  21  0.667  0.028  0.574- 193 1.02
  22  0.386  0.299  0.560- 187 1.02
  23  0.499  0.869  0.551- 188 1.02
  24  0.878  0.235  0.556- 189 1.03
  25  0.983  0.868  0.558- 190 1.03
  26  0.201  0.420  0.563- 191 1.04
  27  0.141  0.984  0.555- 192 1.02
  28  0.663  0.939  0.563- 193 1.03
  29  0.438  0.187  0.550- 146 1.09
  30  0.531  0.746  0.542- 147 1.08
  31  0.994  0.245  0.538- 144 1.10
  32  0.079  0.784  0.551- 145 1.10
  33  0.189  0.541  0.550- 148 1.10
  34  0.260  0.941  0.545- 149 1.10
  35  0.788  0.933  0.556- 150 1.10
  36  0.467  0.310  0.674- 205 1.01
  37  0.442  0.809  0.673- 206 1.02
  38  0.951  0.277  0.677- 207 1.03
  39  0.923  0.757  0.674- 208 1.01
  40  0.308  0.053  0.672- 209 1.02
  41  0.293  0.545  0.677- 210 1.02
  42  0.790  0.054  0.674- 211 1.02
  43  0.846  0.480  0.665- 212 1.01
  44  0.091  0.174  0.647- 197 1.02
  45  0.101  0.700  0.652- 198 1.03
  46  0.579  0.167  0.648- 199 1.02
  47  0.575  0.671  0.654- 200 1.02
  48  0.183  0.409  0.647- 201 1.02
  49  0.173  0.923  0.649- 202 1.04
  50  0.647  0.481  0.660- 203 1.03
  51  0.678  0.910  0.649- 204 1.04
  52  0.059  0.184  0.673- 197 1.02
  53  0.040  0.678  0.673- 198 1.02
  54  0.570  0.212  0.672- 199 1.02
  55  0.537  0.703  0.678- 200 1.00
  56  0.203  0.435  0.674- 201 1.01
  57  0.202  0.954  0.674- 202 1.02
  58  0.719  0.430  0.671- 203 1.02
  59  0.699  0.943  0.674- 204 1.01
  60  0.418  0.321  0.650- 205 1.02
  61  0.425  0.834  0.647- 206 1.02
  62  0.925  0.321  0.653- 207 1.03
  63  0.916  0.823  0.654- 208 1.02
  64  0.336  0.075  0.646- 209 1.02
  65  0.320  0.584  0.653- 210 1.00
  66  0.822  0.082  0.649- 211 1.02
  67  0.855  0.555  0.648- 212 1.03
  68  0.011  0.259  0.632- 151 1.10
  69  0.028  0.794  0.639- 152 1.10
  70  0.486  0.232  0.632- 153 1.10
  71  0.508  0.751  0.632- 154 1.10
  72  0.255  0.996  0.630- 156 1.10
  73  0.254  0.501  0.632- 155 1.10
  74  0.755  0.994  0.631- 158 1.10
  75  0.726  0.562  0.642- 157 1.12
  76  0.449  0.301  0.769- 221 1.02
  77  0.449  0.801  0.769- 222 1.02
  78  0.949  0.301  0.769- 223 1.02
  79  0.949  0.801  0.769- 224 1.02
  80  0.301  0.051  0.769- 225 1.02
  81  0.301  0.551  0.769- 226 1.02
  82  0.801  0.051  0.769- 227 1.02
  83  0.801  0.551  0.769- 228 1.02
  84  0.079  0.171  0.743- 213 1.02
  85  0.079  0.671  0.743- 214 1.02
  86  0.579  0.171  0.743- 215 1.02
  87  0.579  0.671  0.743- 216 1.02
  88  0.171  0.421  0.743- 217 1.02
  89  0.171  0.921  0.743- 218 1.02
  90  0.671  0.421  0.743- 219 1.02
  91  0.671  0.921  0.743- 220 1.02
  92  0.051  0.199  0.769- 213 1.02
  93  0.051  0.699  0.769- 214 1.02
  94  0.551  0.199  0.769- 215 1.02
  95  0.551  0.699  0.769- 216 1.02
  96  0.199  0.449  0.769- 217 1.02
  97  0.199  0.949  0.769- 218 1.02
  98  0.699  0.449  0.769- 219 1.02
  99  0.699  0.949  0.769- 220 1.02
 100  0.421  0.329  0.743- 221 1.02
 101  0.421  0.829  0.743- 222 1.02
 102  0.921  0.329  0.743- 223 1.02
 103  0.921  0.829  0.743- 224 1.02
 104  0.329  0.079  0.743- 225 1.02
 105  0.329  0.579  0.743- 226 1.02
 106  0.829  0.079  0.743- 227 1.02
 107  0.829  0.579  0.743- 228 1.02
 108  0.000  0.250  0.726- 161 1.09
 109  0.000  0.750  0.726- 162 1.09
 110  0.500  0.250  0.726- 159 1.09
 111  0.500  0.750  0.726- 160 1.09
 112  0.250  0.000  0.726- 163 1.09
 113  0.250  0.500  0.726- 164 1.09
 114  0.750  0.000  0.726- 165 1.09
 115  0.750  0.500  0.726- 166 1.09
 116  0.719  0.439  0.542- 173 1.10
 117  0.736  0.495  0.519- 173 1.10
 118  0.657  0.554  0.560- 174 1.09
 119  0.710  0.636  0.558- 174 1.10
 120  0.848  0.503  0.571- 175 1.10
 121  0.787  0.572  0.581- 175 1.10
 122  0.868  0.561  0.530- 176 1.09
 123  0.795  0.625  0.526- 176 1.09
 124  0.867  0.463  0.519- 177 1.10
 125  0.864  0.422  0.544- 177 1.11
 126  0.871  0.325  0.518- 178 1.10
 127  0.783  0.322  0.531- 178 1.10
 128  0.637  0.551  0.520- 179 1.10
 129  0.688  0.636  0.517- 179 1.10
 130  0.607  0.632  0.533- 179 1.10
 131  0.752  0.459  0.598- 180 1.09
 132  0.753  0.407  0.574- 180 1.09
 133  0.681  0.473  0.579- 180 1.09
 134  0.820  0.687  0.560- 181 1.10
 135  0.901  0.680  0.545- 181 1.09
 136  0.891  0.621  0.567- 181 1.09
 137  0.818  0.384  0.485- 182 1.10
 138  0.782  0.296  0.492- 182 1.10
 139  0.662  0.315  0.521- 168 1.09
 140  0.728  0.462  0.470- 169 1.09
 141  0.537  0.372  0.521- 170 1.09
 142  0.602  0.517  0.469- 171 1.09
 143  0.507  0.472  0.495- 172 1.08
 144  0.992  0.243  0.556-  31 1.10 183 1.30 189 1.31
 145  0.036  0.770  0.563-  32 1.10 184 1.30 190 1.32
 146  0.472  0.229  0.558-  29 1.09 187 1.30 185 1.31
 147  0.500  0.757  0.557-  30 1.08 186 1.31 188 1.32
 148  0.238  0.526  0.559-  33 1.10 191 1.31 195 1.31
 149  0.254  0.990  0.555-  34 1.10 194 1.31 192 1.31
 150  0.765  0.983  0.563-  35 1.10 196 1.31 193 1.31
 151  0.008  0.247  0.650-  68 1.10 207 1.31 197 1.31
 152  0.009  0.762  0.653-  69 1.10 208 1.31 198 1.31
 153  0.499  0.244  0.648-  70 1.10 199 1.31 205 1.32
 154  0.500  0.753  0.650-  71 1.10 206 1.32 200 1.32
 155  0.252  0.496  0.650-  73 1.10 201 1.31 210 1.33
 156  0.254  0.999  0.647-  72 1.10 202 1.31 209 1.32
 157  0.749  0.519  0.653-  75 1.12 203 1.31 212 1.32
 158  0.750  0.996  0.649-  74 1.10 204 1.31 211 1.33
 159  0.500  0.250  0.743- 110 1.09 221 1.31 215 1.31
 160  0.500  0.750  0.743- 111 1.09 222 1.31 216 1.31
 161  1.000  0.250  0.743- 108 1.09 223 1.31 213 1.31
 162  1.000  0.750  0.743- 109 1.09 224 1.31 214 1.31
 163  0.250  0.000  0.743- 112 1.09 225 1.31 218 1.31
 164  0.250  0.500  0.743- 113 1.09 226 1.31 217 1.31
 165  0.750  0.000  0.743- 114 1.09 227 1.31 220 1.31
 166  0.750  0.500  0.743- 115 1.09 228 1.31 219 1.31
 167  0.704  0.384  0.495- 168 1.40 169 1.41 182 1.52
 168  0.650  0.359  0.509- 139 1.09 167 1.40 170 1.40
 169  0.687  0.441  0.481- 140 1.09 171 1.40 167 1.41
 170  0.579  0.390  0.509- 141 1.09 172 1.39 168 1.40
 171  0.616  0.473  0.480- 142 1.09 169 1.40 172 1.42
 172  0.562  0.447  0.495- 143 1.08 170 1.39 171 1.42
 173  0.760  0.474  0.534- 116 1.10 117 1.10 229 1.53 177 1.53
 174  0.695  0.585  0.549- 118 1.09 119 1.10 179 1.52 229 1.52
 175  0.790  0.521  0.571- 121 1.10 120 1.10 180 1.51 229 1.53
 176  0.825  0.594  0.538- 123 1.09 122 1.09 181 1.51 229 1.53
 177  0.831  0.431  0.530- 124 1.10 125 1.11 173 1.53 178 1.55
 178  0.817  0.355  0.519- 127 1.10 126 1.10 182 1.54 177 1.55
 179  0.657  0.601  0.528- 128 1.10 130 1.10 129 1.10 174 1.52
 180  0.740  0.462  0.581- 132 1.09 131 1.09 133 1.09 175 1.51
 181  0.861  0.648  0.554- 136 1.09 135 1.09 134 1.10 176 1.51
 182  0.783  0.354  0.497- 138 1.10 137 1.10 167 1.52 178 1.54
 183  0.055  0.241  0.566-  15 1.01   8 1.03 144 1.30
 184  0.047  0.710  0.574-   9 1.01  16 1.03 145 1.30
 185  0.541  0.211  0.562-  17 1.02  10 1.02 146 1.31
 186  0.485  0.700  0.569-  18 1.03  11 1.03 147 1.31
 187  0.442  0.292  0.563-   1 1.01  22 1.02 146 1.30
 188  0.481  0.826  0.561-   2 1.02  23 1.02 147 1.32
 189  0.926  0.244  0.565-   3 1.03  24 1.03 144 1.31
 190  0.980  0.816  0.565-  25 1.03   4 1.04 145 1.32
 191  0.243  0.458  0.566-  19 1.03  26 1.04 148 1.31
 192  0.187  0.011  0.561-  27 1.02  20 1.03 149 1.31
 193  0.693  0.986  0.566-  21 1.02  28 1.03 150 1.31
 194  0.314  0.025  0.561-   5 1.03  12 1.04 149 1.31
 195  0.287  0.578  0.563-   6 1.03  13 1.03 148 1.31
 196  0.811  0.035  0.569-  14 1.03   7 1.03 150 1.31
 197  0.055  0.198  0.657-  52 1.02  44 1.02 151 1.31
 198  0.052  0.710  0.660-  53 1.02  45 1.03 152 1.31
 199  0.552  0.206  0.657-  54 1.02  46 1.02 153 1.31
 200  0.540  0.706  0.662-  55 1.00  47 1.02 154 1.32
 201  0.211  0.443  0.658-  56 1.01  48 1.02 155 1.31
 202  0.207  0.957  0.658-  57 1.02  49 1.04 156 1.31
 203  0.702  0.472  0.662-  58 1.02  50 1.03 157 1.31
 204  0.707  0.948  0.658-  59 1.01  51 1.04 158 1.31
 205  0.459  0.295  0.658-  36 1.01  60 1.02 153 1.32
 206  0.453  0.802  0.657-  37 1.02  61 1.02 154 1.32
 207  0.959  0.283  0.661-  38 1.03  62 1.03 151 1.31
 208  0.946  0.783  0.661-  39 1.01  63 1.02 152 1.31
 209  0.302  0.045  0.656-  40 1.02  64 1.02 156 1.32
 210  0.291  0.545  0.661-  65 1.00  41 1.02 155 1.33
 211  0.790  0.047  0.658-  42 1.02  66 1.02 158 1.33
 212  0.821  0.517  0.656-  43 1.01  67 1.03 157 1.32
 213  0.046  0.204  0.753-  92 1.02  84 1.02 161 1.31
 214  0.046  0.704  0.753-  93 1.02  85 1.02 162 1.31
 215  0.546  0.204  0.753-  94 1.02  86 1.02 159 1.31
 216  0.546  0.704  0.753-  95 1.02  87 1.02 160 1.31
 217  0.204  0.454  0.753-  96 1.02  88 1.02 164 1.31
 218  0.204  0.954  0.753-  97 1.02  89 1.02 163 1.31
 219  0.704  0.454  0.753-  98 1.02  90 1.02 166 1.31
 220  0.704  0.954  0.753-  99 1.02  91 1.02 165 1.31
 221  0.454  0.296  0.753-  76 1.02 100 1.02 159 1.31
 222  0.454  0.796  0.753-  77 1.02 101 1.02 160 1.31
 223  0.954  0.296  0.753-  78 1.02 102 1.02 161 1.31
 224  0.954  0.796  0.753-  79 1.02 103 1.02 162 1.31
 225  0.296  0.046  0.753-  80 1.02 104 1.02 163 1.31
 226  0.296  0.546  0.753-  81 1.02 105 1.02 164 1.31
 227  0.796  0.046  0.753-  82 1.02 106 1.02 165 1.31
 228  0.796  0.546  0.753-  83 1.02 107 1.02 166 1.31
 229  0.768  0.542  0.548- 174 1.52 173 1.53 175 1.53 176 1.53
 230  0.507  0.017  0.552- 304 3.29
 231  0.482  0.510  0.555- 305 3.14
 232  0.994  0.006  0.552- 302 3.32
 233  0.033  0.507  0.555- 303 3.16
 234  0.250  0.248  0.554- 306 3.22
 235  0.239  0.766  0.553- 307 3.20
 236  0.734  0.211  0.556- 308 3.20
 237  0.702  0.794  0.553- 309 3.24
 238  0.001  0.994  0.654- 302 3.09 310 3.15
 239  0.018  0.494  0.655- 311 3.10 303 3.19
 240  0.503  0.002  0.654- 304 3.12 312 3.15
 241  0.504  0.495  0.655- 313 3.10 305 3.16
 242  0.257  0.244  0.655- 314 3.12 306 3.13
 243  0.251  0.756  0.654- 315 3.15 307 3.17
 244  0.747  0.265  0.655- 316 3.10 308 3.12
 245  0.749  0.742  0.654- 317 3.19 309 3.25
 246  0.136  0.117  0.607- 306 3.24 302 3.24
 247  0.149  0.610  0.611- 307 3.18 303 3.20
 248  0.641  0.113  0.611- 304 3.18 308 3.23
 249  0.625  0.624  0.612- 305 3.20 309 3.24
 250  0.362  0.389  0.609- 306 3.17 305 3.21
 251  0.373  0.881  0.606- 307 3.25 304 3.25
 252  0.886  0.371  0.612- 308 3.28 303 3.31
 253  0.867  0.880  0.609- 309 3.23 302 3.24
 254  0.120  0.365  0.609- 306 3.09 303 3.28
 255  0.122  0.876  0.608- 307 3.15 302 3.23
 256  0.592  0.347  0.603- 308 3.22 305 3.27
 257  0.613  0.866  0.611- 309 3.07 304 3.25
 258  0.383  0.132  0.606- 304 3.13 306 3.27
 259  0.381  0.633  0.612- 305 3.22 307 3.30
 260  0.886  0.141  0.613- 302 3.24 308 3.32
 261  0.909  0.648  0.616- 303 3.19 309 3.74
 262  0.000  0.000  0.755- 310 3.13 318 3.27
 263  0.000  0.500  0.755- 311 3.13 319 3.27
 264  0.500  0.000  0.755- 312 3.13 320 3.27
 265  0.500  0.500  0.755- 313 3.13 321 3.27
 266  0.250  0.250  0.755- 314 3.13 322 3.27
 267  0.250  0.750  0.755- 315 3.13 323 3.27
 268  0.750  0.250  0.755- 316 3.13 324 3.27
 269  0.750  0.750  0.755- 317 3.13 325 3.27
 270  0.136  0.114  0.705- 310 3.20 314 3.20
 271  0.136  0.614  0.705- 311 3.20 315 3.20
 272  0.636  0.114  0.705- 312 3.20 316 3.20
 273  0.636  0.614  0.705- 313 3.20 317 3.20
 274  0.364  0.386  0.705- 313 3.20 314 3.20
 275  0.364  0.886  0.705- 312 3.20 315 3.20
 276  0.864  0.386  0.705- 311 3.20 316 3.20
 277  0.864  0.886  0.705- 310 3.20 317 3.20
 278  0.114  0.364  0.705- 314 3.21 311 3.21
 279  0.114  0.864  0.705- 315 3.21 310 3.21
 280  0.614  0.364  0.705- 316 3.21 313 3.21
 281  0.614  0.864  0.705- 317 3.21 312 3.21
 282  0.386  0.136  0.705- 314 3.21 312 3.21
 283  0.386  0.636  0.705- 315 3.21 313 3.21
 284  0.886  0.136  0.705- 316 3.21 310 3.21
 285  0.886  0.636  0.705- 317 3.21 311 3.21
 286  0.135  0.115  0.801- 318 3.22 322 3.22
 287  0.135  0.615  0.801- 319 3.22 323 3.22
 288  0.635  0.115  0.801- 320 3.22 324 3.22
 289  0.635  0.615  0.801- 321 3.22 325 3.22
 290  0.365  0.385  0.801- 321 3.22 322 3.22
 291  0.365  0.885  0.801- 320 3.22 323 3.22
 292  0.865  0.385  0.801- 319 3.22 324 3.22
 293  0.865  0.885  0.801- 318 3.22 325 3.22
 294  0.115  0.365  0.801- 319 3.23 322 3.23
 295  0.115  0.865  0.801- 318 3.23 323 3.23
 296  0.615  0.365  0.801- 321 3.23 324 3.23
 297  0.615  0.865  0.801- 320 3.23 325 3.23
 298  0.385  0.135  0.801- 320 3.23 322 3.23
 299  0.385  0.635  0.801- 321 3.23 323 3.23
 300  0.885  0.135  0.801- 318 3.23 324 3.23
 301  0.885  0.635  0.801- 319 3.23 325 3.23
 302  0.997  0.003  0.605- 238 3.09 255 3.23 253 3.24 260 3.24 246 3.24 232 3.32
 303  0.007  0.507  0.605- 233 3.16 261 3.19 239 3.19 247 3.20 254 3.28 252 3.31
 304  0.503  0.006  0.605- 240 3.12 258 3.13 248 3.18 251 3.25 257 3.25 230 3.29
 305  0.499  0.502  0.605- 231 3.14 241 3.16 249 3.20 250 3.21 259 3.22 256 3.27
 306  0.250  0.255  0.605- 254 3.09 242 3.13 250 3.17 234 3.22 246 3.24 258 3.27
 307  0.247  0.754  0.604- 255 3.15 243 3.17 247 3.18 235 3.20 251 3.25 259 3.30
 308  0.746  0.257  0.606- 244 3.12 236 3.20 256 3.22 248 3.23 252 3.28 260 3.32
 309  0.740  0.757  0.602- 257 3.07 253 3.23 237 3.24 249 3.24 245 3.25 261 3.74
 310  0.000  0.000  0.705- 262 3.13 238 3.15 270 3.20 277 3.20 279 3.21 284 3.21
 311  0.000  0.500  0.705- 239 3.10 263 3.13 271 3.20 276 3.20 278 3.21 285 3.21
 312  0.500  0.000  0.705- 264 3.13 240 3.15 272 3.20 275 3.20 281 3.21 282 3.21
 313  0.500  0.500  0.705- 241 3.10 265 3.13 273 3.20 274 3.20 280 3.21 283 3.21
 314  0.250  0.250  0.705- 242 3.12 266 3.13 270 3.20 274 3.20 282 3.21 278 3.21
 315  0.250  0.750  0.705- 267 3.13 243 3.15 271 3.20 275 3.20 283 3.21 279 3.21
 316  0.750  0.250  0.705- 244 3.10 268 3.13 272 3.20 276 3.20 284 3.21 280 3.21
 317  0.750  0.750  0.705- 269 3.13 245 3.19 273 3.20 277 3.20 285 3.21 281 3.21
 318  0.000  0.000  0.807- 286 3.22 293 3.22 300 3.23 295 3.23 262 3.27
 319  0.000  0.500  0.807- 287 3.22 292 3.22 301 3.23 294 3.23 263 3.27
 320  0.500  0.000  0.807- 288 3.22 291 3.22 298 3.23 297 3.23 264 3.27
 321  0.500  0.500  0.807- 289 3.22 290 3.22 299 3.23 296 3.23 265 3.27
 322  0.250  0.250  0.807- 290 3.22 286 3.22 294 3.23 298 3.23 266 3.27
 323  0.250  0.750  0.807- 291 3.22 287 3.22 299 3.23 295 3.23 267 3.27
 324  0.750  0.250  0.807- 292 3.22 288 3.22 296 3.23 300 3.23 268 3.27
 325  0.750  0.750  0.807- 293 3.22 289 3.22 297 3.23 301 3.23 269 3.27
 

IMPORTANT INFORMATION: All symmetrisations will be switched off!
NOSYMM: (Re-)initialisation of all symmetry stuff for point group C_1.


----------------------------------------------------------------------------------------

                                     Primitive cell                                     

  volume of cell :   20385.2105

  direct lattice vectors                    reciprocal lattice vectors
    18.060800552  0.000000000  0.000000000     0.055368531  0.000015077 -0.000000000
    -0.004918649 18.062799454  0.000000000     0.000000000  0.055362404  0.000000000
     0.000000000  0.000000000 62.487499237     0.000000000 -0.000000000  0.016003201

  length of vectors
    18.060800552 18.062800123 62.487499237     0.055368533  0.055362404  0.016003201

  position of ions in fractional coordinates (direct lattice)
     0.468799504  0.329261548  0.572494389
     0.451105957  0.839085432  0.573868504
     0.919820975  0.240392560  0.581150234
     0.941591385  0.811334115  0.577167931
     0.315373396  0.068512187  0.571758035
     0.331312130  0.569557330  0.572959203
     0.793655713  0.083900750  0.575551152
     0.104363664  0.247366160  0.558118161
     0.090678205  0.676850129  0.570845560
     0.558790828  0.159160153  0.558204177
     0.493046154  0.647051053  0.563685376
     0.366182354  0.004478137  0.557120769
     0.278070982  0.631535022  0.557739606
     0.866421142  0.028169742  0.565700244
     0.056722945  0.240432291  0.582060267
     0.012409718  0.693883935  0.586235418
     0.572845662  0.243337511  0.571513113
     0.455346499  0.705284121  0.583128596
     0.284803216  0.439169391  0.575730204
     0.177871403  0.054351863  0.571160015
     0.666930942  0.028412084  0.573605573
     0.386411321  0.299314744  0.560394373
     0.499239421  0.868830971  0.551210713
     0.878096458  0.234966197  0.556375015
     0.983350292  0.867808702  0.557933127
     0.201274260  0.420351788  0.562807087
     0.140597915  0.984481005  0.555425118
     0.662858863  0.938735288  0.562615399
     0.438244849  0.187475178  0.549964858
     0.530917328  0.745725419  0.542097989
     0.993736019  0.244681819  0.538085956
     0.078826662  0.783883586  0.551023053
     0.189011314  0.540820385  0.549734893
     0.259958993  0.940692110  0.545445705
     0.788257451  0.932871747  0.555862034
     0.466846092  0.310075180  0.673514960
     0.441565661  0.808784144  0.673116931
     0.951182803  0.277256603  0.677027015
     0.922666766  0.756997676  0.674014022
     0.307637165  0.052575768  0.672183151
     0.292899305  0.545464155  0.676975186
     0.790271547  0.054283239  0.674424932
     0.846428248  0.479763855  0.665440225
     0.091123036  0.173564990  0.646677744
     0.101381688  0.699534345  0.652460334
     0.579179515  0.167193390  0.647838072
     0.575096156  0.671084726  0.653833289
     0.183327619  0.409120872  0.647227354
     0.172598926  0.922931180  0.648810434
     0.646754753  0.481119066  0.660019524
     0.677938493  0.910402688  0.648612213
     0.058605899  0.183765242  0.672776104
     0.039776873  0.677974139  0.673147638
     0.569517376  0.212026137  0.672338822
     0.536541649  0.703278600  0.677602265
     0.203229668  0.435038287  0.673607691
     0.202388935  0.954357831  0.673868302
     0.718780351  0.430041460  0.671417922
     0.699029016  0.943344290  0.674124457
     0.417667061  0.321032577  0.649920214
     0.425426815  0.834291928  0.646578970
     0.925253236  0.320628068  0.653074715
     0.916173071  0.823356151  0.654039263
     0.336054419  0.074759600  0.646244796
     0.319682765  0.583550675  0.652616798
     0.822071768  0.081516122  0.649247899
     0.854940735  0.554513047  0.648048441
     0.011368604  0.258971095  0.632422757
     0.027801236  0.793681678  0.638757215
     0.485697476  0.231707629  0.631569742
     0.507511004  0.750993679  0.632436004
     0.255130367  0.995930786  0.629720984
     0.253512480  0.501258592  0.632077656
     0.754715605  0.993639207  0.631050717
     0.726333266  0.562473727  0.642341062
     0.448745018  0.301283966  0.768889017
     0.448745007  0.801283913  0.768889017
     0.948744965  0.301283966  0.768889017
     0.948745007  0.801283913  0.768889017
     0.301275995  0.051294496  0.768872961
     0.301276011  0.551294499  0.768872961
     0.801275943  0.051294496  0.768872961
     0.801275984  0.551294499  0.768872961
     0.078771004  0.171180501  0.743441971
     0.078771006  0.671180448  0.743441971
     0.578771004  0.171180501  0.743441971
     0.578770992  0.671180448  0.743441971
     0.171199499  0.421174482  0.743421032
     0.171199501  0.921174508  0.743421032
     0.671199512  0.421174482  0.743421032
     0.671199501  0.921174508  0.743421032
     0.051256000  0.198714991  0.768889017
     0.051256002  0.698714925  0.768889017
     0.551256027  0.198714991  0.768889017
     0.551256016  0.698714925  0.768889017
     0.198723491  0.448703970  0.768872046
     0.198723493  0.948703970  0.768872046
     0.698723518  0.448703970  0.768872046
     0.698723507  0.948703970  0.768872046
     0.421231519  0.328817467  0.743441971
     0.421231508  0.828817440  0.743441971
     0.921231466  0.328817467  0.743441971
     0.921231508  0.828817440  0.743441971
     0.328800503  0.078824997  0.743421032
     0.328800492  0.578824964  0.743421032
     0.828800477  0.078824997  0.743421032
     0.828800519  0.578824964  0.743421032
     0.000003500  0.250001478  0.725821992
     0.000003500  0.750001452  0.725821992
     0.500003506  0.250001478  0.725821992
     0.500003495  0.750001452  0.725821992
     0.250000502  0.000000000  0.725803983
     0.250000517  0.500000000  0.725803983
     0.750000502  0.000000000  0.725803983
     0.750000490  0.500000000  0.725803983
     0.718858703  0.438544160  0.541696053
     0.735647662  0.495034904  0.519024588
     0.657109589  0.553856772  0.559689276
     0.709999374  0.636494099  0.557602799
     0.848032793  0.502658998  0.571019728
     0.786551776  0.571875677  0.580516013
     0.867603523  0.561185621  0.530335383
     0.794530580  0.624723696  0.526119635
     0.866768995  0.462809193  0.518771119
     0.864283389  0.422147675  0.544404908
     0.870586448  0.325029839  0.518319307
     0.783116988  0.322062502  0.530531650
     0.636868494  0.551274859  0.520130461
     0.688425750  0.635925204  0.517328692
     0.606782221  0.632414315  0.532867200
     0.752367762  0.458833050  0.597788144
     0.752746559  0.407394308  0.574117211
     0.680776173  0.472550527  0.579068702
     0.820402853  0.687399902  0.560375204
     0.901019159  0.680310649  0.544640734
     0.890784468  0.621013760  0.566548192
     0.818434079  0.383986895  0.485382300
     0.782105225  0.295906626  0.491599730
     0.661750263  0.314724704  0.520670425
     0.728390836  0.461945000  0.469716843
     0.536669706  0.371757073  0.520574580
     0.602428220  0.517322398  0.469360418
     0.507090176  0.471659460  0.495075797
     0.991575070  0.243068559  0.555675290
     0.036234590  0.769951381  0.562839565
     0.471816446  0.229258924  0.558055160
     0.500351859  0.756664839  0.556642768
     0.238054401  0.526273404  0.559174159
     0.254008088  0.990335032  0.555376951
     0.764677924  0.982903449  0.563248094
     0.008185280  0.247125693  0.649655330
     0.008911274  0.762296400  0.652857752
     0.498660436  0.244334965  0.648296354
     0.500233533  0.752614463  0.649945854
     0.251746696  0.495900364  0.649681946
     0.254183060  0.998700355  0.647363245
     0.749045468  0.518547411  0.653020138
     0.749996693  0.995515831  0.648627414
     0.499988984  0.249994984  0.743277021
     0.499989025  0.749994958  0.743277021
     0.999988984  0.249994984  0.743277021
     0.999989025  0.749994958  0.743277021
     0.250000502  0.000001000  0.743255960
     0.250000517  0.500001003  0.743255960
     0.750000502  0.000001000  0.743255960
     0.750000491  0.500001003  0.743255960
     0.704257488  0.384138820  0.495243861
     0.649537698  0.358727972  0.509225234
     0.686614283  0.441304583  0.480709368
     0.578521541  0.390207098  0.509197396
     0.616053955  0.472695774  0.480457944
     0.561522905  0.446775586  0.494912190
     0.759986548  0.474440579  0.534044743
     0.695217780  0.584602036  0.549499128
     0.789634561  0.520717819  0.571084561
     0.825237480  0.594480116  0.538356091
     0.831438719  0.431191447  0.529695728
     0.817182404  0.354635358  0.519353633
     0.656523792  0.600994297  0.528452071
     0.740208354  0.462059096  0.580675590
     0.860503439  0.648194862  0.553704376
     0.782539878  0.354173801  0.496790068
     0.054668439  0.241115704  0.565836258
     0.046531103  0.709578580  0.573898905
     0.540831544  0.211294928  0.561787474
     0.485277503  0.700242627  0.569202532
     0.441795630  0.292200755  0.563114461
     0.481098464  0.825852163  0.560552059
     0.926138072  0.243873962  0.564854494
     0.979971206  0.815937018  0.564849671
     0.242740943  0.458274398  0.566170004
     0.186968233  0.011190505  0.560746983
     0.692825245  0.986235848  0.565704212
     0.314314293  0.024804171  0.561269365
     0.287457280  0.577992978  0.562833521
     0.810995655  0.035413937  0.568592119
     0.055256873  0.198282208  0.657075027
     0.052098487  0.709563903  0.660114514
     0.552446390  0.206129900  0.656846343
     0.539704861  0.706049529  0.661595523
     0.210838478  0.442809845  0.657672558
     0.207177314  0.957005346  0.657688308
     0.702483087  0.472003754  0.661651870
     0.706873749  0.947514424  0.658105384
     0.459125583  0.295351564  0.658068572
     0.452733465  0.801653392  0.657330571
     0.958852174  0.283020475  0.660854896
     0.945847643  0.782561478  0.661326182
     0.302267227  0.044910465  0.656136057
     0.291281829  0.544892039  0.660739028
     0.789937578  0.047158360  0.658309221
     0.821263494  0.517344309  0.655810064
     0.045862501  0.204119496  0.752725994
     0.045862500  0.704119456  0.752725994
     0.545862507  0.204119496  0.752725994
     0.545862496  0.704119456  0.752725994
     0.204119002  0.454101003  0.752704994
     0.204118991  0.954100951  0.752704994
     0.704118976  0.454101003  0.752704994
     0.704118964  0.954100951  0.752704994
     0.454140018  0.295888490  0.752726971
     0.454140007  0.795888516  0.752726971
     0.954140018  0.295888490  0.752726971
     0.954140060  0.795888516  0.752726971
     0.295882492  0.045900498  0.752704994
     0.295882481  0.545900528  0.752704994
     0.795882439  0.045900498  0.752704994
     0.795882481  0.545900528  0.752704994
     0.768060415  0.542470947  0.548309620
     0.507384492  0.017335606  0.551973072
     0.482490960  0.510445603  0.554941378
     0.994479935  0.005953667  0.551832297
     0.033328054  0.507034291  0.554719899
     0.249951828  0.248025867  0.553546507
     0.239142592  0.766462772  0.552723466
     0.734192475  0.211274020  0.556132901
     0.702362614  0.794339115  0.552640259
     0.001337924  0.994093354  0.654389065
     0.017613209  0.494007091  0.655450312
     0.502724003  0.002423893  0.654432286
     0.503856661  0.495175768  0.655323089
     0.257474224  0.244450486  0.655026826
     0.250715487  0.755874985  0.654482162
     0.747354395  0.264989769  0.655441338
     0.748700176  0.742456555  0.653858563
     0.135650132  0.116819366  0.607129551
     0.149082188  0.609863255  0.610889214
     0.641171673  0.113496291  0.610628176
     0.625231831  0.623682262  0.612139708
     0.362030508  0.389316480  0.608635528
     0.373494642  0.881344713  0.605856103
     0.886230487  0.370540059  0.611562933
     0.867480496  0.879959407  0.609020798
     0.120149613  0.365101025  0.608700666
     0.122121519  0.875600112  0.607714751
     0.592388020  0.347371398  0.603141937
     0.612824834  0.865612318  0.610634830
     0.383279912  0.132182388  0.606000175
     0.380524458  0.633263197  0.612158572
     0.885939442  0.141004950  0.612599334
     0.908632107  0.647533571  0.616408079
     0.000000000  0.000000000  0.754927972
     0.000000000  0.500000000  0.754927972
     0.500000000  0.000000000  0.754927972
     0.499999989  0.500000000  0.754927972
     0.250000496  0.250000000  0.754939022
     0.250000511  0.749999974  0.754939022
     0.750000470  0.250000000  0.754939022
     0.750000458  0.749999974  0.754939022
     0.135790500  0.114209997  0.704782994
     0.135790502  0.614209984  0.704782994
     0.635790447  0.114209997  0.704782994
     0.635790488  0.614209984  0.704782994
     0.364209516  0.385789989  0.704782994
     0.364209505  0.885789963  0.704782994
     0.864209542  0.385789989  0.704782994
     0.864209531  0.885789963  0.704782994
     0.114217990  0.364218986  0.704780979
     0.114217992  0.864218986  0.704780979
     0.614218004  0.364218986  0.704780979
     0.614217992  0.864218986  0.704780979
     0.385782012  0.135781489  0.704782017
     0.385782001  0.635781489  0.704782017
     0.885781985  0.135781489  0.704782017
     0.885782027  0.635781489  0.704782017
     0.134667000  0.115332001  0.801256025
     0.134666989  0.615331988  0.801256025
     0.634666987  0.115332001  0.801256025
     0.634666976  0.615331988  0.801256025
     0.365333002  0.384667985  0.801256025
     0.365332990  0.884667959  0.801256025
     0.865332949  0.384667985  0.801256025
     0.865332938  0.884667959  0.801256025
     0.115328503  0.365337004  0.801264999
     0.115328505  0.865336978  0.801264999
     0.615328503  0.365337004  0.801264999
     0.615328492  0.865336978  0.801264999
     0.384671513  0.134662996  0.801264999
     0.384671501  0.634662970  0.801264999
     0.884671486  0.134662996  0.801264999
     0.884671528  0.634662970  0.801264999
     0.997167591  0.002929340  0.604972625
     0.006849377  0.506640209  0.604637414
     0.502717118  0.006420027  0.604561655
     0.498987758  0.502180334  0.604867197
     0.250086480  0.254822252  0.604993931
     0.246583735  0.754203093  0.603766024
     0.746033143  0.257228877  0.605530598
     0.739908896  0.756934899  0.602099370
     0.000000500  0.000000500  0.704828963
     0.000000500  0.500000475  0.704828963
     0.500000475  0.000000500  0.704828963
     0.500000464  0.500000475  0.704828963
     0.249999994  0.249999472  0.704824995
     0.250000010  0.749999498  0.704824995
     0.749999994  0.249999472  0.704824995
     0.749999983  0.749999498  0.704824995
     0.000000000  0.000000000  0.807317968
     0.000000000  0.500000000  0.807317968
     0.500000000  0.000000000  0.807317968
     0.499999989  0.500000000  0.807317968
     0.249999994  0.250000000  0.807317968
     0.250000010  0.749999974  0.807317968
     0.749999994  0.250000000  0.807317968
     0.749999983  0.749999974  0.807317968

  ion indices of the primitive-cell ions
   primitive index   ion index
                 1           1
                 2           2
                 3           3
                 4           4
                 5           5
                 6           6
                 7           7
                 8           8
                 9           9
                10          10
                11          11
                12          12
                13          13
                14          14
                15          15
                16          16
                17          17
                18          18
                19          19
                20          20
                21          21
                22          22
                23          23
                24          24
                25          25
                26          26
                27          27
                28          28
                29          29
                30          30
                31          31
                32          32
                33          33
                34          34
                35          35
                36          36
                37          37
                38          38
                39          39
                40          40
                41          41
                42          42
                43          43
                44          44
                45          45
                46          46
                47          47
                48          48
                49          49
                50          50
                51          51
                52          52
                53          53
                54          54
                55          55
                56          56
                57          57
                58          58
                59          59
                60          60
                61          61
                62          62
                63          63
                64          64
                65          65
                66          66
                67          67
                68          68
                69          69
                70          70
                71          71
                72          72
                73          73
                74          74
                75          75
                76          76
                77          77
                78          78
                79          79
                80          80
                81          81
                82          82
                83          83
                84          84
                85          85
                86          86
                87          87
                88          88
                89          89
                90          90
                91          91
                92          92
                93          93
                94          94
                95          95
                96          96
                97          97
                98          98
                99          99
               100         100
               101         101
               102         102
               103         103
               104         104
               105         105
               106         106
               107         107
               108         108
               109         109
               110         110
               111         111
               112         112
               113         113
               114         114
               115         115
               116         116
               117         117
               118         118
               119         119
               120         120
               121         121
               122         122
               123         123
               124         124
               125         125
               126         126
               127         127
               128         128
               129         129
               130         130
               131         131
               132         132
               133         133
               134         134
               135         135
               136         136
               137         137
               138         138
               139         139
               140         140
               141         141
               142         142
               143         143
               144         144
               145         145
               146         146
               147         147
               148         148
               149         149
               150         150
               151         151
               152         152
               153         153
               154         154
               155         155
               156         156
               157         157
               158         158
               159         159
               160         160
               161         161
               162         162
               163         163
               164         164
               165         165
               166         166
               167         167
               168         168
               169         169
               170         170
               171         171
               172         172
               173         173
               174         174
               175         175
               176         176
               177         177
               178         178
               179         179
               180         180
               181         181
               182         182
               183         183
               184         184
               185         185
               186         186
               187         187
               188         188
               189         189
               190         190
               191         191
               192         192
               193         193
               194         194
               195         195
               196         196
               197         197
               198         198
               199         199
               200         200
               201         201
               202         202
               203         203
               204         204
               205         205
               206         206
               207         207
               208         208
               209         209
               210         210
               211         211
               212         212
               213         213
               214         214
               215         215
               216         216
               217         217
               218         218
               219         219
               220         220
               221         221
               222         222
               223         223
               224         224
               225         225
               226         226
               227         227
               228         228
               229         229
               230         230
               231         231
               232         232
               233         233
               234         234
               235         235
               236         236
               237         237
               238         238
               239         239
               240         240
               241         241
               242         242
               243         243
               244         244
               245         245
               246         246
               247         247
               248         248
               249         249
               250         250
               251         251
               252         252
               253         253
               254         254
               255         255
               256         256
               257         257
               258         258
               259         259
               260         260
               261         261
               262         262
               263         263
               264         264
               265         265
               266         266
               267         267
               268         268
               269         269
               270         270
               271         271
               272         272
               273         273
               274         274
               275         275
               276         276
               277         277
               278         278
               279         279
               280         280
               281         281
               282         282
               283         283
               284         284
               285         285
               286         286
               287         287
               288         288
               289         289
               290         290
               291         291
               292         292
               293         293
               294         294
               295         295
               296         296
               297         297
               298         298
               299         299
               300         300
               301         301
               302         302
               303         303
               304         304
               305         305
               306         306
               307         307
               308         308
               309         309
               310         310
               311         311
               312         312
               313         313
               314         314
               315         315
               316         316
               317         317
               318         318
               319         319
               320         320
               321         321
               322         322
               323         323
               324         324
               325         325

----------------------------------------------------------------------------------------

 
 
 KPOINTS: Automatic Mesh                          

Automatic generation of k-mesh.
 Grid dimensions read from file:
 generate k-points for:    3    3    1

 Generating k-lattice:

  Cartesian coordinates                     Fractional coordinates (reciprocal lattice)
     0.018456177  0.000005026 -0.000000000     0.333333333  0.000000000  0.000000000
     0.000000000  0.018454135  0.000000000     0.000000000  0.333333333  0.000000000
     0.000000000 -0.000000000  0.016003201     0.000000000  0.000000000  1.000000000

  Length of vectors
     0.018456178  0.018454135  0.016003201

  Shift w.r.t. Gamma in fractional coordinates (k-lattice)
     0.000000000  0.000000000  0.000000000

 
 Subroutine IBZKPT returns following result:
 ===========================================
 
 Found      5 irreducible k-points:
 
 Following reciprocal coordinates:
            Coordinates               Weight
  0.000000  0.000000  0.000000      1.000000
  0.333333  0.000000  0.000000      2.000000
  0.000000  0.333333  0.000000      2.000000
  0.333333  0.333333  0.000000      2.000000
 -0.333333  0.333333  0.000000      2.000000
 
 Following cartesian coordinates:
            Coordinates               Weight
  0.000000  0.000000  0.000000      1.000000
  0.018456  0.000005  0.000000      2.000000
  0.000000  0.018454  0.000000      2.000000
  0.018456  0.018459  0.000000      2.000000
 -0.018456  0.018449  0.000000      2.000000
 


--------------------------------------------------------------------------------------------------------




 Dimension of arrays:
   k-points           NKPTS =      5   k-points in BZ     NKDIM =      5   number of bands    NBANDS=    732
   number of dos      NEDOS =    301   number of ions     NIONS =    325
   non local maximal  LDIM  =      5   non local SUM 2l+1 LMDIM =     13
   total plane-waves  NPLWV = ******
   max r-space proj   IRMAX =   3336   max aug-charges    IRDMAX=  19845
   dimension x,y,z NGX =   100 NGY =  100 NGZ =  350
   dimension x,y,z NGXF=   200 NGYF=  200 NGZF=  700
   support grid    NGXF=   200 NGYF=  200 NGZF=  700
   ions per type =             143  39  47  72  24
   NGX,Y,Z   is equivalent  to a cutoff of   9.20,  9.20,  9.31 a.u.
   NGXF,Y,Z  is equivalent  to a cutoff of  18.41, 18.41, 18.62 a.u.

 SYSTEM =  PSC                                     
 POSCAR =   H  C  N  I Pb                          

 Startparameter for this run:
   NWRITE =      2    write-flag & timer
   PREC   = normal    normal or accurate (medium, high low for compatibility)
   ISTART =      0    job   : 0-new  1-cont  2-samecut
   ICHARG =      1    charge: 1-file 2-atom 10-const
   ISPIN  =      1    spin polarized calculation?
   LNONCOLLINEAR =      F non collinear calculations
   LSORBIT =      F    spin-orbit coupling
   INIWAV =      1    electr: 0-lowe 1-rand  2-diag
   LASPH  =      F    aspherical Exc in radial PAW
 Electronic Relaxation 1
   ENCUT  =  500.0 eV  36.75 Ry    6.06 a.u.  32.93 32.93113.93*2*pi/ulx,y,z
   ENINI  =  500.0     initial cutoff
   ENAUG  =  644.9 eV  augmentation charge cutoff
   NELM   =    600;   NELMIN=  2; NELMDL=  0     # of ELM steps 
   EDIFF  = 0.1E-03   stopping-criterion for ELM
   LREAL  =      T    real-space projection
   NLSPLINE    = F    spline interpolate recip. space projectors
   LCOMPAT=      F    compatible to vasp.4.4
   GGA_COMPAT  = F    GGA compatible to vasp.4.4-vasp.4.6
   LMAXPAW     = -100 max onsite density
   LMAXMIX     =    2 max onsite mixed and CHGCAR
   VOSKOWN=      0    Vosko Wilk Nusair interpolation
   ROPT   =   -0.00050  -0.00050  -0.00050  -0.00050
   ROPT   =   -0.00050
 Ionic relaxation
   EDIFFG = 0.1E-02   stopping-criterion for IOM
   NSW    =      0    number of steps for IOM
   NBLOCK =      1;   KBLOCK =      1    inner block; outer block 
   IBRION =     -1    ionic relax: 0-MD 1-quasi-New 2-CG
   NFREE  =      0    steps in history (QN), initial steepest desc. (CG)
   ISIF   =      2    stress and relaxation
   IWAVPR =     10    prediction:  0-non 1-charg 2-wave 3-comb
   ISYM   =      0    0-nonsym 1-usesym 2-fastsym
   LCORR  =      T    Harris-Foulkes like correction to forces

   POTIM  = 0.5000    time-step for ionic-motion
   TEIN   =    0.0    initial temperature
   TEBEG  =    0.0;   TEEND  =   0.0 temperature during run
   SMASS  =  -3.00    Nose mass-parameter (am)
   estimated Nose-frequenzy (Omega)   =  0.10E-29 period in steps = 0.13E+47 mass=  -0.745E-26a.u.
   SCALEE = 1.0000    scale energy and forces
   NPACO  =    256;   APACO  = 16.0  distance and # of slots for P.C.
   PSTRESS=    0.0 pullay stress

  Mass of Ions in am
   POMASS =   1.00 12.01 14.00126.90207.20
  Ionic Valenz
   ZVAL   =   1.00  4.00  5.00  7.00  4.00
  Atomic Wigner-Seitz radii
   RWIGS  =  -1.00 -1.00 -1.00 -1.00 -1.00
  virtual crystal weights 
   VCA    =   1.00  1.00  1.00  1.00  1.00
   NELECT =    1134.0000    total number of electrons
   NUPDOWN=      -1.0000    fix difference up-down

 DOS related values:
   EMIN   =  10.00;   EMAX   =-10.00  energy-range for DOS
   EFERMI =   0.00
   ISMEAR =     0;   SIGMA  =   0.05  broadening in eV -4-tet -1-fermi 0-gaus

 Electronic relaxation 2 (details)
   IALGO  =     38    algorithm
   LDIAG  =      T    sub-space diagonalisation (order eigenvalues)
   LSUBROT=      F    optimize rotation matrix (better conditioning)
   TURBO    =      0    0=normal 1=particle mesh
   IRESTART =      0    0=no restart 2=restart with 2 vectors
   NREBOOT  =      0    no. of reboots
   NMIN     =      0    reboot dimension
   EREF     =   0.00    reference energy to select bands
   IMIX   =      4    mixing-type and parameters
     AMIX     =   0.40;   BMIX     =  0.01
     AMIX_MAG =   1.60;   BMIX_MAG =  0.01
     AMIN     =   0.01
     WC   =   100.;   INIMIX=   1;  MIXPRE=   1;  MAXMIX= -45

 Intra band minimization:
   WEIMIN = 0.0000     energy-eigenvalue tresh-hold
   EBREAK =  0.34E-07  absolut break condition
   DEPER  =   0.30     relativ break condition  

   TIME   =   0.40     timestep for ELM

  volume/ion in A,a.u.               =      62.72       423.28
  Fermi-wavevector in a.u.,A,eV,Ry     =   0.624944  1.180972  5.313816  0.390554
  Thomas-Fermi vector in A             =   1.685677
 
 Write flags
   LWAVE        =      F    write WAVECAR
   LDOWNSAMPLE  =      F    k-point downsampling of WAVECAR
   LCHARG       =      T    write CHGCAR
   LVTOT        =      T    write LOCPOT, total local potential
   LVHAR        =      F    write LOCPOT, Hartree potential only
   LELF         =      F    write electronic localiz. function (ELF)
   LORBIT       =      0    0 simple, 1 ext, 2 COOP (PROOUT), +10 PAW based schemes


 Dipole corrections
   LMONO  =      F    monopole corrections only (constant potential shift)
   LDIPOL =      T    correct potential (dipole corrections)
   IDIPOL =      3    1-x, 2-y, 3-z, 4-all directions 
   EPSILON=  1.0000000 bulk dielectric constant

 Exchange correlation treatment:
   GGA     =    --    GGA type
   LEXCH   =     8    internal setting for exchange type
   VOSKOWN=      0    Vosko Wilk Nusair interpolation
   LHFCALC =     F    Hartree Fock is set to
   LHFONE  =     F    Hartree Fock one center treatment
   AEXX    =    0.0000 exact exchange contribution

 Linear response parameters
   LEPSILON=     F    determine dielectric tensor
   LRPA    =     F    only Hartree local field effects (RPA)
   LNABLA  =     F    use nabla operator in PAW spheres
   LVEL    =     F    velocity operator in full k-point grid
   LINTERFAST=   F  fast interpolation
   KINTER  =     0    interpolate to denser k-point grid
   CSHIFT  =0.1000    complex shift for real part using Kramers Kronig
   OMEGAMAX=  -1.0    maximum frequency
   DEG_THRESHOLD= 0.2000000E-02 threshold for treating states as degnerate
   RTIME   =   -0.100 relaxation time in fs
  (WPLASMAI=    0.000 imaginary part of plasma frequency in eV, 0.658/RTIME)
   DFIELD  = 0.0000000 0.0000000 0.0000000 field for delta impulse in time
 
 Orbital magnetization related:
   ORBITALMAG=     F  switch on orbital magnetization
   LCHIMAG   =     F  perturbation theory with respect to B field
   DQ        =  0.001000  dq finite difference perturbation B field
   LLRAUG    =     F  two centre corrections for induced B field



--------------------------------------------------------------------------------------------------------


 Static calculation
 charge density and potential will be updated during run
 non-spin polarized calculation
 Variant of blocked Davidson
 Davidson routine will perform the subspace rotation
 perform sub-space diagonalisation
    after iterative eigenvector-optimisation
 modified Broyden-mixing scheme, WC =      100.0
 initial mixing is a Kerker type mixing with AMIX =  0.4000 and BMIX =      0.0100
 Hartree-type preconditioning will be used
 using additional bands           165
 real space projection scheme for non local part
[...]
     13.54561      0.00000     45.35368         0.003113     -0.007095      0.010966
     13.54315      9.03140     45.35368        -0.005146      0.008564     -0.004539
     12.98101      7.92134     33.84923        -0.089898      0.093444     -0.005612
     13.28395      8.94172     32.43255         0.153759     -0.149008      0.192494
     11.86520     10.00420     34.97358         0.000620     -0.167853      0.140656
     12.82003     11.49687     34.84320        -0.168486      0.006405      0.021254
     15.31368      9.07943     35.68159        -0.188607      0.065235     -0.130854
     14.20294     10.32968     36.27499         0.020177     -0.004365     -0.025754
     15.66685     10.13658     33.13933        -0.019229     -0.084813      0.205923
     14.34679     11.28426     32.87590         0.007601      0.045799     -0.211629
     15.65227      8.35963     32.41671         0.177318      0.089971     -0.031654
     15.60757      7.62517     34.01850        -0.176635      0.107356     -0.091700
     15.72189      5.87095     32.38848        -0.035015      0.130054      0.032535
     14.14214      5.81735     33.15160        -0.017307     -0.028854     -0.166084
     11.49964      9.95757     32.50165         0.025182      0.010498      0.038196
     12.43039     11.48659     32.32658        -0.023597     -0.080106      0.116094
     10.95586     11.42317     33.29754         0.002100      0.036727     -0.055241
     13.58611      8.28781     37.35429        -0.004157      0.055696      0.095153
     13.59320      7.35868     35.87515        -0.071873     -0.179410     -0.086697
     12.29304      8.53559     36.18456         0.023562      0.052466     -0.032584
     14.81375     12.41637     35.01645        -0.015154      0.057676      0.030671
     16.26978     12.28831     34.03324         0.088901      0.164177     -0.131381
     16.08523     11.21725     35.40218         0.119781     -0.098627      0.150820
     14.77969      6.93588     30.33033        -0.020133     -0.002725      0.077068
     14.12399      5.34490     30.71884         0.017771     -0.049269     -0.092481
     11.95019      5.68481     32.53539         0.072141     -0.025522      0.005387
     13.15305      8.34402     29.35143         0.211020      0.018573     -0.091133
      9.69086      6.71497     32.52940         0.014017     -0.068928      0.026186
     10.87779      9.34429     29.32916         0.050813     -0.026450     -0.015731
      9.15613      8.51949     30.93605        -0.289805      0.145388     -0.004770
     17.90744      4.39050     34.72276        -0.318089      0.013290     -0.544053
      0.65064     13.90748     35.17044        -0.059565      0.490282     -0.187787
      8.52026      4.14106     34.87147         0.191961     -0.870557     -0.274222
      9.03303     13.66749     34.78321        -0.256658      0.312622      0.352649
      4.29686      9.50597     34.94139        -0.027259      0.351982     -0.118039
      4.58272     17.88822     34.70412        -0.216900     -0.107350     -0.067892
     13.80586     17.75399     35.19596         0.415876     -0.062513     -0.139424
      0.14662      4.46378     40.59534         0.256626     -0.127215     -0.449767
      0.15720     13.76921     40.79545         0.260485      0.156787     -0.220246
      9.00500      4.41337     40.51042        -0.209628      0.124883     -0.167903
      9.03092     13.59432     40.61349         0.002355     -0.049614     -0.084734
      4.54431      8.95735     40.59700         0.446631      0.623609     -0.154007
      4.58584     18.03932     40.45211         0.686230      0.630094     -0.251734
     13.52581      9.36642     40.80560         0.329282      0.762627     -0.514891
     13.54064     17.98180     40.53111         0.539982      0.598266     -0.082203
      9.02897      4.51561     46.44552         0.004293      0.009187      0.027303
      9.02651     13.54701     46.44552         0.026935     -0.011829      0.048175
     18.05937      4.51561     46.44552         0.024526     -0.005188      0.039677
     18.05691     13.54701     46.44552         0.016249      0.002487      0.013690
      4.51521      0.00002     46.44421        -0.003873     -0.004699      0.055374
      4.51275      9.03142     46.44421        -0.005534     -0.004529      0.048533
     13.54561      0.00002     46.44421        -0.005894     -0.008397      0.035757
     13.54315      9.03142     46.44421        -0.003293      0.004067      0.021352
     12.71756      6.93862     30.94655         0.335227      0.282209     -0.088949
     11.72941      6.47963     31.82021        -0.471921      0.022318      0.099044
     12.39863      7.97120     30.03833        -0.184464     -0.186577      0.288033
     10.44664      7.04823     31.81847         0.259636     -0.118429     -0.043236
     11.12410      8.53821     30.02262        -0.530077     -0.344990      0.449673
     10.13936      8.07002     30.92583         0.628759      0.258956     -0.485992
     13.72363      8.56973     33.37112         0.014125      0.023788     -0.099043
     12.55331     10.55955     34.33683         0.026669      0.156812     -0.191067
     14.25887      9.40562     35.68565         0.010182      0.141708     -0.045889
     14.90153     10.73798     33.64053         0.012270     -0.005464     -0.032719
     15.01433      7.78852     33.09936        -0.001831     -0.195758     -0.145503
     14.75722      6.40571     32.45311        -0.053144      0.307009      0.154354
     11.85439     10.85564     33.02165        -0.012416      0.058837     -0.031753
     13.36648      8.34608     36.28497         0.098894     -0.079231      0.010209
     15.53819     11.70821     34.59960         0.019839      0.080708      0.023650
     14.13155      6.39737     31.04317        -0.074011     -0.074870     -0.010048
      0.98617      4.35522     35.35769         0.146167      0.150841      0.010306
      0.83690     12.81698     35.86151        -0.380429     -0.058787      0.129497
      9.76681      3.81658     35.10469         0.077846     -0.110837      0.152127
      8.76106     12.64834     35.56804        -0.106835      0.244099     -0.229558
      7.97775      5.27796     35.18761        -0.467204      0.454260      0.041378
      8.68496     14.91720     35.02750         0.271935     -0.466187     -0.391639
     16.72560      4.40505     35.29634        -0.086365     -0.161484     -0.101298
     17.69505     14.73811     35.29604        -0.272661     -0.108997      0.374692
      4.38184      8.27772     35.37855        -0.581403     -1.052574     -0.141847
      3.37674      0.20213     35.03968        -0.046782      0.062087     -0.000779
     12.50813     17.81418     35.34944        -0.433937     -0.659349     -0.026816
      5.67665      0.44803     35.07232         0.781657     -0.159769     -0.033723
      5.18887     10.44017     35.17006         0.086482      0.120959      0.044088
     14.64706      0.63967     35.52990        -0.073285      0.240231      0.189916
      0.99701      3.58153     41.05898         0.002531      0.017584     -0.123170
      0.93745     12.81671     41.24891         0.170374      0.021442     -0.309438
      9.97661      3.72328     41.04469         0.229634     -0.138851      0.265177
      9.74403     12.75323     41.34145        -0.287393      0.388658     -1.121361
      3.80573      7.99839     41.09631         0.225134      0.234282     -0.312324
      3.73708     17.28620     41.09730        -0.613236     -0.596122     -0.566711
     12.68509      8.52571     41.34497        -0.211978      0.005660      0.039956
     12.76205     17.11476     41.12336        -0.333527     -0.495025     -0.771438
      8.29072      5.33488     41.12106         0.044815     -0.248745     -0.478930
      8.17279     14.48010     41.07494         0.320968     -0.326549     -0.389986
     17.31625      5.11214     41.29517        -0.589623      0.575002      0.160460
     17.07892     14.13525     41.32462         0.003547      0.360458     -0.408625
      5.45897      0.81121     41.00030        -0.351978     -0.368166     -0.434094
      5.25810      9.84228     41.28793        -0.912033     -1.158378     -0.263214
     14.26667      0.85181     41.13610        -0.359439     -0.442532     -0.347859
     14.83013      9.34469     40.97993        -0.126516      0.207475     -0.247697
      0.82731      3.68697     47.03596         0.012399     -0.018456     -0.091787
      0.82485     12.71837     47.03596         0.021937     -0.022270     -0.073346
      9.85771      3.68697     47.03596         0.026168     -0.028711     -0.080312
      9.85525     12.71837     47.03596         0.008939     -0.009177     -0.082592
      3.68432      8.20234     47.03465        -0.007067     -0.008049     -0.069604
      3.68186     17.23373     47.03465        -0.006588     -0.004352     -0.063108
     12.71472      8.20234     47.03465        -0.011538     -0.018958     -0.066982
     12.71226     17.23373     47.03465        -0.012440     -0.005834     -0.068120
      8.20068      5.34457     47.03603        -0.018002      0.015370     -0.087306
      8.19822     14.37597     47.03603        -0.027657      0.028720     -0.087940
     17.23108      5.34457     47.03603        -0.033068      0.027007     -0.103565
     17.22862     14.37597     47.03603        -0.022286      0.023963     -0.071156
      5.34365      0.82909     47.03465         0.011337      0.010443     -0.062895
      5.34119      9.86049     47.03465         0.014584      0.015137     -0.071485
     14.37405      0.82909     47.03465         0.016667      0.019675     -0.069775
     14.37159      9.86049     47.03465         0.015520      0.012745     -0.069849
     13.86912      9.79854     34.26250         0.265630     -0.287825     -0.214626
      9.16368      0.31313     34.49142        -0.032078     -0.026160     -0.021928
      8.71166      9.22008     34.67690         0.024373     -0.066457      0.020582
     17.96107      0.10754     34.48262         0.036903      0.019207      0.001782
      0.59944      9.15846     34.66306        -0.138546     -0.032834     -0.027458
      4.51311      4.48004     34.58974        -0.030216      0.005644     -0.022536
      4.31534     13.84446     34.53831         0.080268     -0.020981     -0.030992
     13.25906      3.81620     34.75135         0.063848     -0.001978      0.052563
     12.68132     14.34799     34.53311        -0.004725     -0.026529      0.019309
      0.01927     17.95611     40.89114        -0.002467     -0.008621      0.022378
      0.31568      8.92315     40.95745        -0.037027     -0.008512      0.067806
      9.07959      0.04378     40.89384        -0.015366      0.017429      0.004272
      9.09762      8.94426     40.94950         0.001830     -0.005472     -0.016428
      4.64899      4.41546     40.93099        -0.006252     -0.011367     -0.050176
      4.52440     13.65322     40.89695         0.014785     -0.008870      0.016445
     13.49652      4.78646     40.95689        -0.015326      0.006569     -0.016506
     13.51847     13.41084     40.85799        -0.027605      0.039736     -0.001203
      2.44938      2.11008     37.93801        -0.026851      0.031295      0.028667
      2.68954     11.01584     38.17294        -0.015674     -0.027564     -0.033152
     11.57952      2.05006     38.15663         0.017159     -0.017182     -0.032988
     11.28912     11.26545     38.25108         0.051879     -0.021543     -0.194916
      6.53665      7.03215     38.03211         0.013670      0.005289      0.015648
      6.74128     15.91955     37.85843         0.016734      0.039766      0.058744
     16.00421      6.69299     38.21504         0.015995      0.019450     -0.093224
     15.66306     15.89453     38.05619        -0.010643      0.011599     -0.034124
      2.16820      6.59475     38.03618         0.010843     -0.034012     -0.005841
      2.20131     15.81579     37.97458        -0.016490      0.038763      0.023558
     10.69729      6.27450     37.68883        -0.007538     -0.044807      0.028028
     11.06385     15.63538     38.15704         0.058808     -0.020578      0.064025
      6.92169      2.38758     37.86744         0.010928      0.031137      0.005037
      6.86946     11.43851     38.25226         0.026147     -0.004633      0.052098
     16.00008      2.54694     38.27980        -0.009789     -0.073849      0.027034
     16.40744     11.69627     38.51780        -0.141326     -0.054280     -0.382332
      0.00000      0.00000     47.17356        -0.001597      0.006360      0.372567
     -0.00246      9.03140     47.17356        -0.002357     -0.005729      0.479474
      9.03040      0.00000     47.17356         0.002586     -0.000182      0.378710
      9.02794      9.03140     47.17356        -0.001147     -0.001742      0.458536
      4.51398      4.51570     47.17425        -0.000145     -0.003525      0.432372
      4.51152     13.54710     47.17425         0.004627      0.001804      0.412678
     13.54438      4.51570     47.17425         0.004789      0.003706      0.422775
     13.54192     13.54710     47.17425        -0.001516     -0.000477      0.397809
      2.45192      2.06295     44.04013        -0.000387     -0.022430     -0.023113
      2.44946     11.09435     44.04013         0.042537     -0.032128      0.032606
     11.48232      2.06295     44.04013         0.046337      0.024263     -0.058565
     11.47986     11.09435     44.04013        -0.038196      0.007113      0.057820
      6.57602      6.96845     44.04013        -0.006913      0.009859     -0.042661
      6.57356     15.99985     44.04013         0.020347      0.019410     -0.033944
     15.60642      6.96845     44.04013        -0.018772      0.015872     -0.074977
     15.60396     15.99985     44.04013        -0.060401      0.051018      0.002230
      2.06108      6.57881     44.04000         0.050933     -0.047956      0.010322
      2.05862     15.61021     44.04000         0.045098      0.060768     -0.012728
     11.09148      6.57881     44.04000        -0.036881     -0.068989     -0.006826
     11.08902     15.61021     44.04000        -0.011356      0.011442     -0.032107
      6.96686      2.45259     44.04007        -0.006354     -0.050634     -0.024042
      6.96440     11.48399     44.04007         0.033215      0.026700     -0.015285
     15.99726      2.45259     44.04007        -0.001659      0.038056     -0.067655
     15.99481     11.48399     44.04007         0.050312      0.039998     -0.087052
      2.43163      2.08322     50.06849         0.004171     -0.014609      0.022489
      2.42917     11.11462     50.06849         0.015633     -0.005447      0.025430
     11.46203      2.08322     50.06849         0.007955     -0.013014      0.022885
     11.45957     11.11462     50.06849         0.013842     -0.005719      0.024750
      6.59631      6.94818     50.06849        -0.013153      0.006556      0.024421
      6.59385     15.97958     50.06849        -0.004710      0.015848      0.023527
     15.62671      6.94818     50.06849        -0.015472      0.002342      0.021997
     15.62425     15.97958     50.06849        -0.007508      0.015569      0.025426
      2.08113      6.59901     50.06905        -0.006008     -0.015530      0.023846
      2.07867     15.63041     50.06905        -0.014324     -0.003854      0.024960
     11.11153      6.59901     50.06905        -0.004983     -0.015226      0.024135
     11.10907     15.63041     50.06905        -0.013160     -0.005937      0.024013
      6.94681      2.43239     50.06905         0.015781      0.004018      0.024263
      6.94435     11.46379     50.06905         0.006978      0.013478      0.024801
     15.97721      2.43239     50.06905         0.012908      0.007533      0.022924
     15.97475     11.46379     50.06905         0.003585      0.015272      0.025613
     18.00963      0.05291     37.80323        -0.029724      0.029296      0.005539
      0.12121      9.15134     37.78228        -0.036283     -0.004474      0.011409
      9.07944      0.11596     37.77755        -0.009958     -0.046787      0.007401
      9.00965      9.07078     37.79664         0.066529     -0.002884     -0.067455
      4.51551      4.60280     37.80456         0.014767     -0.082668     -0.045196
      4.44979     13.62302     37.72783         0.021681     -0.011153     -0.005744
     13.47269      4.64627     37.83809         0.008203      0.012278     -0.011221
     13.35962     13.67236     37.62368         0.018075      0.015037      0.112838
      0.00001      0.00001     44.04300        -0.008832     -0.120049      0.130626
     -0.00245      9.03141     44.04300         0.080162      0.038825      0.101513
      9.03041      0.00001     44.04300        -0.023229      0.032178      0.126472
      9.02795      9.03141     44.04300         0.012563      0.044027      0.259123
      4.51397      4.51569     44.04275         0.018568      0.021937      0.176827
      4.51151     13.54709     44.04275        -0.084003      0.011124      0.104123
     13.54437      4.51569     44.04275        -0.044845     -0.041531      0.239643
     13.54191     13.54709     44.04275        -0.025102     -0.025137      0.007124
      0.00000      0.00000     50.44728         0.001755     -0.002601     -0.619569
     -0.00246      9.03140     50.44728         0.002437      0.002216     -0.646030
      9.03040      0.00000     50.44728        -0.002551      0.000280     -0.619706
      9.02794      9.03140     50.44728        -0.001756      0.000486     -0.643064
      4.51397      4.51570     50.44728        -0.000101      0.010436     -0.635416
      4.51151     13.54710     50.44728        -0.001362     -0.010565     -0.631742
     13.54437      4.51570     50.44728        -0.000974      0.010880     -0.628370
     13.54191     13.54710     50.44728         0.002466     -0.010148     -0.629401
 -----------------------------------------------------------------------------------
    total drift:                                0.005884     -0.042163      0.704834


--------------------------------------------------------------------------------------------------------



  FREE ENERGIE OF THE ION-ELECTRON SYSTEM (eV)
  ---------------------------------------------------
  free  energy   TOTEN  =     -1575.25572940 eV

  energy  without entropy=    -1575.25572940  energy(sigma->0) =    -1575.25572940
 


--------------------------------------------------------------------------------------------------------


    POTLOK:  cpu time    0.5023: real time    0.5022


--------------------------------------------------------------------------------------------------------


     LOOP+:  cpu time  265.6018: real time  266.1932
 vacuum level on the upper side and lower side of the slab         2.357         1.549
    4ORBIT:  cpu time    0.0000: real time    0.0000

 total amount of memory used by VASP MPI-rank0  8653583. kBytes
=======================================================================

   base      :      30000. kBytes
   nonlr-proj:      53621. kBytes
   fftplans  :     249280. kBytes
   grid      :     701440. kBytes
   one-center:       2636. kBytes
   wavefun   :    7616606. kBytes
 
  
  
 General timing and accounting informations for this job:
 ========================================================
  
                  Total CPU time used (sec):      476.936
                            User time (sec):      388.770
                          System time (sec):       88.165
                         Elapsed time (sec):      479.546
  
                   Maximum memory used (kb):    10306648.
                   Average memory used (kb):          N/A
  
                          Minor page faults:      3542677
                          Major page faults:           12
                 Voluntary context switches:        10797
