 vasp.6.2.1 16May21 (build Nov 15 2021 14:57:28) complex                         
 executed on             LinuxPGI date 2023.07.24  22:49:24
 running on    4 total cores
 distrk:  each k-point on    4 cores,    1 groups
 distr:  one band on NCORE=   1 cores,    4 groups


--------------------------------------------------------------------------------------------------------


 INCAR:
   SYSTEM = PSC
   ISTART = 1
   ICHARG = 1
   PREC = Normal
   ENCUT = 500
   GGA_COMPAT = F
   NELM = 600
   ISYM = 0
   LREAL = Auto
   ISMEAR = 0
   SIGMA = 0.05
   AMIN = 0.01
   BMIX = 0.01
   LVTOT = T
   LWAVE = F
   LDIPOL = T
   IDIPOL = 3
   LVDW = T
   IVDW = 12

 POTCAR:    PAW_PBE H 15Jun2001                   
 POTCAR:    PAW_PBE C 08Apr2002                   
 POTCAR:    PAW_PBE N 08Apr2002                   
 POTCAR:    PAW_PBE I 08Apr2002                   
 POTCAR:    PAW_PBE Pb 08Apr2002                  
 WARNING: For LVTOT=.TRUE., VASP.5.x writes the TOTAL local potential to the
     file LOCPOT. If you want only the Hartree contributions, use LVHAR=.TRUE.
     instead. 

 POTCAR:    PAW_PBE H 15Jun2001                   
   SHA256 =  030f79b5d3ab3cf0e668861823c8fb652ff669f3e15e46930bd03bfd63a607b6 H/POTCAR              
   COPYR  = (c) Copyright 15Jun2001 Georg Kresse                                                    
   COPYR  = This file is part of the software VASP. Any use, copying, and all other rights are regul
   COPYR  = If you do not have a valid VASP license, you may not use, copy or distribute this file. 
   VRHFIN =H: ultrasoft test                                                                        
   LEXCH  = PE                                                                                      
   EATOM  =    12.4884 eV,    0.9179 Ry                                                             
                                                                                                    
   TITEL  = PAW_PBE H 15Jun2001                                                                     
   LULTRA =        F    use ultrasoft PP ?                                                          
   IUNSCR =        0    unscreen: 0-lin 1-nonlin 2-no                                               
   RPACOR =    0.000    partial core radius                                                         
   POMASS =    1.000; ZVAL   =    1.000    mass and valenz                                          
   RCORE  =    1.100    outmost cutoff radius                                                       
   RWIGS  =    0.700; RWIGS  =    0.370    wigner-seitz radius (au A)                               
   ENMAX  =  250.000; ENMIN  =  200.000 eV                                                          
   RCLOC  =    0.701    cutoff for local pot                                                        
   LCOR   =        T    correct aug charges                                                         
   LPAW   =        T    paw PP                                                                      
   EAUG   =  400.000                                                                                
   RMAX   =    1.123    core radius for proj-oper                                                   
   RAUG   =    1.200    factor for augmentation sphere                                              
   RDEP   =    1.112    radius for radial grids                                                     
   RDEPT  =    0.926    core radius for aug-charge                                                  
                                                                                                    
   Atomic configuration                                                                             
    2 entries                                                                                       
     n  l   j            E        occ.                                                              
     1  0  0.50        -6.4927   1.0000                                                             
     2  1  0.50        -3.4015   0.0000                                                             
   Description                                                                                      
     l       E           TYP  RCUT    TYP  RCUT                                                     
     0     -6.4927494     23  1.100                                                                 
     0      6.8029130     23  1.100                                                                 
     1     -4.0817478     23  1.100                                                                 
  local pseudopotential read in
  atomic valenz-charges read in
  non local Contribution for L=            0  read in
    real space projection operators read in
  non local Contribution for L=            0  read in
    real space projection operators read in
  non local Contribution for L=            1  read in
    real space projection operators read in
    PAW grid and wavefunctions read in
 
   number of l-projection  operators is LMAX  =            3
   number of lm-projection operators is LMMAX =            5
 
 POTCAR:    PAW_PBE C 08Apr2002                   
   SHA256 =  253f7b50bb8d59471dbedb8285d89021f4a42ed1a2c5d38a03a736e69125dd95 C/POTCAR              
   COPYR  = (c) Copyright 08Apr2002 Georg Kresse                                                    
   COPYR  = This file is part of the software VASP. Any use, copying, and all other rights are regul
   COPYR  = If you do not have a valid VASP license, you may not use, copy or distribute this file. 
   VRHFIN =C: s2p2                                                                                  
   LEXCH  = PE                                                                                      
   EATOM  =   147.1560 eV,   10.8157 Ry                                                             
                                                                                                    
   TITEL  = PAW_PBE C 08Apr2002                                                                     
   LULTRA =        F    use ultrasoft PP ?                                                          
   IUNSCR =        1    unscreen: 0-lin 1-nonlin 2-no                                               
   RPACOR =    1.200    partial core radius                                                         
   POMASS =   12.011; ZVAL   =    4.000    mass and valenz                                          
   RCORE  =    1.500    outmost cutoff radius                                                       
   RWIGS  =    1.630; RWIGS  =    0.863    wigner-seitz radius (au A)                               
   ENMAX  =  400.000; ENMIN  =  300.000 eV                                                          
   ICORE  =        2    local potential                                                             
   LCOR   =        T    correct aug charges                                                         
   LPAW   =        T    paw PP                                                                      
   EAUG   =  644.873                                                                                
   DEXC   =    0.000                                                                                
   RMAX   =    1.529    core radius for proj-oper                                                   
   RAUG   =    1.300    factor for augmentation sphere                                              
   RDEP   =    1.501    radius for radial grids                                                     
   RDEPT  =    1.300    core radius for aug-charge                                                  
                                                                                                    
   Atomic configuration                                                                             
    4 entries                                                                                       
     n  l   j            E        occ.                                                              
     1  0  0.50      -273.3789   2.0000                                                             
     2  0  0.50       -13.7508   2.0000                                                             
     2  1  0.50        -5.2854   2.0000                                                             
     3  2  1.50        -5.4423   0.0000                                                             
   Description                                                                                      
     l       E           TYP  RCUT    TYP  RCUT                                                     
     0    -13.7508458     23  1.200                                                                 
     0     -8.2022199     23  1.200                                                                 
     1     -5.2854383     23  1.500                                                                 
     1     34.0145650     23  1.500                                                                 
     2     -5.4423304      7  1.500                                                                 
  local pseudopotential read in
  partial core-charges read in
  partial kinetic energy density read in
  atomic valenz-charges read in
  non local Contribution for L=            0  read in
    real space projection operators read in
  non local Contribution for L=            0  read in
    real space projection operators read in
  non local Contribution for L=            1  read in
    real space projection operators read in
  non local Contribution for L=            1  read in
    real space projection operators read in
    PAW grid and wavefunctions read in
 
   number of l-projection  operators is LMAX  =            4
   number of lm-projection operators is LMMAX =            8
 
 POTCAR:    PAW_PBE N 08Apr2002                   
   SHA256 =  e053789ff3a61a86a1b75d8a110fcc91f86041011e7b0817c7c99e4e8a6349d7 N/POTCAR              
   COPYR  = (c) Copyright 08Apr2002 Georg Kresse                                                    
   COPYR  = This file is part of the software VASP. Any use, copying, and all other rights are regul
   COPYR  = If you do not have a valid VASP license, you may not use, copy or distribute this file. 
   VRHFIN =N: s2p3                                                                                  
   LEXCH  = PE                                                                                      
   EATOM  =   264.5486 eV,   19.4438 Ry                                                             
                                                                                                    
   TITEL  = PAW_PBE N 08Apr2002                                                                     
   LULTRA =        F    use ultrasoft PP ?                                                          
   IUNSCR =        1    unscreen: 0-lin 1-nonlin 2-no                                               
   RPACOR =    1.200    partial core radius                                                         
   POMASS =   14.001; ZVAL   =    5.000    mass and valenz                                          
   RCORE  =    1.500    outmost cutoff radius                                                       
   RWIGS  =    1.400; RWIGS  =    0.741    wigner-seitz radius (au A)                               
   ENMAX  =  400.000; ENMIN  =  300.000 eV                                                          
   ICORE  =        2    local potential                                                             
   LCOR   =        T    correct aug charges                                                         
   LPAW   =        T    paw PP                                                                      
   EAUG   =  627.112                                                                                
   DEXC   =    0.000                                                                                
   RMAX   =    1.529    core radius for proj-oper                                                   
   RAUG   =    1.300    factor for augmentation sphere                                              
   RDEP   =    1.514    radius for radial grids                                                     
   RDEPT  =    1.338    core radius for aug-charge                                                  
                                                                                                    
   Atomic configuration                                                                             
    4 entries                                                                                       
     n  l   j            E        occ.                                                              
     1  0  0.50      -384.7179   2.0000                                                             
     2  0  0.50       -18.5828   2.0000                                                             
     2  1  0.50        -7.0898   3.0000                                                             
     3  2  1.50        -6.8029   0.0000                                                             
   Description                                                                                      
     l       E           TYP  RCUT    TYP  RCUT                                                     
     0    -18.5828119     23  1.200                                                                 
     0    -13.5018863     23  1.200                                                                 
     1     -7.0897853     23  1.500                                                                 
     1      9.5240782     23  1.500                                                                 
     2     -6.8029130      7  1.500                                                                 
  local pseudopotential read in
  partial core-charges read in
  partial kinetic energy density read in
  atomic valenz-charges read in
  non local Contribution for L=            0  read in
    real space projection operators read in
  non local Contribution for L=            0  read in
    real space projection operators read in
  non local Contribution for L=            1  read in
    real space projection operators read in
  non local Contribution for L=            1  read in
    real space projection operators read in
    PAW grid and wavefunctions read in
 
   number of l-projection  operators is LMAX  =            4
   number of lm-projection operators is LMMAX =            8
 
 POTCAR:    PAW_PBE I 08Apr2002                   
   SHA256 =  e40f3f59b681c1fc3e3091736183c4589116986673d2b852a5012aec72758799 I/POTCAR              
   COPYR  = (c) Copyright 08Apr2002 Georg Kresse                                                    
   COPYR  = This file is part of the software VASP. Any use, copying, and all other rights are regul
   COPYR  = If you do not have a valid VASP license, you may not use, copy or distribute this file. 
   VRHFIN =I : s2p5                                                                                 
   LEXCH  = PE                                                                                      
   EATOM  =   315.8678 eV,   23.2156 Ry                                                             
                                                                                                    
   TITEL  = PAW_PBE I 08Apr2002                                                                     
   LULTRA =        F    use ultrasoft PP ?                                                          
   IUNSCR =        1    unscreen: 0-lin 1-nonlin 2-no                                               
   RPACOR =    2.200    partial core radius                                                         
   POMASS =  126.904; ZVAL   =    7.000    mass and valenz                                          
   RCORE  =    2.300    outmost cutoff radius                                                       
   RWIGS  =    2.810; RWIGS  =    1.487    wigner-seitz radius (au A)                               
   ENMAX  =  175.647; ENMIN  =  131.735 eV                                                          
   ICORE  =        3    local potential                                                             
   LCOR   =        T    correct aug charges                                                         
   LPAW   =        T    paw PP                                                                      
   EAUG   =  370.139                                                                                
   DEXC   =    0.000                                                                                
   RMAX   =    2.359    core radius for proj-oper                                                   
   RAUG   =    1.300    factor for augmentation sphere                                              
   RDEP   =    2.392    radius for radial grids                                                     
   RDEPT  =    2.170    core radius for aug-charge                                                  
                                                                                                    
   Atomic configuration                                                                             
   13 entries                                                                                       
     n  l   j            E        occ.                                                              
     1  0  0.50    -32976.3739   2.0000                                                             
     2  0  0.50     -5094.5933   2.0000                                                             
     2  1  1.50     -4572.0131   6.0000                                                             
     3  0  0.50     -1028.2813   2.0000                                                             
     3  1  1.50      -859.0250   6.0000                                                             
     3  2  2.50      -605.7620  10.0000                                                             
     4  0  0.50      -180.5540   2.0000                                                             
     4  1  1.50      -127.5306   6.0000                                                             
     4  2  2.50       -50.2720  10.0000                                                             
     5  0  0.50       -17.4058   2.0000                                                             
     5  1  0.50        -7.0851   5.0000                                                             
     5  2  1.50        -7.0750   0.0000                                                             
     4  3  2.50        -7.0750   0.0000                                                             
   Description                                                                                      
     l       E           TYP  RCUT    TYP  RCUT                                                     
     0    -17.4058016     23  2.300                                                                 
     0    -18.7663842     23  2.300                                                                 
     1     -7.0850686     23  2.300                                                                 
     1     -4.2150896     23  2.300                                                                 
     2     -7.0750295     23  2.300                                                                 
     3     -1.3605826     23  2.300                                                                 
  local pseudopotential read in
  partial core-charges read in
  partial kinetic energy density read in
  atomic valenz-charges read in
  non local Contribution for L=            0  read in
    real space projection operators read in
  non local Contribution for L=            0  read in
    real space projection operators read in
  non local Contribution for L=            1  read in
    real space projection operators read in
  non local Contribution for L=            1  read in
    real space projection operators read in
  non local Contribution for L=            2  read in
    real space projection operators read in
    PAW grid and wavefunctions read in
 
   number of l-projection  operators is LMAX  =            5
   number of lm-projection operators is LMMAX =           13
 
 POTCAR:    PAW_PBE Pb 08Apr2002                  
   SHA256 =  797118a27cf1bcd06b9881c67a26cdde129e3cd1a551dd4a281f9681ce847303 Pb/POTCAR             
   COPYR  = (c) Copyright 08Apr2002 Georg Kresse                                                    
   COPYR  = This file is part of the software VASP. Any use, copying, and all other rights are regul
   COPYR  = If you do not have a valid VASP license, you may not use, copy or distribute this file. 
   VRHFIN =Pb:                                                                                      
   LEXCH  = PE                                                                                      
   EATOM  =    96.9868 eV,    7.1283 Ry                                                             
                                                                                                    
   TITEL  = PAW_PBE Pb 08Apr2002                                                                    
   LULTRA =        F    use ultrasoft PP ?                                                          
   IUNSCR =        1    unscreen: 0-lin 1-nonlin 2-no                                               
   RPACOR =    2.200    partial core radius                                                         
   POMASS =  207.200; ZVAL   =    4.000    mass and valenz                                          
   RCORE  =    3.100    outmost cutoff radius                                                       
   RWIGS  =    3.260; RWIGS  =    1.725    wigner-seitz radius (au A)                               
   ENMAX  =   97.973; ENMIN  =   73.480 eV                                                          
   ICORE  =        3    local potential                                                             
   LCOR   =        T    correct aug charges                                                         
   LPAW   =        T    paw PP                                                                      
   EAUG   =  234.873                                                                                
   DEXC   =    0.000                                                                                
   RMAX   =    3.158    core radius for proj-oper                                                   
   RAUG   =    1.300    factor for augmentation sphere                                              
   RDEP   =    3.202    radius for radial grids                                                     
   RDEPT  =    2.659    core radius for aug-charge                                                  
                                                                                                    
   Atomic configuration                                                                             
   17 entries                                                                                       
     n  l   j            E        occ.                                                              
     1  0  0.50    -88091.8466   2.0000                                                             
     2  0  0.50    -15753.4197   2.0000                                                             
     2  1  1.50    -13508.1797   6.0000                                                             
     3  0  0.50     -3781.7194   2.0000                                                             
     3  1  1.50     -3138.2529   6.0000                                                             
     3  2  2.50     -2483.2977  10.0000                                                             
     4  0  0.50      -856.2895   2.0000                                                             
     4  1  1.50      -645.4943   6.0000                                                             
     4  2  2.50      -401.8768  10.0000                                                             
     4  3  3.50      -132.9059  14.0000                                                             
     5  0  0.50      -144.0950   2.0000                                                             
     5  1  1.50       -85.7879   6.0000                                                             
     5  2  2.50       -21.1769  10.0000                                                             
     6  0  0.50       -12.0372   2.0000                                                             
     6  1  1.50        -3.4971   2.0000                                                             
     6  2  2.50        -1.3606   0.0000                                                             
     5  3  2.50        -2.7212   0.0000                                                             
   Description                                                                                      
     l       E           TYP  RCUT    TYP  RCUT                                                     
     0    -12.0371566     23  3.100                                                                 
     0    -13.3977392     23  3.100                                                                 
     1     -3.4971341     23  3.100                                                                 
     1     -5.4423304     23  3.100                                                                 
     2     -1.3605826     23  3.100                                                                 
     3     -1.3605826     23  3.100                                                                 
  local pseudopotential read in
  partial core-charges read in
  partial kinetic energy density read in
  atomic valenz-charges read in
  non local Contribution for L=            0  read in
    real space projection operators read in
  non local Contribution for L=            0  read in
    real space projection operators read in
  non local Contribution for L=            1  read in
    real space projection operators read in
  non local Contribution for L=            1  read in
    real space projection operators read in
  non local Contribution for L=            2  read in
    real space projection operators read in
    PAW grid and wavefunctions read in
 
   number of l-projection  operators is LMAX  =            5
   number of lm-projection operators is LMMAX =           13
 
 Optimization of the real space projectors (new method)

 maximal supplied QI-value         = 34.20
 optimisation between [QCUT,QGAM] = [ 11.29, 22.57] = [ 35.68,142.71] Ry 
 Optimized for a Real-space Cutoff    1.16 Angstroem

   l    n(q)    QCUT    max X(q) W(low)/X(q) W(high)/X(q)  e(spline) 
   0      8    11.287    19.460    0.40E-03    0.73E-03    0.16E-06
   0      8    11.287    12.209    0.38E-03    0.70E-03    0.15E-06
   1      7    11.287     4.655    0.22E-03    0.25E-04    0.22E-06
 Optimization of the real space projectors (new method)

 maximal supplied QI-value         = 25.13
 optimisation between [QCUT,QGAM] = [ 11.31, 22.87] = [ 35.82,146.48] Ry 
 Optimized for a Real-space Cutoff    1.00 Angstroem

   l    n(q)    QCUT    max X(q) W(low)/X(q) W(high)/X(q)  e(spline) 
   0      7    11.310   115.676    0.43E-03    0.13E-02    0.19E-06
   0      7    11.310    87.132    0.43E-03    0.13E-02    0.18E-06
   1      6    11.310     4.429    0.42E-03    0.74E-03    0.11E-06
   1      6    11.310     2.733    0.34E-03    0.55E-03    0.92E-07
 Optimization of the real space projectors (new method)

 maximal supplied QI-value         = 25.13
 optimisation between [QCUT,QGAM] = [ 11.31, 22.87] = [ 35.82,146.48] Ry 
 Optimized for a Real-space Cutoff    1.27 Angstroem

   l    n(q)    QCUT    max X(q) W(low)/X(q) W(high)/X(q)  e(spline) 
   0      9    11.310    79.467    0.75E-04    0.16E-03    0.36E-06
   0      9    11.310    66.151    0.74E-04    0.16E-03    0.36E-06
   1      8    11.310    17.416    0.35E-03    0.12E-03    0.95E-06
   1      8    11.310    12.382    0.37E-03    0.13E-03    0.98E-06
 Optimization of the real space projectors (new method)

 maximal supplied QI-value         = 16.25
 optimisation between [QCUT,QGAM] = [ 11.38, 22.75] = [ 36.24,144.96] Ry 
 Optimized for a Real-space Cutoff    1.31 Angstroem

   l    n(q)    QCUT    max X(q) W(low)/X(q) W(high)/X(q)  e(spline) 
   0      9    11.376   194.483    0.24E-03    0.23E-03    0.67E-07
   0      9    11.376   190.334    0.23E-03    0.22E-03    0.65E-07
   1      8    11.376   116.687    0.25E-03    0.63E-04    0.16E-06
   1      8    11.376    88.696    0.25E-03    0.61E-04    0.16E-06
   2      8    11.376     4.877    0.17E-03    0.14E-03    0.29E-07
 Optimization of the real space projectors (new method)

 maximal supplied QI-value         = 12.09
 optimisation between [QCUT,QGAM] = [ 11.37, 22.86] = [ 36.19,146.31] Ry 
 Optimized for a Real-space Cutoff    1.66 Angstroem

   l    n(q)    QCUT    max X(q) W(low)/X(q) W(high)/X(q)  e(spline) 
   0     11    11.369   135.111    0.12E-03    0.69E-04    0.19E-05
   0     11    11.369   146.850    0.11E-03    0.65E-04    0.18E-05
   1     11    11.369   148.016    0.17E-03    0.32E-03    0.89E-06
   1     11    11.369   122.989    0.17E-03    0.32E-03    0.91E-06
   2     10    11.369     8.916    0.12E-03    0.45E-04    0.33E-06
  PAW_PBE H 15Jun2001                   :
 energy of atom  1       EATOM=  -12.4884
 kinetic energy error for atom=    0.0020 (will be added to EATOM!!)
  PAW_PBE C 08Apr2002                   :
 energy of atom  2       EATOM= -147.1560
 kinetic energy error for atom=    0.0076 (will be added to EATOM!!)
  PAW_PBE N 08Apr2002                   :
 energy of atom  3       EATOM= -264.5486
 kinetic energy error for atom=    0.0138 (will be added to EATOM!!)
  PAW_PBE I 08Apr2002                   :
 energy of atom  4       EATOM= -315.8678
 kinetic energy error for atom=    0.0009 (will be added to EATOM!!)
  PAW_PBE Pb 08Apr2002                  :
 energy of atom  5       EATOM=  -96.9868
 kinetic energy error for atom=    0.0000 (will be added to EATOM!!)
 
 
 POSCAR:  H  C  N  I Pb
  positions in cartesian coordinates
  No initial velocities read in
 exchange correlation table for  LEXCH =        8
   RHO(1)=    0.500       N(1)  =     2000
   RHO(2)=  100.500       N(2)  =     4000
 


--------------------------------------------------------------------------------------------------------


 ion  position               nearest neighbor table
   1  0.439  0.301  0.575- 187 1.00
   2  0.439  0.831  0.577- 188 0.99
   3  0.984  0.307  0.582- 189 1.01
   4  0.968  0.798  0.583- 190 1.02
   5  0.318  0.991  0.579- 194 1.03
   6  0.316  0.558  0.579- 195 1.03
   7  0.786  0.067  0.583- 196 1.03
   8  0.052  0.137  0.561- 183 1.01
   9  0.055  0.642  0.558- 184 1.01
  10  0.589  0.195  0.554- 185 1.01
  11  0.545  0.670  0.562- 186 1.01
  12  0.344  0.045  0.557- 194 1.00
  13  0.293  0.612  0.558- 195 1.00
  14  0.852  0.059  0.563- 196 0.99
  15  0.029  0.177  0.585- 183 0.99
  16  0.023  0.673  0.582- 184 1.01
  17  0.565  0.260  0.573- 185 1.01
  18  0.484  0.701  0.583- 186 1.03
  19  0.251  0.433  0.582- 191 1.04
  20  0.186  0.946  0.579- 192 1.04
  21  0.681  0.977  0.581- 193 1.03
  22  0.374  0.262  0.557- 187 1.04
  23  0.475  0.880  0.555- 188 1.03
  24  0.994  0.352  0.557- 189 1.02
  25  0.970  0.849  0.559- 190 1.02
  26  0.188  0.416  0.561- 191 0.99
  27  0.131  0.979  0.558- 192 1.01
  28  0.685  0.912  0.561- 193 1.01
  29  0.465  0.191  0.541- 146 1.09
  30  0.545  0.778  0.544- 147 1.09
  31  0.034  0.240  0.541- 144 1.09
  32  0.023  0.752  0.540- 145 1.11
  33  0.210  0.527  0.544- 148 1.07
  34  0.225  0.045  0.543- 149 1.08
  35  0.794  0.958  0.547- 150 1.08
  36  0.460  0.312  0.675- 205 0.99
  37  0.433  0.817  0.672- 206 1.01
  38  0.970  0.280  0.682- 207 1.00
  39  0.929  0.787  0.675- 208 1.03
  40  0.298  0.054  0.675- 209 0.99
  41  0.304  0.545  0.675- 210 1.00
  42  0.793  0.058  0.675- 211 0.99
  43  0.803  0.583  0.670- 212 1.03
  44  0.083  0.167  0.645- 197 1.03
  45  0.099  0.695  0.656- 198 1.04
  46  0.572  0.162  0.652- 199 1.03
  47  0.575  0.679  0.658- 200 1.01
  48  0.177  0.414  0.649- 201 1.05
  49  0.177  0.914  0.650- 202 1.05
  50  0.694  0.418  0.660- 203 0.99
  51  0.672  0.922  0.649- 204 1.05
  52  0.068  0.179  0.672- 197 1.05
  53  0.042  0.696  0.678- 198 1.03
  54  0.569  0.220  0.674- 199 1.02
  55  0.532  0.719  0.680- 200 1.00
  56  0.210  0.437  0.674- 201 0.99
  57  0.201  0.948  0.675- 202 1.00
  58  0.709  0.484  0.680- 203 1.02
  59  0.690  0.959  0.674- 204 0.99
  60  0.400  0.306  0.653- 205 1.03
  61  0.419  0.832  0.645- 206 1.03
  62  0.932  0.323  0.659- 207 1.01
  63  0.926  0.834  0.650- 208 1.02
  64  0.329  0.080  0.650- 209 1.03
  65  0.323  0.585  0.651- 210 1.05
  66  0.835  0.077  0.651- 211 1.03
  67  0.837  0.578  0.644- 212 0.99
  68  0.997  0.259  0.635- 151 1.12
  69  0.031  0.783  0.637- 152 1.11
  70  0.467  0.210  0.637- 153 1.10
  71  0.509  0.745  0.634- 154 1.11
  72  0.254  0.994  0.632- 156 1.10
  73  0.244  0.504  0.632- 155 1.11
  74  0.764  0.994  0.632- 158 1.10
  75  0.773  0.472  0.636- 157 1.09
  76  0.449  0.301  0.769- 221 1.02
  77  0.449  0.801  0.769- 222 1.02
  78  0.949  0.301  0.769- 223 1.02
  79  0.949  0.801  0.769- 224 1.02
  80  0.301  0.051  0.769- 225 1.02
  81  0.301  0.551  0.769- 226 1.02
  82  0.801  0.051  0.769- 227 1.02
  83  0.801  0.551  0.769- 228 1.02
  84  0.079  0.171  0.743- 213 1.02
  85  0.079  0.671  0.743- 214 1.02
  86  0.579  0.171  0.743- 215 1.02
  87  0.579  0.671  0.743- 216 1.02
  88  0.171  0.421  0.743- 217 1.02
  89  0.171  0.921  0.743- 218 1.02
  90  0.671  0.421  0.743- 219 1.02
  91  0.671  0.921  0.743- 220 1.02
  92  0.051  0.199  0.769- 213 1.02
  93  0.051  0.699  0.769- 214 1.02
  94  0.551  0.199  0.769- 215 1.02
  95  0.551  0.699  0.769- 216 1.02
  96  0.199  0.449  0.769- 217 1.02
  97  0.199  0.949  0.769- 218 1.02
  98  0.699  0.449  0.769- 219 1.02
  99  0.699  0.949  0.769- 220 1.02
 100  0.421  0.329  0.743- 221 1.02
 101  0.421  0.829  0.743- 222 1.02
 102  0.921  0.329  0.743- 223 1.02
 103  0.921  0.829  0.743- 224 1.02
 104  0.329  0.079  0.743- 225 1.02
 105  0.329  0.579  0.743- 226 1.02
 106  0.829  0.079  0.743- 227 1.02
 107  0.829  0.579  0.743- 228 1.02
 108  0.000  0.250  0.726- 161 1.09
 109  0.000  0.750  0.726- 162 1.09
 110  0.500  0.250  0.726- 159 1.09
 111  0.500  0.750  0.726- 160 1.09
 112  0.250  0.000  0.726- 163 1.09
 113  0.250  0.500  0.726- 164 1.09
 114  0.750  0.000  0.726- 165 1.09
 115  0.750  0.500  0.726- 166 1.09
 116  0.775  0.558  0.524- 173 1.10
 117  0.726  0.476  0.528- 173 1.09
 118  0.870  0.503  0.545- 174 1.09
 119  0.852  0.481  0.572- 174 1.09
 120  0.740  0.637  0.563- 175 1.10
 121  0.801  0.593  0.581- 175 1.09
 122  0.661  0.541  0.571- 176 1.10
 123  0.675  0.452  0.561- 176 1.10
 124  0.615  0.547  0.539- 177 1.10
 125  0.668  0.629  0.540- 177 1.08
 126  0.612  0.649  0.508- 178 1.08
 127  0.691  0.604  0.498- 178 1.09
 128  0.830  0.387  0.532- 179 1.10
 129  0.758  0.375  0.551- 179 1.12
 130  0.850  0.360  0.559- 179 1.09
 131  0.860  0.691  0.559- 180 1.10
 132  0.849  0.635  0.536- 180 1.10
 133  0.907  0.604  0.557- 180 1.10
 134  0.759  0.513  0.600- 181 1.10
 135  0.759  0.420  0.591- 181 1.10
 136  0.676  0.460  0.601- 181 1.10
 137  0.540  0.536  0.507- 182 1.09
 138  0.576  0.556  0.481- 182 1.10
 139  0.705  0.490  0.473- 168 1.07
 140  0.551  0.418  0.521- 169 1.10
 141  0.772  0.371  0.476- 170 1.07
 142  0.619  0.297  0.524- 171 1.09
 143  0.729  0.274  0.501- 172 1.08
 144  0.021  0.243  0.558-  31 1.09 189 1.31 183 1.31
 145  0.011  0.745  0.557-  32 1.11 190 1.30 184 1.31
 146  0.482  0.227  0.554-  29 1.09 185 1.30 187 1.34
 147  0.511  0.773  0.558-  30 1.09 186 1.31 188 1.33
 148  0.239  0.513  0.559-  33 1.07 191 1.29 195 1.32
 149  0.236  0.014  0.557-  34 1.08 192 1.29 194 1.32
 150  0.770  0.985  0.561-  35 1.08 196 1.29 193 1.32
 151  0.006  0.246  0.652-  68 1.12 197 1.28 207 1.32
 152  0.013  0.764  0.653-  69 1.11 198 1.27 208 1.31
 153  0.487  0.233  0.652-  70 1.10 199 1.28 205 1.34
 154  0.497  0.755  0.651-  71 1.11 200 1.31 206 1.31
 155  0.251  0.500  0.650-  73 1.11 210 1.29 201 1.32
 156  0.252  0.997  0.650-  72 1.10 202 1.29 209 1.34
 157  0.765  0.497  0.652-  75 1.09 203 1.31 212 1.33
 158  0.753  0.999  0.650-  74 1.10 204 1.29 211 1.34
 159  0.500  0.250  0.743- 110 1.09 221 1.31 215 1.31
 160  0.500  0.750  0.743- 111 1.09 222 1.31 216 1.31
 161  1.000  0.250  0.743- 108 1.09 223 1.31 213 1.31
 162  1.000  0.750  0.743- 109 1.09 224 1.31 214 1.31
 163  0.250  0.000  0.743- 112 1.09 225 1.31 218 1.31
 164  0.250  0.500  0.743- 113 1.09 226 1.31 217 1.31
 165  0.750  0.000  0.743- 114 1.09 227 1.31 220 1.31
 166  0.750  0.500  0.743- 115 1.09 228 1.31 219 1.31
 167  0.625  0.463  0.497- 168 1.40 169 1.41 182 1.51
 168  0.687  0.448  0.484- 139 1.07 167 1.40 170 1.42
 169  0.600  0.408  0.511- 140 1.10 167 1.41 171 1.42
 170  0.724  0.380  0.486- 141 1.07 172 1.40 168 1.42
 171  0.638  0.339  0.513- 142 1.09 172 1.40 169 1.42
 172  0.700  0.326  0.500- 143 1.08 170 1.40 171 1.40
 173  0.732  0.533  0.533- 117 1.09 116 1.10 229 1.51 177 1.51
 174  0.829  0.476  0.556- 118 1.09 119 1.09 229 1.50 179 1.52
 175  0.788  0.601  0.564- 121 1.09 120 1.10 180 1.51 229 1.53
 176  0.703  0.497  0.570- 123 1.10 122 1.10 229 1.48 181 1.50
 177  0.662  0.578  0.532- 125 1.08 124 1.10 173 1.51 178 1.54
 178  0.642  0.597  0.508- 126 1.08 127 1.09 177 1.54 182 1.54
 179  0.815  0.397  0.549- 130 1.09 128 1.10 129 1.12 174 1.52
 180  0.856  0.634  0.553- 132 1.10 131 1.10 133 1.10 175 1.51
 181  0.726  0.471  0.592- 136 1.10 135 1.10 134 1.10 176 1.50
 182  0.591  0.540  0.498- 137 1.09 138 1.10 167 1.51 178 1.54
 183  0.034  0.182  0.569-  15 0.99   8 1.01 144 1.31
 184  0.032  0.683  0.567-  16 1.01   9 1.01 145 1.31
 185  0.550  0.226  0.561-  10 1.01  17 1.01 146 1.30
 186  0.515  0.711  0.569-  11 1.01  18 1.03 147 1.31
 187  0.428  0.269  0.562-   1 1.00  22 1.04 146 1.34
 188  0.469  0.831  0.564-   2 0.99  23 1.03 147 1.33
 189  0.993  0.304  0.566-   3 1.01  24 1.02 144 1.31
 190  0.979  0.800  0.567-   4 1.02  25 1.02 145 1.30
 191  0.226  0.450  0.567-  26 0.99  19 1.04 148 1.29
 192  0.181  0.977  0.565-  27 1.01  20 1.04 149 1.29
 193  0.706  0.958  0.568-  28 1.01  21 1.03 150 1.32
 194  0.303  0.018  0.565-  12 1.00   5 1.03 149 1.32
 195  0.285  0.564  0.566-  13 1.00   6 1.03 148 1.32
 196  0.807  0.038  0.570-  14 0.99   7 1.03 150 1.29
 197  0.054  0.195  0.657-  44 1.03  52 1.05 151 1.28
 198  0.052  0.717  0.663-  53 1.03  45 1.04 152 1.27
 199  0.546  0.204  0.660-  54 1.02  46 1.03 153 1.28
 200  0.538  0.715  0.664-  55 1.00  47 1.01 154 1.31
 201  0.211  0.447  0.659-  56 0.99  48 1.05 155 1.32
 202  0.208  0.952  0.660-  57 1.00  49 1.05 156 1.29
 203  0.719  0.464  0.665-  50 0.99  58 1.02 157 1.31
 204  0.703  0.959  0.659-  59 0.99  51 1.05 158 1.29
 205  0.447  0.288  0.661-  36 0.99  60 1.03 153 1.34
 206  0.447  0.804  0.656-  37 1.01  61 1.03 154 1.31
 207  0.966  0.286  0.666-  38 1.00  62 1.01 151 1.32
 208  0.952  0.796  0.660-  63 1.02  39 1.03 152 1.31
 209  0.296  0.047  0.659-  40 0.99  64 1.03 156 1.34
 210  0.294  0.545  0.660-  41 1.00  65 1.05 155 1.29
 211  0.797  0.048  0.659-  42 0.99  66 1.03 158 1.34
 212  0.804  0.558  0.655-  67 0.99  43 1.03 157 1.33
 213  0.046  0.204  0.753-  92 1.02  84 1.02 161 1.31
 214  0.046  0.704  0.753-  93 1.02  85 1.02 162 1.31
 215  0.546  0.204  0.753-  94 1.02  86 1.02 159 1.31
 216  0.546  0.704  0.753-  95 1.02  87 1.02 160 1.31
 217  0.204  0.454  0.753-  96 1.02  88 1.02 164 1.31
 218  0.204  0.954  0.753-  97 1.02  89 1.02 163 1.31
 219  0.704  0.454  0.753-  98 1.02  90 1.02 166 1.31
 220  0.704  0.954  0.753-  99 1.02  91 1.02 165 1.31
 221  0.454  0.296  0.753-  76 1.02 100 1.02 159 1.31
 222  0.454  0.796  0.753-  77 1.02 101 1.02 160 1.31
 223  0.954  0.296  0.753-  78 1.02 102 1.02 161 1.31
 224  0.954  0.796  0.753-  79 1.02 103 1.02 162 1.31
 225  0.296  0.046  0.753-  80 1.02 104 1.02 163 1.31
 226  0.296  0.546  0.753-  81 1.02 105 1.02 164 1.31
 227  0.796  0.046  0.753-  82 1.02 106 1.02 165 1.31
 228  0.796  0.546  0.753-  83 1.02 107 1.02 166 1.31
 229  0.762  0.526  0.556- 176 1.48 174 1.50 173 1.51 175 1.53
 230  0.496  0.021  0.552- 304 3.21
 231  0.470  0.513  0.558- 305 3.03
 232  0.993  0.995  0.551- 302 3.37
 233  0.036  0.493  0.552- 303 3.37
 234  0.232  0.239  0.552- 306 3.18
 235  0.257  0.756  0.553- 307 3.09
 236  0.747  0.212  0.556- 308 3.09
 237  0.719  0.786  0.547- 309 3.58
 238  0.001  0.995  0.654- 302 3.10 310 3.17
 239  0.014  0.500  0.655- 303 3.10 311 3.11
 240  0.494  0.000  0.654- 312 3.18 304 3.21
 241  0.506  0.489  0.656- 313 3.04 305 3.18
 242  0.253  0.247  0.654- 314 3.15 306 3.23
 243  0.249  0.751  0.654- 315 3.15 307 3.26
 244  0.741  0.258  0.655- 316 3.10 308 3.22
 245  0.752  0.757  0.654- 309 3.16 317 3.20
 246  0.144  0.105  0.611- 306 3.18 302 3.30
 247  0.146  0.607  0.608- 307 3.15 303 3.18
 248  0.651  0.104  0.610- 308 3.17 304 3.28
 249  0.618  0.636  0.615- 309 3.22 305 3.38
 250  0.351  0.391  0.608- 305 3.24 306 3.25
 251  0.360  0.893  0.608- 304 3.27 307 3.33
 252  0.892  0.363  0.614- 303 3.28 308 3.38
 253  0.863  0.889  0.608- 302 3.14 309 3.24
 254  0.115  0.356  0.611- 306 3.11 303 3.27
 255  0.111  0.863  0.607- 302 3.25 307 3.25
 256  0.578  0.328  0.608- 308 3.37 305 3.38
 257  0.613  0.863  0.611- 309 3.11 304 3.32
 258  0.383  0.131  0.608- 304 3.11 306 3.28
 259  0.387  0.639  0.613- 307 3.25 305 3.27
 260  0.888  0.142  0.612- 302 3.24 308 3.27
 261  0.915  0.651  0.615- 303 3.25 309 3.69
 262  0.000  0.000  0.755- 310 3.13 318 3.27
 263  0.000  0.500  0.755- 311 3.13 319 3.27
 264  0.500  0.000  0.755- 312 3.13 320 3.27
 265  0.500  0.500  0.755- 313 3.13 321 3.27
 266  0.250  0.250  0.755- 314 3.13 322 3.27
 267  0.250  0.750  0.755- 315 3.13 323 3.27
 268  0.750  0.250  0.755- 316 3.13 324 3.27
 269  0.750  0.750  0.755- 317 3.13 325 3.27
 270  0.136  0.114  0.705- 310 3.20 314 3.20
 271  0.136  0.614  0.705- 311 3.20 315 3.20
 272  0.636  0.114  0.705- 312 3.20 316 3.20
 273  0.636  0.614  0.705- 313 3.20 317 3.20
 274  0.364  0.386  0.705- 313 3.20 314 3.20
 275  0.364  0.886  0.705- 312 3.20 315 3.20
 276  0.864  0.386  0.705- 311 3.20 316 3.20
 277  0.864  0.886  0.705- 310 3.20 317 3.20
 278  0.114  0.364  0.705- 314 3.21 311 3.21
 279  0.114  0.864  0.705- 315 3.21 310 3.21
 280  0.614  0.364  0.705- 316 3.21 313 3.21
 281  0.614  0.864  0.705- 317 3.21 312 3.21
 282  0.386  0.136  0.705- 314 3.21 312 3.21
 283  0.386  0.636  0.705- 315 3.21 313 3.21
 284  0.886  0.136  0.705- 316 3.21 310 3.21
 285  0.886  0.636  0.705- 317 3.21 311 3.21
 286  0.135  0.115  0.801- 318 3.22 322 3.22
 287  0.135  0.615  0.801- 319 3.22 323 3.22
 288  0.635  0.115  0.801- 320 3.22 324 3.22
 289  0.635  0.615  0.801- 321 3.22 325 3.22
 290  0.365  0.385  0.801- 321 3.22 322 3.22
 291  0.365  0.885  0.801- 320 3.22 323 3.22
 292  0.865  0.385  0.801- 319 3.22 324 3.22
 293  0.865  0.885  0.801- 318 3.22 325 3.22
 294  0.115  0.365  0.801- 319 3.23 322 3.23
 295  0.115  0.865  0.801- 318 3.23 323 3.23
 296  0.615  0.365  0.801- 321 3.23 324 3.23
 297  0.615  0.865  0.801- 320 3.23 325 3.23
 298  0.385  0.135  0.801- 320 3.23 322 3.23
 299  0.385  0.635  0.801- 321 3.23 323 3.23
 300  0.885  0.135  0.801- 318 3.23 324 3.23
 301  0.885  0.635  0.801- 319 3.23 325 3.23
 302  0.996  0.000  0.605- 238 3.10 253 3.14 260 3.24 255 3.25 246 3.30 232 3.37
 303  0.006  0.500  0.606- 239 3.10 247 3.18 261 3.25 254 3.27 252 3.28 233 3.37
 304  0.500  0.006  0.603- 258 3.11 240 3.21 230 3.21 251 3.27 248 3.28 257 3.32
 305  0.496  0.496  0.606- 231 3.03 241 3.18 250 3.24 259 3.27 256 3.38 249 3.38
 306  0.244  0.247  0.603- 254 3.11 234 3.18 246 3.18 242 3.23 250 3.25 258 3.28
 307  0.248  0.747  0.602- 235 3.09 247 3.15 255 3.25 259 3.25 243 3.26 251 3.33
 308  0.747  0.250  0.604- 236 3.09 248 3.17 244 3.22 260 3.27 256 3.37 252 3.38
 309  0.744  0.755  0.603- 257 3.11 245 3.16 249 3.22 253 3.24 237 3.58 261 3.69
 310  0.000  0.000  0.705- 262 3.13 238 3.17 270 3.20 277 3.20 279 3.21 284 3.21
 311  0.000  0.500  0.705- 239 3.11 263 3.13 271 3.20 276 3.20 278 3.21 285 3.21
 312  0.500  0.000  0.705- 264 3.13 240 3.18 272 3.20 275 3.20 281 3.21 282 3.21
 313  0.500  0.500  0.705- 241 3.04 265 3.13 273 3.20 274 3.20 280 3.21 283 3.21
 314  0.250  0.250  0.705- 266 3.13 242 3.15 270 3.20 274 3.20 282 3.21 278 3.21
 315  0.250  0.750  0.705- 267 3.13 243 3.15 271 3.20 275 3.20 283 3.21 279 3.21
 316  0.750  0.250  0.705- 244 3.10 268 3.13 272 3.20 276 3.20 284 3.21 280 3.21
 317  0.750  0.750  0.705- 269 3.13 245 3.20 273 3.20 277 3.20 285 3.21 281 3.21
 318  0.000  0.000  0.807- 286 3.22 293 3.22 300 3.23 295 3.23 262 3.27
 319  0.000  0.500  0.807- 287 3.22 292 3.22 301 3.23 294 3.23 263 3.27
 320  0.500  0.000  0.807- 288 3.22 291 3.22 298 3.23 297 3.23 264 3.27
 321  0.500  0.500  0.807- 289 3.22 290 3.22 299 3.23 296 3.23 265 3.27
 322  0.250  0.250  0.807- 290 3.22 286 3.22 294 3.23 298 3.23 266 3.27
 323  0.250  0.750  0.807- 291 3.22 287 3.22 299 3.23 295 3.23 267 3.27
 324  0.750  0.250  0.807- 292 3.22 288 3.22 296 3.23 300 3.23 268 3.27
 325  0.750  0.750  0.807- 293 3.22 289 3.22 297 3.23 301 3.23 269 3.27
 

IMPORTANT INFORMATION: All symmetrisations will be switched off!
NOSYMM: (Re-)initialisation of all symmetry stuff for point group C_1.


----------------------------------------------------------------------------------------

                                     Primitive cell                                     

  volume of cell :   20385.2105

  direct lattice vectors                    reciprocal lattice vectors
    18.060800552  0.000000000  0.000000000     0.055368531  0.000015077 -0.000000000
    -0.004918649 18.062799454  0.000000000     0.000000000  0.055362404  0.000000000
     0.000000000  0.000000000 62.487499237     0.000000000 -0.000000000  0.016003201

  length of vectors
    18.060800552 18.062800123 62.487499237     0.055368533  0.055362404  0.016003201

  position of ions in fractional coordinates (direct lattice)
     0.438734415  0.300697859  0.575152696
     0.438954143  0.830837164  0.576880459
     0.984136517  0.307396594  0.581771757
     0.968432988  0.798449786  0.582814019
     0.318318573  0.991268308  0.578831411
     0.316257689  0.557762852  0.579487975
     0.785878378  0.067394558  0.582730933
     0.052156001  0.136637683  0.560966753
     0.055266135  0.641932368  0.557973601
     0.589420709  0.194722231  0.554051918
     0.544925789  0.669708078  0.562375299
     0.344230692  0.045338932  0.557480949
     0.292946233  0.611722737  0.557955592
     0.851599286  0.059364965  0.563175020
     0.028584619  0.176634451  0.584536775
     0.022937728  0.673086181  0.582247621
     0.565348353  0.259635581  0.573233123
     0.484227494  0.701368115  0.582500663
     0.251300683  0.433341158  0.581554978
     0.185544024  0.946072608  0.579007166
     0.680728657  0.977382337  0.581476349
     0.373732753  0.261647596  0.557318624
     0.474974457  0.879717910  0.555358515
     0.993731703  0.352149035  0.557385532
     0.969529252  0.849479082  0.559140949
     0.187661234  0.415766360  0.561490723
     0.130612353  0.978998551  0.558481698
     0.685001386  0.911940566  0.560993248
     0.464822486  0.191359413  0.540878690
     0.545156630  0.778420185  0.543505680
     0.034100449  0.240124454  0.540909336
     0.023131192  0.752163201  0.540115415
     0.210403302  0.526584541  0.544041493
     0.225290384  0.044937524  0.542603828
     0.793979390  0.957840008  0.547286893
     0.460035712  0.311859663  0.674672174
     0.433263416  0.816551372  0.671701365
     0.970179267  0.279676322  0.681503191
     0.929440017  0.786863910  0.674782914
     0.297871427  0.053791197  0.674920210
     0.304075852  0.544940824  0.675490331
     0.793383484  0.057628138  0.675023135
     0.802798555  0.583214776  0.670281220
     0.082817784  0.166849360  0.645270297
     0.098958309  0.694517772  0.655971351
     0.571877943  0.162142405  0.651986606
     0.574828403  0.679085003  0.657588557
     0.176970071  0.413573381  0.649061949
     0.176920500  0.914496100  0.650307193
     0.694487621  0.417694770  0.659863731
     0.672233872  0.922267157  0.648953529
     0.067701619  0.178793837  0.672434910
     0.042327606  0.696426145  0.678242774
     0.569221402  0.219551855  0.674240874
     0.532351865  0.719052759  0.679863764
     0.210100283  0.436745976  0.674309919
     0.200770976  0.947987643  0.675272697
     0.708534135  0.483925317  0.679710963
     0.690378506  0.958772485  0.674053947
     0.400205115  0.306015010  0.653028685
     0.418865883  0.831727808  0.644571732
     0.931567786  0.323384266  0.659269924
     0.925519896  0.834029471  0.650444489
     0.328623376  0.080188729  0.649703984
     0.323272901  0.584604570  0.650790994
     0.835100901  0.076731548  0.650536670
     0.837414584  0.578478558  0.644391887
     0.996711039  0.259045144  0.635077951
     0.031323472  0.783236444  0.637073773
     0.466912401  0.210371641  0.636953692
     0.508786652  0.745251876  0.633863597
     0.254494663  0.993695468  0.632221056
     0.244461415  0.504035804  0.632261287
     0.763858312  0.993972028  0.632260188
     0.773274523  0.472363729  0.636077541
     0.448745018  0.301283966  0.768889017
     0.448745007  0.801283913  0.768889017
     0.948744965  0.301283966  0.768889017
     0.948745007  0.801283913  0.768889017
     0.301275995  0.051294496  0.768872961
     0.301276011  0.551294499  0.768872961
     0.801275943  0.051294496  0.768872961
     0.801275984  0.551294499  0.768872961
     0.078771004  0.171180501  0.743441971
     0.078771006  0.671180448  0.743441971
     0.578771004  0.171180501  0.743441971
     0.578770992  0.671180448  0.743441971
     0.171199499  0.421174482  0.743421032
     0.171199501  0.921174508  0.743421032
     0.671199512  0.421174482  0.743421032
     0.671199501  0.921174508  0.743421032
     0.051256000  0.198714991  0.768889017
     0.051256002  0.698714925  0.768889017
     0.551256027  0.198714991  0.768889017
     0.551256016  0.698714925  0.768889017
     0.198723491  0.448703970  0.768872046
     0.198723493  0.948703970  0.768872046
     0.698723518  0.448703970  0.768872046
     0.698723507  0.948703970  0.768872046
     0.421231519  0.328817467  0.743441971
     0.421231508  0.828817440  0.743441971
     0.921231466  0.328817467  0.743441971
     0.921231508  0.828817440  0.743441971
     0.328800503  0.078824997  0.743421032
     0.328800492  0.578824964  0.743421032
     0.828800477  0.078824997  0.743421032
     0.828800519  0.578824964  0.743421032
     0.000003500  0.250001478  0.725821992
     0.000003500  0.750001452  0.725821992
     0.500003506  0.250001478  0.725821992
     0.500003495  0.750001452  0.725821992
     0.250000502  0.000000000  0.725803983
     0.250000517  0.500000000  0.725803983
     0.750000502  0.000000000  0.725803983
     0.750000490  0.500000000  0.725803983
     0.775400532  0.557601343  0.523545267
     0.725678422  0.476285489  0.527685133
     0.869537016  0.502772830  0.545146267
     0.851543636  0.481089975  0.571820121
     0.739877676  0.637450160  0.562559907
     0.800626081  0.592992383  0.581011473
     0.660656811  0.540620071  0.571124730
     0.675013779  0.451819668  0.561071267
     0.614944679  0.547418092  0.538781347
     0.668178976  0.628971324  0.540424193
     0.612265568  0.649340414  0.508205163
     0.690919017  0.604476358  0.498365396
     0.829933235  0.387362622  0.531969560
     0.758078278  0.374772350  0.551016338
     0.850238694  0.360269745  0.558576139
     0.860342804  0.691405294  0.558928748
     0.848747135  0.634754415  0.535765729
     0.906985940  0.603846693  0.557462085
     0.758550347  0.513226775  0.600154462
     0.758977368  0.419768268  0.591400819
     0.676076118  0.460294808  0.601099536
     0.539853380  0.536330416  0.506789108
     0.575735029  0.555535475  0.481273354
     0.705089125  0.489934857  0.473257987
     0.551327765  0.418311843  0.521491329
     0.771851212  0.371185934  0.475658492
     0.619056061  0.297079289  0.524242428
     0.729197577  0.274096502  0.501391422
     0.020702393  0.242836804  0.557916155
     0.011375655  0.744833930  0.557376985
     0.481790223  0.226854596  0.554167481
     0.510809209  0.773255989  0.557853094
     0.239150480  0.512927518  0.558576627
     0.236048211  0.013634582  0.556901182
     0.769826537  0.984851969  0.560974567
     0.006401896  0.245751950  0.652333233
     0.012599007  0.764264540  0.653108474
     0.486717955  0.233251539  0.652247889
     0.497323937  0.755276259  0.651094949
     0.251270515  0.499878354  0.649814907
     0.252104630  0.996556259  0.649791648
     0.765161731  0.497175112  0.651883925
     0.752967392  0.998706301  0.649542819
     0.499988984  0.249994984  0.743277021
     0.499989025  0.749994958  0.743277021
     0.999988984  0.249994984  0.743277021
     0.999989025  0.749994958  0.743277021
     0.250000502  0.000001000  0.743255960
     0.250000517  0.500001003  0.743255960
     0.750000502  0.000001000  0.743255960
     0.750000491  0.500001003  0.743255960
     0.625058479  0.462956076  0.497223902
     0.686670083  0.448428471  0.484167945
     0.600344211  0.407731157  0.511388844
     0.724023829  0.379560151  0.485522953
     0.637978094  0.338912757  0.512809722
     0.699955941  0.325736140  0.499989408
     0.731737133  0.532633996  0.533450996
     0.829213051  0.475985598  0.555613998
     0.788215499  0.600919852  0.564038413
     0.702564134  0.496799562  0.569721068
     0.661699432  0.577706920  0.531679462
     0.641793806  0.597255850  0.508411442
     0.815490366  0.396513493  0.548826935
     0.855689894  0.633749305  0.553228084
     0.726114893  0.471039562  0.591576513
     0.591013701  0.539511214  0.497656270
     0.034236382  0.182408223  0.568811218
     0.032006282  0.683047418  0.566593184
     0.549801244  0.225887210  0.561066077
     0.514823462  0.711289384  0.568820619
     0.428153763  0.269061713  0.562456798
     0.469453047  0.830831725  0.563647893
     0.992994266  0.303740010  0.565852985
     0.978508592  0.800199607  0.566756730
     0.225769968  0.449669112  0.567455722
     0.181440094  0.976566489  0.564995880
     0.705872480  0.958147578  0.567845510
     0.303409660  0.018352821  0.564976222
     0.285168167  0.563837386  0.565816356
     0.806877523  0.037609414  0.569973560
     0.053764897  0.195428044  0.656912091
     0.051728383  0.716651255  0.663033738
     0.545556900  0.204384144  0.660053039
     0.537781705  0.714976195  0.663971181
     0.210576751  0.447195750  0.658714759
     0.208249789  0.951704245  0.659525346
     0.718954950  0.463698148  0.664807652
     0.703097184  0.958556730  0.658574960
     0.447022727  0.288109567  0.660821137
     0.446997411  0.804158907  0.656441416
     0.966325976  0.285705159  0.665704988
     0.951625172  0.795925052  0.659833391
     0.295953370  0.046927562  0.659200085
     0.294351451  0.544867646  0.659811475
     0.796659580  0.047951405  0.659457644
     0.804375993  0.557953926  0.655455318
     0.045862501  0.204119496  0.752725994
     0.045862500  0.704119456  0.752725994
     0.545862507  0.204119496  0.752725994
     0.545862496  0.704119456  0.752725994
     0.204119002  0.454101003  0.752704994
     0.204118991  0.954100951  0.752704994
     0.704118976  0.454101003  0.752704994
     0.704118964  0.954100951  0.752704994
     0.454140018  0.295888490  0.752726971
     0.454140007  0.795888516  0.752726971
     0.954140018  0.295888490  0.752726971
     0.954140060  0.795888516  0.752726971
     0.295882492  0.045900498  0.752704994
     0.295882481  0.545900528  0.752704994
     0.795882439  0.045900498  0.752704994
     0.795882481  0.545900528  0.752704994
     0.762421602  0.525502663  0.555759230
     0.495780384  0.020629567  0.551654832
     0.470432841  0.512940400  0.557884106
     0.993377949  0.995308804  0.550596393
     0.035708693  0.492836672  0.552442160
     0.231589793  0.238628457  0.552048161
     0.257346738  0.756249479  0.552820837
     0.747116980  0.211825664  0.555665217
     0.718992529  0.785685994  0.547081469
     0.000761802  0.994944161  0.654158244
     0.014207439  0.499900952  0.655260882
     0.493730595  0.000435894  0.654035905
     0.506018065  0.488767922  0.656299969
     0.253490127  0.246714557  0.654418795
     0.248682456  0.751359145  0.654372643
     0.741315352  0.257789667  0.655354101
     0.752392821  0.756565579  0.653730913
     0.143701406  0.105139959  0.611001846
     0.146347826  0.606726227  0.608117297
     0.651078462  0.104380009  0.609523340
     0.617629896  0.635631755  0.614612432
     0.351039837  0.390932538  0.607814441
     0.359721000  0.892509263  0.607562072
     0.891548629  0.362710028  0.614416958
     0.862572678  0.889100537  0.607713530
     0.114834023  0.356415961  0.611119973
     0.110927921  0.862516419  0.606808259
     0.577671733  0.328206808  0.607908699
     0.612864231  0.863307487  0.610614745
     0.382943163  0.131134393  0.608411546
     0.387451257  0.638801570  0.612811535
     0.888186723  0.141640437  0.611974514
     0.914725839  0.650992296  0.615213504
     0.000000000  0.000000000  0.754927972
     0.000000000  0.500000000  0.754927972
     0.500000000  0.000000000  0.754927972
     0.499999989  0.500000000  0.754927972
     0.250000496  0.250000000  0.754939022
     0.250000511  0.749999974  0.754939022
     0.750000470  0.250000000  0.754939022
     0.750000458  0.749999974  0.754939022
     0.135790500  0.114209997  0.704782994
     0.135790502  0.614209984  0.704782994
     0.635790447  0.114209997  0.704782994
     0.635790488  0.614209984  0.704782994
     0.364209516  0.385789989  0.704782994
     0.364209505  0.885789963  0.704782994
     0.864209542  0.385789989  0.704782994
     0.864209531  0.885789963  0.704782994
     0.114217990  0.364218986  0.704780979
     0.114217992  0.864218986  0.704780979
     0.614218004  0.364218986  0.704780979
     0.614217992  0.864218986  0.704780979
     0.385782012  0.135781489  0.704782017
     0.385782001  0.635781489  0.704782017
     0.885781985  0.135781489  0.704782017
     0.885782027  0.635781489  0.704782017
     0.134667000  0.115332001  0.801256025
     0.134666989  0.615331988  0.801256025
     0.634666987  0.115332001  0.801256025
     0.634666976  0.615331988  0.801256025
     0.365333002  0.384667985  0.801256025
     0.365332990  0.884667959  0.801256025
     0.865332949  0.384667985  0.801256025
     0.865332938  0.884667959  0.801256025
     0.115328503  0.365337004  0.801264999
     0.115328505  0.865336978  0.801264999
     0.615328503  0.365337004  0.801264999
     0.615328492  0.865336978  0.801264999
     0.384671513  0.134662996  0.801264999
     0.384671501  0.634662970  0.801264999
     0.884671486  0.134662996  0.801264999
     0.884671528  0.634662970  0.801264999
     0.995747071  0.000330226  0.604514038
     0.006442777  0.499976452  0.605744203
     0.500060166  0.006093814  0.602788168
     0.496144252  0.496430031  0.605545494
     0.244429361  0.246928705  0.602773760
     0.248131817  0.746982110  0.602185020
     0.746603375  0.250466336  0.603871331
     0.744167852  0.755310419  0.603222092
     0.000000500  0.000000500  0.704828963
     0.000000500  0.500000475  0.704828963
     0.500000475  0.000000500  0.704828963
     0.500000464  0.500000475  0.704828963
     0.249999994  0.249999472  0.704824995
     0.250000010  0.749999498  0.704824995
     0.749999994  0.249999472  0.704824995
     0.749999983  0.749999498  0.704824995
     0.000000000  0.000000000  0.807317968
     0.000000000  0.500000000  0.807317968
     0.500000000  0.000000000  0.807317968
     0.499999989  0.500000000  0.807317968
     0.249999994  0.250000000  0.807317968
     0.250000010  0.749999974  0.807317968
     0.749999994  0.250000000  0.807317968
     0.749999983  0.749999974  0.807317968

  ion indices of the primitive-cell ions
   primitive index   ion index
                 1           1
                 2           2
                 3           3
                 4           4
                 5           5
                 6           6
                 7           7
                 8           8
                 9           9
                10          10
                11          11
                12          12
                13          13
                14          14
                15          15
                16          16
                17          17
                18          18
                19          19
                20          20
                21          21
                22          22
                23          23
                24          24
                25          25
                26          26
                27          27
                28          28
                29          29
                30          30
                31          31
                32          32
                33          33
                34          34
                35          35
                36          36
                37          37
                38          38
                39          39
                40          40
                41          41
                42          42
                43          43
                44          44
                45          45
                46          46
                47          47
                48          48
                49          49
                50          50
                51          51
                52          52
                53          53
                54          54
                55          55
                56          56
                57          57
                58          58
                59          59
                60          60
                61          61
                62          62
                63          63
                64          64
                65          65
                66          66
                67          67
                68          68
                69          69
                70          70
                71          71
                72          72
                73          73
                74          74
                75          75
                76          76
                77          77
                78          78
                79          79
                80          80
                81          81
                82          82
                83          83
                84          84
                85          85
                86          86
                87          87
                88          88
                89          89
                90          90
                91          91
                92          92
                93          93
                94          94
                95          95
                96          96
                97          97
                98          98
                99          99
               100         100
               101         101
               102         102
               103         103
               104         104
               105         105
               106         106
               107         107
               108         108
               109         109
               110         110
               111         111
               112         112
               113         113
               114         114
               115         115
               116         116
               117         117
               118         118
               119         119
               120         120
               121         121
               122         122
               123         123
               124         124
               125         125
               126         126
               127         127
               128         128
               129         129
               130         130
               131         131
               132         132
               133         133
               134         134
               135         135
               136         136
               137         137
               138         138
               139         139
               140         140
               141         141
               142         142
               143         143
               144         144
               145         145
               146         146
               147         147
               148         148
               149         149
               150         150
               151         151
               152         152
               153         153
               154         154
               155         155
               156         156
               157         157
               158         158
               159         159
               160         160
               161         161
               162         162
               163         163
               164         164
               165         165
               166         166
               167         167
               168         168
               169         169
               170         170
               171         171
               172         172
               173         173
               174         174
               175         175
               176         176
               177         177
               178         178
               179         179
               180         180
               181         181
               182         182
               183         183
               184         184
               185         185
               186         186
               187         187
               188         188
               189         189
               190         190
               191         191
               192         192
               193         193
               194         194
               195         195
               196         196
               197         197
               198         198
               199         199
               200         200
               201         201
               202         202
               203         203
               204         204
               205         205
               206         206
               207         207
               208         208
               209         209
               210         210
               211         211
               212         212
               213         213
               214         214
               215         215
               216         216
               217         217
               218         218
               219         219
               220         220
               221         221
               222         222
               223         223
               224         224
               225         225
               226         226
               227         227
               228         228
               229         229
               230         230
               231         231
               232         232
               233         233
               234         234
               235         235
               236         236
               237         237
               238         238
               239         239
               240         240
               241         241
               242         242
               243         243
               244         244
               245         245
               246         246
               247         247
               248         248
               249         249
               250         250
               251         251
               252         252
               253         253
               254         254
               255         255
               256         256
               257         257
               258         258
               259         259
               260         260
               261         261
               262         262
               263         263
               264         264
               265         265
               266         266
               267         267
               268         268
               269         269
               270         270
               271         271
               272         272
               273         273
               274         274
               275         275
               276         276
               277         277
               278         278
               279         279
               280         280
               281         281
               282         282
               283         283
               284         284
               285         285
               286         286
               287         287
               288         288
               289         289
               290         290
               291         291
               292         292
               293         293
               294         294
               295         295
               296         296
               297         297
               298         298
               299         299
               300         300
               301         301
               302         302
               303         303
               304         304
               305         305
               306         306
               307         307
               308         308
               309         309
               310         310
               311         311
               312         312
               313         313
               314         314
               315         315
               316         316
               317         317
               318         318
               319         319
               320         320
               321         321
               322         322
               323         323
               324         324
               325         325

----------------------------------------------------------------------------------------

 
 
 KPOINTS: Automatic Mesh                          

Automatic generation of k-mesh.
 Grid dimensions read from file:
 generate k-points for:    3    3    1

 Generating k-lattice:

  Cartesian coordinates                     Fractional coordinates (reciprocal lattice)
     0.018456177  0.000005026 -0.000000000     0.333333333  0.000000000  0.000000000
     0.000000000  0.018454135  0.000000000     0.000000000  0.333333333  0.000000000
     0.000000000 -0.000000000  0.016003201     0.000000000  0.000000000  1.000000000

  Length of vectors
     0.018456178  0.018454135  0.016003201

  Shift w.r.t. Gamma in fractional coordinates (k-lattice)
     0.000000000  0.000000000  0.000000000

 
 Subroutine IBZKPT returns following result:
 ===========================================
 
 Found      5 irreducible k-points:
 
 Following reciprocal coordinates:
            Coordinates               Weight
  0.000000  0.000000  0.000000      1.000000
  0.333333  0.000000  0.000000      2.000000
  0.000000  0.333333  0.000000      2.000000
  0.333333  0.333333  0.000000      2.000000
 -0.333333  0.333333  0.000000      2.000000
 
 Following cartesian coordinates:
            Coordinates               Weight
  0.000000  0.000000  0.000000      1.000000
  0.018456  0.000005  0.000000      2.000000
  0.000000  0.018454  0.000000      2.000000
  0.018456  0.018459  0.000000      2.000000
 -0.018456  0.018449  0.000000      2.000000
 


--------------------------------------------------------------------------------------------------------




 Dimension of arrays:
   k-points           NKPTS =      5   k-points in BZ     NKDIM =      5   number of bands    NBANDS=    732
   number of dos      NEDOS =    301   number of ions     NIONS =    325
   non local maximal  LDIM  =      5   non local SUM 2l+1 LMDIM =     13
   total plane-waves  NPLWV = ******
   max r-space proj   IRMAX =   3336   max aug-charges    IRDMAX=  19845
   dimension x,y,z NGX =   100 NGY =  100 NGZ =  350
   dimension x,y,z NGXF=   200 NGYF=  200 NGZF=  700
   support grid    NGXF=   200 NGYF=  200 NGZF=  700
   ions per type =             143  39  47  72  24
   NGX,Y,Z   is equivalent  to a cutoff of   9.20,  9.20,  9.31 a.u.
   NGXF,Y,Z  is equivalent  to a cutoff of  18.41, 18.41, 18.62 a.u.

 SYSTEM =  PSC                                     
 POSCAR =   H  C  N  I Pb                          

 Startparameter for this run:
   NWRITE =      2    write-flag & timer
   PREC   = normal    normal or accurate (medium, high low for compatibility)
   ISTART =      0    job   : 0-new  1-cont  2-samecut
   ICHARG =      1    charge: 1-file 2-atom 10-const
   ISPIN  =      1    spin polarized calculation?
   LNONCOLLINEAR =      F non collinear calculations
   LSORBIT =      F    spin-orbit coupling
   INIWAV =      1    electr: 0-lowe 1-rand  2-diag
   LASPH  =      F    aspherical Exc in radial PAW
 Electronic Relaxation 1
   ENCUT  =  500.0 eV  36.75 Ry    6.06 a.u.  32.93 32.93113.93*2*pi/ulx,y,z
   ENINI  =  500.0     initial cutoff
   ENAUG  =  644.9 eV  augmentation charge cutoff
   NELM   =    600;   NELMIN=  2; NELMDL=  0     # of ELM steps 
   EDIFF  = 0.1E-03   stopping-criterion for ELM
   LREAL  =      T    real-space projection
   NLSPLINE    = F    spline interpolate recip. space projectors
   LCOMPAT=      F    compatible to vasp.4.4
   GGA_COMPAT  = F    GGA compatible to vasp.4.4-vasp.4.6
   LMAXPAW     = -100 max onsite density
   LMAXMIX     =    2 max onsite mixed and CHGCAR
   VOSKOWN=      0    Vosko Wilk Nusair interpolation
   ROPT   =   -0.00050  -0.00050  -0.00050  -0.00050
   ROPT   =   -0.00050
 Ionic relaxation
   EDIFFG = 0.1E-02   stopping-criterion for IOM
   NSW    =      0    number of steps for IOM
   NBLOCK =      1;   KBLOCK =      1    inner block; outer block 
   IBRION =     -1    ionic relax: 0-MD 1-quasi-New 2-CG
   NFREE  =      0    steps in history (QN), initial steepest desc. (CG)
   ISIF   =      2    stress and relaxation
   IWAVPR =     10    prediction:  0-non 1-charg 2-wave 3-comb
   ISYM   =      0    0-nonsym 1-usesym 2-fastsym
   LCORR  =      T    Harris-Foulkes like correction to forces

   POTIM  = 0.5000    time-step for ionic-motion
   TEIN   =    0.0    initial temperature
   TEBEG  =    0.0;   TEEND  =   0.0 temperature during run
   SMASS  =  -3.00    Nose mass-parameter (am)
   estimated Nose-frequenzy (Omega)   =  0.10E-29 period in steps = 0.13E+47 mass=  -0.745E-26a.u.
   SCALEE = 1.0000    scale energy and forces
   NPACO  =    256;   APACO  = 16.0  distance and # of slots for P.C.
   PSTRESS=    0.0 pullay stress

  Mass of Ions in am
   POMASS =   1.00 12.01 14.00126.90207.20
  Ionic Valenz
   ZVAL   =   1.00  4.00  5.00  7.00  4.00
  Atomic Wigner-Seitz radii
   RWIGS  =  -1.00 -1.00 -1.00 -1.00 -1.00
  virtual crystal weights 
   VCA    =   1.00  1.00  1.00  1.00  1.00
   NELECT =    1134.0000    total number of electrons
   NUPDOWN=      -1.0000    fix difference up-down

 DOS related values:
   EMIN   =  10.00;   EMAX   =-10.00  energy-range for DOS
   EFERMI =   0.00
   ISMEAR =     0;   SIGMA  =   0.05  broadening in eV -4-tet -1-fermi 0-gaus

 Electronic relaxation 2 (details)
   IALGO  =     38    algorithm
   LDIAG  =      T    sub-space diagonalisation (order eigenvalues)
   LSUBROT=      F    optimize rotation matrix (better conditioning)
   TURBO    =      0    0=normal 1=particle mesh
   IRESTART =      0    0=no restart 2=restart with 2 vectors
   NREBOOT  =      0    no. of reboots
   NMIN     =      0    reboot dimension
   EREF     =   0.00    reference energy to select bands
   IMIX   =      4    mixing-type and parameters
     AMIX     =   0.40;   BMIX     =  0.01
     AMIX_MAG =   1.60;   BMIX_MAG =  0.01
     AMIN     =   0.01
     WC   =   100.;   INIMIX=   1;  MIXPRE=   1;  MAXMIX= -45

 Intra band minimization:
   WEIMIN = 0.0000     energy-eigenvalue tresh-hold
   EBREAK =  0.34E-07  absolut break condition
   DEPER  =   0.30     relativ break condition  

   TIME   =   0.40     timestep for ELM

  volume/ion in A,a.u.               =      62.72       423.28
  Fermi-wavevector in a.u.,A,eV,Ry     =   0.624944  1.180972  5.313816  0.390554
  Thomas-Fermi vector in A             =   1.685677
 
 Write flags
   LWAVE        =      F    write WAVECAR
   LDOWNSAMPLE  =      F    k-point downsampling of WAVECAR
   LCHARG       =      T    write CHGCAR
   LVTOT        =      T    write LOCPOT, total local potential
   LVHAR        =      F    write LOCPOT, Hartree potential only
   LELF         =      F    write electronic localiz. function (ELF)
   LORBIT       =      0    0 simple, 1 ext, 2 COOP (PROOUT), +10 PAW based schemes


 Dipole corrections
   LMONO  =      F    monopole corrections only (constant potential shift)
   LDIPOL =      T    correct potential (dipole corrections)
   IDIPOL =      3    1-x, 2-y, 3-z, 4-all directions 
   EPSILON=  1.0000000 bulk dielectric constant

 Exchange correlation treatment:
   GGA     =    --    GGA type
   LEXCH   =     8    internal setting for exchange type
   VOSKOWN=      0    Vosko Wilk Nusair interpolation
   LHFCALC =     F    Hartree Fock is set to
   LHFONE  =     F    Hartree Fock one center treatment
   AEXX    =    0.0000 exact exchange contribution

 Linear response parameters
   LEPSILON=     F    determine dielectric tensor
   LRPA    =     F    only Hartree local field effects (RPA)
   LNABLA  =     F    use nabla operator in PAW spheres
   LVEL    =     F    velocity operator in full k-point grid
   LINTERFAST=   F  fast interpolation
   KINTER  =     0    interpolate to denser k-point grid
   CSHIFT  =0.1000    complex shift for real part using Kramers Kronig
   OMEGAMAX=  -1.0    maximum frequency
   DEG_THRESHOLD= 0.2000000E-02 threshold for treating states as degnerate
   RTIME   =   -0.100 relaxation time in fs
  (WPLASMAI=    0.000 imaginary part of plasma frequency in eV, 0.658/RTIME)
   DFIELD  = 0.0000000 0.0000000 0.0000000 field for delta impulse in time
 
 Orbital magnetization related:
   ORBITALMAG=     F  switch on orbital magnetization
   LCHIMAG   =     F  perturbation theory with respect to B field
   DQ        =  0.001000  dq finite difference perturbation B field
   LLRAUG    =     F  two centre corrections for induced B field



--------------------------------------------------------------------------------------------------------


 Static calculation
 charge density and potential will be updated during run
 non-spin polarized calculation
 Variant of blocked Davidson
 Davidson routine will perform the subspace rotation
 perform sub-space diagonalisation
    after iterative eigenvector-optimisation
 modified Broyden-mixing scheme, WC =      100.0
 initial mixing is a Kerker type mixing with AMIX =  0.4000 and BMIX =      0.0100
 Hartree-type preconditioning will be used
 using additional bands           165
 real space projection scheme for non local part
[...]
     13.54561      0.00000     45.35368         0.000047     -0.000263      0.009387
     13.54315      9.03140     45.35368         0.008888     -0.005347      0.022850
     14.00161     10.07184     32.71503         0.066600      0.036857      0.105498
     13.10399      8.60305     32.97372        -0.246460     -0.327918     -0.125403
     15.70206      9.08148     34.06483         0.048043     -0.049569     -0.088262
     15.37719      8.68983     35.73161         0.077494     -0.252342      0.128664
     13.35965     11.51413     35.15296         0.149215      0.044164      0.040580
     14.45703     10.71110     36.30595        -0.062795     -0.022695      0.152846
     11.92933      9.76511     35.68816         0.136842      0.080295      0.038645
     12.18907      8.16113     35.05994         0.020795     -0.110363     -0.090171
     11.10370      9.88790     33.66710        -0.060626      0.047444      0.012361
     12.06475     11.36098     33.76976         0.066177      0.549025      0.260839
     11.05481     11.72891     31.75647        -0.171816      0.600749      0.044143
     12.47558     10.91854     31.14161         0.289945      0.123021      0.044859
     14.98735      6.99685     33.24145        -0.056326      0.001835      0.022986
     13.68966      6.76944     34.43163         0.557541      0.411641     -0.003164
     15.35422      6.50748     34.90403         0.095164     -0.108736      0.013003
     15.53508     12.48872     34.92606        -0.042204     -0.196130     -0.151669
     15.32593     11.46544     33.47866         0.146938      0.173771      0.011040
     16.37792     10.90716     34.83441        -0.221990      0.153190     -0.114906
     13.69750      9.27031     37.50215        -0.069879     -0.031930      0.000262
     13.70567      7.58219     36.95516        -0.063821      0.109425     -0.105067
     12.20821      8.31421     37.56121         0.090977      0.000781     -0.067711
      9.74755      9.68763     31.66798        -0.414162      0.034310      0.187193
     10.39550     10.03453     30.07357         0.113005      0.244470     -0.034881
     12.73206      8.84960     29.57271         0.361839      0.602332     -0.588261
      9.95536      7.55588     32.58669         0.336679     -0.039417     -0.154185
     13.93843      6.70466     29.72271         0.512917     -0.253699     -0.385387
     11.17919      5.36608     32.75860         0.081029      0.087421     -0.111887
     13.16854      4.95095     31.33070         0.262390     -0.463239      0.051031
      0.37271      4.38631     34.86279         0.163887     -0.231227     -0.277864
      0.20179     13.45379     34.82909         0.472845     -0.000137     -1.105468
      8.70040      4.09763     34.62854        -1.512552      0.465274      0.140320
      9.22182     13.96717     34.85884        -0.594805      0.779920      0.620352
      4.31673      9.26491     34.90406         0.682907      1.268782      0.003726
      4.26315      0.24628     34.79936         1.122101      0.433389      0.152543
     13.89884     17.78918     35.05390        -1.051863     -0.998113      0.186406
      0.11441      4.43897     40.76267        -1.258074      1.414773     -1.450283
      0.22379     13.80476     40.81112        -1.009485      1.704189     -1.817061
      8.78937      4.21318     40.75734        -2.019459      1.341746     -0.710101
      8.97835     13.64240     40.68530         0.158450     -0.139178     -1.169087
      4.53569      9.02920     40.60531        -1.572498     -1.583349     -0.866039
      4.54831     18.00060     40.60386         1.746659      1.922581     -0.363157
     13.81699      8.98037     40.73460         0.727311      0.527957     -0.817494
     13.59428     18.03943     40.58831         2.020376      1.818349     -0.272280
      9.02897      4.51561     46.44552         0.006102      0.008659      0.024790
      9.02651     13.54701     46.44552         0.005533      0.007935      0.053837
     18.05937      4.51561     46.44552        -0.006203      0.023218      0.056583
     18.05691     13.54701     46.44552         0.025243     -0.004624      0.051627
      4.51521      0.00002     46.44421         0.009349      0.007572      0.065662
      4.51275      9.03142     46.44421         0.002172      0.003545      0.046389
     13.54561      0.00002     46.44421         0.006899      0.006518      0.041707
     13.54315      9.03142     46.44421        -0.023858     -0.027935      0.051042
     11.28678      8.36228     31.07028         0.093206     -0.009078      0.197372
     12.39961      8.09987     30.25444        -0.126541     -1.382304      0.741473
     10.84069      7.36477     31.95541         0.164410     -0.652264      0.059883
     13.07458      6.85592     30.33912        -0.850023      1.004120      0.310694
     11.52073      6.12171     32.04420        -0.428472      0.773399     -0.046238
     12.64016      5.88371     31.24309        -0.229493      0.346928     -0.021229
     13.21314      9.62086     33.33402         0.553952      0.133058     -0.447752
     14.97391      8.59763     34.71893        -0.003686     -0.100267     -0.038384
     14.23285     10.85429     35.24535        -0.196208     -0.054171      0.206845
     12.68643      8.97359     35.60044        -0.839811     -0.243826      0.452501
     11.94798     10.43500     33.22332        -0.336685     -0.389478     -0.409328
     11.58837     10.78811     31.76936        -0.191495     -0.674818     -0.268266
     14.72646      7.16214     34.29482        -0.404637     -0.238245     -0.020880
     15.45133     11.44729     34.56984         0.001802     -0.168277      0.030362
     13.11190      8.50829     36.96614         0.210853      0.025357      0.349505
     10.67153      9.74508     31.09730         0.179368     -0.492348     -0.015192
      0.61744      3.29480     35.54359         0.109728     -0.031215     -1.101616
      0.57470     12.33775     35.40499        -0.077008      0.632481     -0.448405
      9.92874      4.08016     35.05962        -0.161204     -0.082108     -0.494573
      9.29463     12.84788     35.54418        -0.220785      0.260488     -0.175337
      7.73148      4.86001     35.14652         0.335363     -1.297758     -1.408475
      8.47461     15.00715     35.22095         1.481388     -0.752820     -1.748116
     17.93278      5.48639     35.35874         0.141973     -0.105536     -0.324814
     17.66871     14.45385     35.41521        -0.263179      0.053566      0.547110
      4.07537      8.12228     35.45889         0.713474     -0.387450      1.191218
      3.27215     17.63952     35.30518         0.359133     -0.827663      1.180103
     12.74391     17.30683     35.48325         0.507891      1.078089      0.353924
      5.47973      0.33150     35.30395        -0.964571     -0.627991      0.480631
      5.14759     10.18448     35.35645         0.016406     -1.042319      0.583951
     14.57267      0.67933     35.61622        -0.803660      0.851540      1.255537
      0.97008      3.52998     41.04879         1.539479     -1.678468      1.097713
      0.93073     12.94473     41.43132         1.869873     -2.122666      1.087123
      9.85219      3.69175     41.24506         1.745628     -1.034197      0.630946
      9.70925     12.91447     41.48990        -0.298644      0.274021     -0.228541
      3.80099      8.07761     41.16144        -0.227606     -0.056066     -1.827314
      3.75648     17.19044     41.21209        -1.493925     -1.689351     -1.277165
     12.98262      8.37569     41.54217         0.812287      1.471258      0.359691
     12.69378     17.31422     41.15270        -1.283906     -1.505884     -1.480019
      8.07217      5.20407     41.29306         0.224881     -1.194698     -1.560180
      8.06918     14.52536     41.01938         0.092134     -0.123938     -0.727507
     17.45122      5.16063     41.59824         0.538129     -0.552688     -0.974882
     17.18320     14.37663     41.23134        -0.355621     -0.003635      0.643707
      5.34492      0.84764     41.19176        -0.737849     -0.953228     -2.153632
      5.31354      9.84184     41.22997         1.351296      1.767887     -1.332113
     14.38807      0.86614     41.20786        -0.492355     -0.907081     -1.930431
     14.52493     10.07821     40.95776        -1.869121     -1.307070      2.086586
      0.82731      3.68697     47.03596         0.028051     -0.036155     -0.095560
      0.82485     12.71837     47.03596         0.007104     -0.014952     -0.090064
      9.85771      3.68697     47.03596         0.022945     -0.028964     -0.084684
      9.85525     12.71837     47.03596         0.028543     -0.020764     -0.101974
      3.68432      8.20234     47.03465        -0.014006     -0.010022     -0.069602
      3.68186     17.23373     47.03465        -0.016385     -0.010125     -0.074778
     12.71472      8.20234     47.03465         0.003246      0.006155     -0.088503
     12.71226     17.23373     47.03465        -0.014546     -0.018174     -0.071305
      8.20068      5.34457     47.03603        -0.019756      0.015141     -0.088418
      8.19822     14.37597     47.03603        -0.014535      0.014794     -0.100425
     17.23108      5.34457     47.03603        -0.004124      0.005161     -0.095338
     17.22862     14.37597     47.03603        -0.026156      0.019920     -0.089837
      5.34365      0.82909     47.03465        -0.000775      0.000054     -0.072955
      5.34119      9.86049     47.03465         0.006123      0.011432     -0.073443
     14.37405      0.82909     47.03465         0.009860      0.003479     -0.073613
     14.37159      9.86049     47.03465         0.024555      0.032377     -0.077845
     13.76736      9.49205     34.72800         0.474277      0.710715     -0.331724
      8.95409      0.37263     34.47153         0.042373      0.018476      0.015932
      8.49387      9.26514     34.86078         0.177977     -0.027232     -0.230084
     17.93631     17.97806     34.40539        -0.033732     -0.003622      0.008055
      0.64250      8.90201     34.52073        -0.074218     -0.085452     -0.016871
      4.18152      4.31030     34.49611         0.062873     -0.004388      0.034294
      4.64417     13.65998     34.54439        -0.015882     -0.007773      0.036498
     13.49249      3.82616     34.72213        -0.045540     -0.014006     -0.093471
     12.98172     14.19169     34.18575        -0.094127     -0.139611      0.201959
      0.00886     17.97148     40.87671         0.033207     -0.003271     -0.001141
      0.25414      9.02961     40.94561        -0.036643      0.004615     -0.015423
      8.91717      0.00787     40.86907         0.134072      0.047266      0.031981
      9.13669      8.82852     41.01054        -0.007709      0.018374     -0.111934
      4.57702      4.45636     40.89299        -0.022837     -0.002875      0.014748
      4.48771     13.57165     40.89011        -0.035764      0.015732      0.038039
     13.38748      4.65640     40.95144         0.014549      0.032475     -0.050409
     13.58510     13.66569     40.85001         0.021254     -0.012453     -0.022052
      2.59485      1.89912     38.17998        -0.135021     -0.050629     -0.069224
      2.64017     10.95917     37.99973        -0.000990     -0.002836      0.033612
     11.75848      1.88540     38.08759        -0.119577     -0.106482      0.027436
     11.15176     11.48129     38.40559         0.130457     -0.226562     -0.195110
      6.33814      7.06134     37.98080         0.149374      0.055163      0.037327
      6.49246     16.12122     37.96503        -0.015387     -0.061575      0.019676
     16.10030      6.55156     38.39338        -0.106252      0.226566     -0.170837
     15.57438     16.05964     37.97450         0.030431     -0.106370      0.026131
      2.07224      6.43787     38.18736        -0.022766      0.071409     -0.037777
      1.99920     15.57946     37.91793         0.084572      0.021360      0.052458
     10.43160      5.92833     37.98669         0.094406      0.177405     -0.072709
     11.06457     15.59375     38.15579         0.029185      0.052511      0.010334
      6.91562      2.36865     38.01812         0.002093      0.026690     -0.065893
      6.99454     11.53854     38.29306        -0.016327     -0.006518     -0.083957
     16.04067      2.55842     38.24076         0.098462     -0.093500      0.010416
     16.51748     11.75874     38.44315        -0.199481     -0.009585     -0.373535
      0.00000      0.00000     47.17356         0.000364      0.000875      0.344229
     -0.00246      9.03140     47.17356        -0.002699      0.006430      0.417454
      9.03040      0.00000     47.17356         0.000202     -0.004732      0.408709
      9.02794      9.03140     47.17356         0.004363      0.004594      0.577288
      4.51398      4.51570     47.17425        -0.004216     -0.004545      0.442050
      4.51152     13.54710     47.17425         0.000652      0.002909      0.451533
     13.54438      4.51570     47.17425         0.001548     -0.000913      0.503822
     13.54192     13.54710     47.17425        -0.000666     -0.002553      0.311930
      2.45192      2.06295     44.04013        -0.011698     -0.042869     -0.021732
      2.44946     11.09435     44.04013         0.039461     -0.020427      0.075289
     11.48232      2.06295     44.04013         0.043023     -0.062430     -0.009984
     11.47986     11.09435     44.04013         0.122992     -0.026317     -0.012795
      6.57602      6.96845     44.04013        -0.070624      0.050697      0.039379
      6.57356     15.99985     44.04013        -0.006909     -0.002899     -0.011481
     15.60642      6.96845     44.04013        -0.000104      0.057108      0.059141
     15.60396     15.99985     44.04013        -0.043330      0.008516      0.043689
      2.06108      6.57881     44.04000         0.013201     -0.024528      0.039380
      2.05862     15.61021     44.04000         0.005115      0.043690      0.032241
     11.09148      6.57881     44.04000        -0.046404     -0.076394      0.054516
     11.08902     15.61021     44.04000         0.008691     -0.012581     -0.020403
      6.96686      2.45259     44.04007        -0.004993     -0.023956      0.055339
      6.96440     11.48399     44.04007         0.008508      0.031856     -0.013393
     15.99726      2.45259     44.04007         0.048935     -0.000110      0.013096
     15.99481     11.48399     44.04007        -0.019746      0.070123     -0.062122
      2.43163      2.08322     50.06849        -0.003550     -0.023310      0.023287
      2.42917     11.11462     50.06849         0.006132     -0.010589      0.023849
     11.46203      2.08322     50.06849         0.002813     -0.019958      0.025933
     11.45957     11.11462     50.06849         0.034344      0.015728      0.021785
      6.59631      6.94818     50.06849        -0.021199      0.000565      0.025993
      6.59385     15.97958     50.06849        -0.007384      0.012428      0.023196
     15.62671      6.94818     50.06849        -0.002131      0.018939      0.024297
     15.62425     15.97958     50.06849        -0.012150      0.008093      0.022246
      2.08113      6.59901     50.06905        -0.016567     -0.005242      0.025313
      2.07867     15.63041     50.06905        -0.021709      0.000403      0.023532
     11.11153      6.59901     50.06905        -0.001925     -0.014594      0.024947
     11.10907     15.63041     50.06905         0.000193     -0.021060      0.023031
      6.94681      2.43239     50.06905         0.013479      0.004054      0.025785
      6.94435     11.46379     50.06905        -0.001746      0.023495      0.024821
     15.97721      2.43239     50.06905         0.026062     -0.006770      0.024578
     15.97475     11.46379     50.06905        -0.000140      0.020897      0.022009
     17.98399      0.00596     37.77457        -0.010182      0.063248      0.067049
      0.11390      9.03097     37.85144        -0.006710     -0.016888      0.030453
      9.03146      0.11007     37.66673         0.119348      0.110344      0.082353
      8.95832      8.96692     37.83902         0.000852     -0.100358      0.137825
      4.41338      4.46022     37.66582         0.083954     -0.122962      0.029038
      4.47779     13.49259     37.62904         0.022374      0.010221     -0.023677
     13.48302      4.52412     37.73441        -0.125178     -0.054632      0.053061
     13.43655     13.64302     37.69384        -0.147617      0.007952      0.005773
      0.00001      0.00001     44.04300        -0.043769     -0.050156      0.121710
     -0.00245      9.03141     44.04300         0.014523     -0.103709      0.132657
      9.03041      0.00001     44.04300        -0.035556      0.083746     -0.007792
      9.02795      9.03141     44.04300        -0.045923     -0.024558      0.153010
      4.51397      4.51569     44.04275         0.074673      0.032237      0.024218
      4.51151     13.54709     44.04275        -0.021907     -0.025144      0.022091
     13.54437      4.51569     44.04275         0.030496      0.057545      0.106962
     13.54191     13.54709     44.04275        -0.044515      0.082427      0.091135
      0.00000      0.00000     50.44728         0.005383      0.012322     -0.608115
     -0.00246      9.03140     50.44728         0.004858     -0.012715     -0.628906
      9.03040      0.00000     50.44728        -0.004756      0.014614     -0.627984
      9.02794      9.03140     50.44728        -0.006851     -0.013059     -0.672151
      4.51397      4.51570     50.44728         0.013612      0.014889     -0.638288
      4.51151     13.54710     50.44728         0.013754     -0.012944     -0.639463
     13.54437      4.51570     50.44728        -0.015898      0.012558     -0.655616
     13.54191     13.54710     50.44728        -0.012892     -0.013717     -0.598078
 -----------------------------------------------------------------------------------
    total drift:                                0.113869     -0.066845      1.042398


--------------------------------------------------------------------------------------------------------



  FREE ENERGIE OF THE ION-ELECTRON SYSTEM (eV)
  ---------------------------------------------------
  free  energy   TOTEN  =     -1573.41256224 eV

  energy  without entropy=    -1573.41256224  energy(sigma->0) =    -1573.41256224
 


--------------------------------------------------------------------------------------------------------


    POTLOK:  cpu time    0.5025: real time    0.5024


--------------------------------------------------------------------------------------------------------


     LOOP+:  cpu time  323.9714: real time  324.5208
 vacuum level on the upper side and lower side of the slab         2.295         1.577
    4ORBIT:  cpu time    0.0000: real time    0.0000

 total amount of memory used by VASP MPI-rank0  8653586. kBytes
=======================================================================

   base      :      30000. kBytes
   nonlr-proj:      53624. kBytes
   fftplans  :     249280. kBytes
   grid      :     701440. kBytes
   one-center:       2636. kBytes
   wavefun   :    7616606. kBytes
 
  
  
 General timing and accounting informations for this job:
 ========================================================
  
                  Total CPU time used (sec):      536.396
                            User time (sec):      430.738
                          System time (sec):      105.657
                         Elapsed time (sec):      538.787
  
                   Maximum memory used (kb):    10308176.
                   Average memory used (kb):          N/A
  
                          Minor page faults:      3756763
                          Major page faults:           12
                 Voluntary context switches:        11211
