<?xml version="1.0" encoding="ISO-8859-1"?>
<modeling>
 <generator>
  <i name="program" type="string">vasp </i>
  <i name="version" type="string">6.2.1  </i>
  <i name="subversion" type="string">16May21 (build Nov 15 2021 14:57:28) complex                          parallel </i>
  <i name="platform" type="string">LinuxPGI </i>
  <i name="date" type="string">2023 07 24 </i>
  <i name="time" type="string">22:49:24 </i>
 </generator>
 <incar>
  <i type="string" name="SYSTEM">PSC</i>
  <i type="int" name="ISTART">     1</i>
  <i type="string" name="PREC">Normal</i>
  <i name="BMIX">      0.01000000</i>
  <i name="AMIN">      0.01000000</i>
  <i type="int" name="ICHARG">     1</i>
  <i type="int" name="NELM">   600</i>
  <i type="int" name="ISYM">     0</i>
  <i name="ENCUT">    500.00000000</i>
  <i type="string" name="LREAL">Auto</i>
  <i type="int" name="ISMEAR">     0</i>
  <i name="SIGMA">      0.05000000</i>
  <i type="logical" name="LWAVE"> F  </i>
  <i type="logical" name="LVTOT"> T  </i>
  <i type="logical" name="GGA_COMPAT"> F  </i>
  <i type="logical" name="LDIPOL"> T  </i>
  <i type="int" name="IDIPOL">     3</i>
  <i type="int" name="IVDW">    12</i>
 </incar>
 <primitive_cell>
  <structure name="primitive_cell" >
   <crystal>
    <varray name="basis" >
     <v>      18.06080055       0.00000000       0.00000000 </v>
     <v>      -0.00491865      18.06279945       0.00000000 </v>
     <v>       0.00000000       0.00000000      62.48749924 </v>
    </varray>
    <i name="volume">  20385.21054034 </i>
    <varray name="rec_basis" >
     <v>       0.05536853       0.00001508      -0.00000000 </v>
     <v>       0.00000000       0.05536240       0.00000000 </v>
     <v>       0.00000000      -0.00000000       0.01600320 </v>
    </varray>
   </crystal>
   <varray name="positions" >
    <v>       0.43873441       0.30069786       0.57515270 </v>
    <v>       0.43895414       0.83083716       0.57688046 </v>
    <v>       0.98413652       0.30739659       0.58177176 </v>
    <v>       0.96843299       0.79844979       0.58281402 </v>
    <v>       0.31831857       0.99126831       0.57883141 </v>
    <v>       0.31625769       0.55776285       0.57948797 </v>
    <v>       0.78587838       0.06739456       0.58273093 </v>
    <v>       0.05215600       0.13663768       0.56096675 </v>
    <v>       0.05526614       0.64193237       0.55797360 </v>
    <v>       0.58942071       0.19472223       0.55405192 </v>
    <v>       0.54492579       0.66970808       0.56237530 </v>
    <v>       0.34423069       0.04533893       0.55748095 </v>
    <v>       0.29294623       0.61172274       0.55795559 </v>
    <v>       0.85159929       0.05936496       0.56317502 </v>
    <v>       0.02858462       0.17663445       0.58453678 </v>
    <v>       0.02293773       0.67308618       0.58224762 </v>
    <v>       0.56534835       0.25963558       0.57323312 </v>
    <v>       0.48422749       0.70136812       0.58250066 </v>
    <v>       0.25130068       0.43334116       0.58155498 </v>
    <v>       0.18554402       0.94607261       0.57900717 </v>
    <v>       0.68072866       0.97738234       0.58147635 </v>
    <v>       0.37373275       0.26164760       0.55731862 </v>
    <v>       0.47497446       0.87971791       0.55535852 </v>
    <v>       0.99373170       0.35214904       0.55738553 </v>
    <v>       0.96952925       0.84947908       0.55914095 </v>
    <v>       0.18766123       0.41576636       0.56149072 </v>
    <v>       0.13061235       0.97899855       0.55848170 </v>
    <v>       0.68500139       0.91194057       0.56099325 </v>
    <v>       0.46482249       0.19135941       0.54087869 </v>
    <v>       0.54515663       0.77842019       0.54350568 </v>
    <v>       0.03410045       0.24012445       0.54090934 </v>
    <v>       0.02313119       0.75216320       0.54011541 </v>
    <v>       0.21040330       0.52658454       0.54404149 </v>
    <v>       0.22529038       0.04493752       0.54260383 </v>
    <v>       0.79397939       0.95784001       0.54728689 </v>
    <v>       0.46003571       0.31185966       0.67467217 </v>
    <v>       0.43326342       0.81655137       0.67170137 </v>
    <v>       0.97017927       0.27967632       0.68150319 </v>
    <v>       0.92944002       0.78686391       0.67478291 </v>
    <v>       0.29787143       0.05379120       0.67492021 </v>
    <v>       0.30407585       0.54494082       0.67549033 </v>
    <v>       0.79338348       0.05762814       0.67502314 </v>
    <v>       0.80279855       0.58321478       0.67028122 </v>
    <v>       0.08281778       0.16684936       0.64527030 </v>
    <v>       0.09895831       0.69451777       0.65597135 </v>
    <v>       0.57187794       0.16214241       0.65198661 </v>
    <v>       0.57482840       0.67908500       0.65758856 </v>
    <v>       0.17697007       0.41357338       0.64906195 </v>
    <v>       0.17692050       0.91449610       0.65030719 </v>
    <v>       0.69448762       0.41769477       0.65986373 </v>
    <v>       0.67223387       0.92226716       0.64895353 </v>
    <v>       0.06770162       0.17879384       0.67243491 </v>
    <v>       0.04232761       0.69642614       0.67824277 </v>
    <v>       0.56922140       0.21955186       0.67424087 </v>
    <v>       0.53235187       0.71905276       0.67986376 </v>
    <v>       0.21010028       0.43674598       0.67430992 </v>
    <v>       0.20077098       0.94798764       0.67527270 </v>
    <v>       0.70853413       0.48392532       0.67971096 </v>
    <v>       0.69037851       0.95877248       0.67405395 </v>
    <v>       0.40020512       0.30601501       0.65302868 </v>
    <v>       0.41886588       0.83172781       0.64457173 </v>
    <v>       0.93156779       0.32338427       0.65926992 </v>
    <v>       0.92551990       0.83402947       0.65044449 </v>
    <v>       0.32862338       0.08018873       0.64970398 </v>
    <v>       0.32327290       0.58460457       0.65079099 </v>
    <v>       0.83510090       0.07673155       0.65053667 </v>
    <v>       0.83741458       0.57847856       0.64439189 </v>
    <v>       0.99671104       0.25904514       0.63507795 </v>
    <v>       0.03132347       0.78323644       0.63707377 </v>
    <v>       0.46691240       0.21037164       0.63695369 </v>
    <v>       0.50878665       0.74525188       0.63386360 </v>
    <v>       0.25449466       0.99369547       0.63222106 </v>
    <v>       0.24446142       0.50403580       0.63226129 </v>
    <v>       0.76385831       0.99397203       0.63226019 </v>
    <v>       0.77327452       0.47236373       0.63607754 </v>
    <v>       0.44874502       0.30128397       0.76888902 </v>
    <v>       0.44874501       0.80128391       0.76888902 </v>
    <v>       0.94874497       0.30128397       0.76888902 </v>
    <v>       0.94874501       0.80128391       0.76888902 </v>
    <v>       0.30127600       0.05129450       0.76887296 </v>
    <v>       0.30127601       0.55129450       0.76887296 </v>
    <v>       0.80127594       0.05129450       0.76887296 </v>
    <v>       0.80127598       0.55129450       0.76887296 </v>
    <v>       0.07877100       0.17118050       0.74344197 </v>
    <v>       0.07877101       0.67118045       0.74344197 </v>
    <v>       0.57877100       0.17118050       0.74344197 </v>
    <v>       0.57877099       0.67118045       0.74344197 </v>
    <v>       0.17119950       0.42117448       0.74342103 </v>
    <v>       0.17119950       0.92117451       0.74342103 </v>
    <v>       0.67119951       0.42117448       0.74342103 </v>
    <v>       0.67119950       0.92117451       0.74342103 </v>
    <v>       0.05125600       0.19871499       0.76888902 </v>
    <v>       0.05125600       0.69871493       0.76888902 </v>
    <v>       0.55125603       0.19871499       0.76888902 </v>
    <v>       0.55125602       0.69871493       0.76888902 </v>
    <v>       0.19872349       0.44870397       0.76887205 </v>
    <v>       0.19872349       0.94870397       0.76887205 </v>
    <v>       0.69872352       0.44870397       0.76887205 </v>
    <v>       0.69872351       0.94870397       0.76887205 </v>
    <v>       0.42123152       0.32881747       0.74344197 </v>
    <v>       0.42123151       0.82881744       0.74344197 </v>
    <v>       0.92123147       0.32881747       0.74344197 </v>
    <v>       0.92123151       0.82881744       0.74344197 </v>
    <v>       0.32880050       0.07882500       0.74342103 </v>
    <v>       0.32880049       0.57882496       0.74342103 </v>
    <v>       0.82880048       0.07882500       0.74342103 </v>
    <v>       0.82880052       0.57882496       0.74342103 </v>
    <v>       0.00000350       0.25000148       0.72582199 </v>
    <v>       0.00000350       0.75000145       0.72582199 </v>
    <v>       0.50000351       0.25000148       0.72582199 </v>
    <v>       0.50000350       0.75000145       0.72582199 </v>
    <v>       0.25000050       0.00000000       0.72580398 </v>
    <v>       0.25000052       0.50000000       0.72580398 </v>
    <v>       0.75000050       0.00000000       0.72580398 </v>
    <v>       0.75000049       0.50000000       0.72580398 </v>
    <v>       0.77540053       0.55760134       0.52354527 </v>
    <v>       0.72567842       0.47628549       0.52768513 </v>
    <v>       0.86953702       0.50277283       0.54514627 </v>
    <v>       0.85154364       0.48108997       0.57182012 </v>
    <v>       0.73987768       0.63745016       0.56255991 </v>
    <v>       0.80062608       0.59299238       0.58101147 </v>
    <v>       0.66065681       0.54062007       0.57112473 </v>
    <v>       0.67501378       0.45181967       0.56107127 </v>
    <v>       0.61494468       0.54741809       0.53878135 </v>
    <v>       0.66817898       0.62897132       0.54042419 </v>
    <v>       0.61226557       0.64934041       0.50820516 </v>
    <v>       0.69091902       0.60447636       0.49836540 </v>
    <v>       0.82993323       0.38736262       0.53196956 </v>
    <v>       0.75807828       0.37477235       0.55101634 </v>
    <v>       0.85023869       0.36026974       0.55857614 </v>
    <v>       0.86034280       0.69140529       0.55892875 </v>
    <v>       0.84874714       0.63475442       0.53576573 </v>
    <v>       0.90698594       0.60384669       0.55746209 </v>
    <v>       0.75855035       0.51322677       0.60015446 </v>
    <v>       0.75897737       0.41976827       0.59140082 </v>
    <v>       0.67607612       0.46029481       0.60109954 </v>
    <v>       0.53985338       0.53633042       0.50678911 </v>
    <v>       0.57573503       0.55553547       0.48127335 </v>
    <v>       0.70508913       0.48993486       0.47325799 </v>
    <v>       0.55132777       0.41831184       0.52149133 </v>
    <v>       0.77185121       0.37118593       0.47565849 </v>
    <v>       0.61905606       0.29707929       0.52424243 </v>
    <v>       0.72919758       0.27409650       0.50139142 </v>
    <v>       0.02070239       0.24283680       0.55791616 </v>
    <v>       0.01137565       0.74483393       0.55737699 </v>
    <v>       0.48179022       0.22685460       0.55416748 </v>
    <v>       0.51080921       0.77325599       0.55785309 </v>
    <v>       0.23915048       0.51292752       0.55857663 </v>
    <v>       0.23604821       0.01363458       0.55690118 </v>
    <v>       0.76982654       0.98485197       0.56097457 </v>
    <v>       0.00640190       0.24575195       0.65233323 </v>
    <v>       0.01259901       0.76426454       0.65310847 </v>
    <v>       0.48671796       0.23325154       0.65224789 </v>
    <v>       0.49732394       0.75527626       0.65109495 </v>
    <v>       0.25127051       0.49987835       0.64981491 </v>
    <v>       0.25210463       0.99655626       0.64979165 </v>
    <v>       0.76516173       0.49717511       0.65188392 </v>
    <v>       0.75296739       0.99870630       0.64954282 </v>
    <v>       0.49998898       0.24999498       0.74327702 </v>
    <v>       0.49998903       0.74999496       0.74327702 </v>
    <v>       0.99998898       0.24999498       0.74327702 </v>
    <v>       0.99998903       0.74999496       0.74327702 </v>
    <v>       0.25000050       0.00000100       0.74325596 </v>
    <v>       0.25000052       0.50000100       0.74325596 </v>
    <v>       0.75000050       0.00000100       0.74325596 </v>
    <v>       0.75000049       0.50000100       0.74325596 </v>
    <v>       0.62505848       0.46295608       0.49722390 </v>
    <v>       0.68667008       0.44842847       0.48416795 </v>
    <v>       0.60034421       0.40773116       0.51138884 </v>
    <v>       0.72402383       0.37956015       0.48552295 </v>
    <v>       0.63797809       0.33891276       0.51280972 </v>
    <v>       0.69995594       0.32573614       0.49998941 </v>
    <v>       0.73173713       0.53263400       0.53345100 </v>
    <v>       0.82921305       0.47598560       0.55561400 </v>
    <v>       0.78821550       0.60091985       0.56403841 </v>
    <v>       0.70256413       0.49679956       0.56972107 </v>
    <v>       0.66169943       0.57770692       0.53167946 </v>
    <v>       0.64179381       0.59725585       0.50841144 </v>
    <v>       0.81549037       0.39651349       0.54882694 </v>
    <v>       0.85568989       0.63374931       0.55322808 </v>
    <v>       0.72611489       0.47103956       0.59157651 </v>
    <v>       0.59101370       0.53951121       0.49765627 </v>
    <v>       0.03423638       0.18240822       0.56881122 </v>
    <v>       0.03200628       0.68304742       0.56659318 </v>
    <v>       0.54980124       0.22588721       0.56106608 </v>
    <v>       0.51482346       0.71128938       0.56882062 </v>
    <v>       0.42815376       0.26906171       0.56245680 </v>
    <v>       0.46945305       0.83083173       0.56364789 </v>
    <v>       0.99299427       0.30374001       0.56585298 </v>
    <v>       0.97850859       0.80019961       0.56675673 </v>
    <v>       0.22576997       0.44966911       0.56745572 </v>
    <v>       0.18144009       0.97656649       0.56499588 </v>
    <v>       0.70587248       0.95814758       0.56784551 </v>
    <v>       0.30340966       0.01835282       0.56497622 </v>
    <v>       0.28516817       0.56383739       0.56581636 </v>
    <v>       0.80687752       0.03760941       0.56997356 </v>
    <v>       0.05376490       0.19542804       0.65691209 </v>
    <v>       0.05172838       0.71665126       0.66303374 </v>
    <v>       0.54555690       0.20438414       0.66005304 </v>
    <v>       0.53778171       0.71497620       0.66397118 </v>
    <v>       0.21057675       0.44719575       0.65871476 </v>
    <v>       0.20824979       0.95170425       0.65952535 </v>
    <v>       0.71895495       0.46369815       0.66480765 </v>
    <v>       0.70309718       0.95855673       0.65857496 </v>
    <v>       0.44702273       0.28810957       0.66082114 </v>
    <v>       0.44699741       0.80415891       0.65644142 </v>
    <v>       0.96632598       0.28570516       0.66570499 </v>
    <v>       0.95162517       0.79592505       0.65983339 </v>
    <v>       0.29595337       0.04692756       0.65920009 </v>
    <v>       0.29435145       0.54486765       0.65981147 </v>
    <v>       0.79665958       0.04795140       0.65945764 </v>
    <v>       0.80437599       0.55795393       0.65545532 </v>
    <v>       0.04586250       0.20411950       0.75272599 </v>
    <v>       0.04586250       0.70411946       0.75272599 </v>
    <v>       0.54586251       0.20411950       0.75272599 </v>
    <v>       0.54586250       0.70411946       0.75272599 </v>
    <v>       0.20411900       0.45410100       0.75270499 </v>
    <v>       0.20411899       0.95410095       0.75270499 </v>
    <v>       0.70411898       0.45410100       0.75270499 </v>
    <v>       0.70411896       0.95410095       0.75270499 </v>
    <v>       0.45414002       0.29588849       0.75272697 </v>
    <v>       0.45414001       0.79588852       0.75272697 </v>
    <v>       0.95414002       0.29588849       0.75272697 </v>
    <v>       0.95414006       0.79588852       0.75272697 </v>
    <v>       0.29588249       0.04590050       0.75270499 </v>
    <v>       0.29588248       0.54590053       0.75270499 </v>
    <v>       0.79588244       0.04590050       0.75270499 </v>
    <v>       0.79588248       0.54590053       0.75270499 </v>
    <v>       0.76242160       0.52550266       0.55575923 </v>
    <v>       0.49578038       0.02062957       0.55165483 </v>
    <v>       0.47043284       0.51294040       0.55788411 </v>
    <v>       0.99337795       0.99530880       0.55059639 </v>
    <v>       0.03570869       0.49283667       0.55244216 </v>
    <v>       0.23158979       0.23862846       0.55204816 </v>
    <v>       0.25734674       0.75624948       0.55282084 </v>
    <v>       0.74711698       0.21182566       0.55566522 </v>
    <v>       0.71899253       0.78568599       0.54708147 </v>
    <v>       0.00076180       0.99494416       0.65415824 </v>
    <v>       0.01420744       0.49990095       0.65526088 </v>
    <v>       0.49373060       0.00043589       0.65403591 </v>
    <v>       0.50601807       0.48876792       0.65629997 </v>
    <v>       0.25349013       0.24671456       0.65441879 </v>
    <v>       0.24868246       0.75135914       0.65437264 </v>
    <v>       0.74131535       0.25778967       0.65535410 </v>
    <v>       0.75239282       0.75656558       0.65373091 </v>
    <v>       0.14370141       0.10513996       0.61100185 </v>
    <v>       0.14634783       0.60672623       0.60811730 </v>
    <v>       0.65107846       0.10438001       0.60952334 </v>
    <v>       0.61762990       0.63563175       0.61461243 </v>
    <v>       0.35103984       0.39093254       0.60781444 </v>
    <v>       0.35972100       0.89250926       0.60756207 </v>
    <v>       0.89154863       0.36271003       0.61441696 </v>
    <v>       0.86257268       0.88910054       0.60771353 </v>
    <v>       0.11483402       0.35641596       0.61111997 </v>
    <v>       0.11092792       0.86251642       0.60680826 </v>
    <v>       0.57767173       0.32820681       0.60790870 </v>
    <v>       0.61286423       0.86330749       0.61061475 </v>
    <v>       0.38294316       0.13113439       0.60841155 </v>
    <v>       0.38745126       0.63880157       0.61281153 </v>
    <v>       0.88818672       0.14164044       0.61197451 </v>
    <v>       0.91472584       0.65099230       0.61521350 </v>
    <v>       0.00000000       0.00000000       0.75492797 </v>
    <v>       0.00000000       0.50000000       0.75492797 </v>
    <v>       0.50000000       0.00000000       0.75492797 </v>
    <v>       0.49999999       0.50000000       0.75492797 </v>
    <v>       0.25000050       0.25000000       0.75493902 </v>
    <v>       0.25000051       0.74999997       0.75493902 </v>
    <v>       0.75000047       0.25000000       0.75493902 </v>
    <v>       0.75000046       0.74999997       0.75493902 </v>
    <v>       0.13579050       0.11421000       0.70478299 </v>
    <v>       0.13579050       0.61420998       0.70478299 </v>
    <v>       0.63579045       0.11421000       0.70478299 </v>
    <v>       0.63579049       0.61420998       0.70478299 </v>
    <v>       0.36420952       0.38578999       0.70478299 </v>
    <v>       0.36420950       0.88578996       0.70478299 </v>
    <v>       0.86420954       0.38578999       0.70478299 </v>
    <v>       0.86420953       0.88578996       0.70478299 </v>
    <v>       0.11421799       0.36421899       0.70478098 </v>
    <v>       0.11421799       0.86421899       0.70478098 </v>
    <v>       0.61421800       0.36421899       0.70478098 </v>
    <v>       0.61421799       0.86421899       0.70478098 </v>
    <v>       0.38578201       0.13578149       0.70478202 </v>
    <v>       0.38578200       0.63578149       0.70478202 </v>
    <v>       0.88578199       0.13578149       0.70478202 </v>
    <v>       0.88578203       0.63578149       0.70478202 </v>
    <v>       0.13466700       0.11533200       0.80125603 </v>
    <v>       0.13466699       0.61533199       0.80125603 </v>
    <v>       0.63466699       0.11533200       0.80125603 </v>
    <v>       0.63466698       0.61533199       0.80125603 </v>
    <v>       0.36533300       0.38466799       0.80125603 </v>
    <v>       0.36533299       0.88466796       0.80125603 </v>
    <v>       0.86533295       0.38466799       0.80125603 </v>
    <v>       0.86533294       0.88466796       0.80125603 </v>
    <v>       0.11532850       0.36533700       0.80126500 </v>
    <v>       0.11532850       0.86533698       0.80126500 </v>
    <v>       0.61532850       0.36533700       0.80126500 </v>
    <v>       0.61532849       0.86533698       0.80126500 </v>
    <v>       0.38467151       0.13466300       0.80126500 </v>
    <v>       0.38467150       0.63466297       0.80126500 </v>
    <v>       0.88467149       0.13466300       0.80126500 </v>
    <v>       0.88467153       0.63466297       0.80126500 </v>
    <v>       0.99574707       0.00033023       0.60451404 </v>
    <v>       0.00644278       0.49997645       0.60574420 </v>
    <v>       0.50006017       0.00609381       0.60278817 </v>
    <v>       0.49614425       0.49643003       0.60554549 </v>
    <v>       0.24442936       0.24692870       0.60277376 </v>
    <v>       0.24813182       0.74698211       0.60218502 </v>
    <v>       0.74660337       0.25046634       0.60387133 </v>
    <v>       0.74416785       0.75531042       0.60322209 </v>
    <v>       0.00000050       0.00000050       0.70482896 </v>
    <v>       0.00000050       0.50000048       0.70482896 </v>
    <v>       0.50000048       0.00000050       0.70482896 </v>
    <v>       0.50000046       0.50000048       0.70482896 </v>
    <v>       0.24999999       0.24999947       0.70482499 </v>
    <v>       0.25000001       0.74999950       0.70482499 </v>
    <v>       0.74999999       0.24999947       0.70482499 </v>
    <v>       0.74999998       0.74999950       0.70482499 </v>
    <v>       0.00000000       0.00000000       0.80731797 </v>
    <v>       0.00000000       0.50000000       0.80731797 </v>
    <v>       0.50000000       0.00000000       0.80731797 </v>
    <v>       0.49999999       0.50000000       0.80731797 </v>
    <v>       0.24999999       0.25000000       0.80731797 </v>
    <v>       0.25000001       0.74999997       0.80731797 </v>
    <v>       0.74999999       0.25000000       0.80731797 </v>
    <v>       0.74999998       0.74999997       0.80731797 </v>
   </varray>
  </structure>
  <varray name="primitive_index" >
   <v type="int" >        1 </v>
   <v type="int" >        2 </v>
   <v type="int" >        3 </v>
   <v type="int" >        4 </v>
   <v type="int" >        5 </v>
   <v type="int" >        6 </v>
   <v type="int" >        7 </v>
   <v type="int" >        8 </v>
   <v type="int" >        9 </v>
   <v type="int" >       10 </v>
   <v type="int" >       11 </v>
   <v type="int" >       12 </v>
   <v type="int" >       13 </v>
   <v type="int" >       14 </v>
   <v type="int" >       15 </v>
   <v type="int" >       16 </v>
   <v type="int" >       17 </v>
   <v type="int" >       18 </v>
   <v type="int" >       19 </v>
   <v type="int" >       20 </v>
   <v type="int" >       21 </v>
   <v type="int" >       22 </v>
   <v type="int" >       23 </v>
   <v type="int" >       24 </v>
   <v type="int" >       25 </v>
   <v type="int" >       26 </v>
   <v type="int" >       27 </v>
   <v type="int" >       28 </v>
   <v type="int" >       29 </v>
   <v type="int" >       30 </v>
   <v type="int" >       31 </v>
   <v type="int" >       32 </v>
   <v type="int" >       33 </v>
   <v type="int" >       34 </v>
   <v type="int" >       35 </v>
   <v type="int" >       36 </v>
   <v type="int" >       37 </v>
   <v type="int" >       38 </v>
   <v type="int" >       39 </v>
   <v type="int" >       40 </v>
   <v type="int" >       41 </v>
   <v type="int" >       42 </v>
   <v type="int" >       43 </v>
   <v type="int" >       44 </v>
   <v type="int" >       45 </v>
   <v type="int" >       46 </v>
   <v type="int" >       47 </v>
   <v type="int" >       48 </v>
   <v type="int" >       49 </v>
   <v type="int" >       50 </v>
   <v type="int" >       51 </v>
   <v type="int" >       52 </v>
   <v type="int" >       53 </v>
   <v type="int" >       54 </v>
   <v type="int" >       55 </v>
   <v type="int" >       56 </v>
   <v type="int" >       57 </v>
   <v type="int" >       58 </v>
   <v type="int" >       59 </v>
   <v type="int" >       60 </v>
   <v type="int" >       61 </v>
   <v type="int" >       62 </v>
   <v type="int" >       63 </v>
   <v type="int" >       64 </v>
   <v type="int" >       65 </v>
   <v type="int" >       66 </v>
   <v type="int" >       67 </v>
   <v type="int" >       68 </v>
   <v type="int" >       69 </v>
   <v type="int" >       70 </v>
   <v type="int" >       71 </v>
   <v type="int" >       72 </v>
   <v type="int" >       73 </v>
   <v type="int" >       74 </v>
   <v type="int" >       75 </v>
   <v type="int" >       76 </v>
   <v type="int" >       77 </v>
   <v type="int" >       78 </v>
   <v type="int" >       79 </v>
   <v type="int" >       80 </v>
   <v type="int" >       81 </v>
   <v type="int" >       82 </v>
   <v type="int" >       83 </v>
   <v type="int" >       84 </v>
   <v type="int" >       85 </v>
   <v type="int" >       86 </v>
   <v type="int" >       87 </v>
   <v type="int" >       88 </v>
   <v type="int" >       89 </v>
   <v type="int" >       90 </v>
   <v type="int" >       91 </v>
   <v type="int" >       92 </v>
   <v type="int" >       93 </v>
   <v type="int" >       94 </v>
   <v type="int" >       95 </v>
   <v type="int" >       96 </v>
   <v type="int" >       97 </v>
   <v type="int" >       98 </v>
   <v type="int" >       99 </v>
   <v type="int" >      100 </v>
   <v type="int" >      101 </v>
   <v type="int" >      102 </v>
   <v type="int" >      103 </v>
   <v type="int" >      104 </v>
   <v type="int" >      105 </v>
   <v type="int" >      106 </v>
   <v type="int" >      107 </v>
   <v type="int" >      108 </v>
   <v type="int" >      109 </v>
   <v type="int" >      110 </v>
   <v type="int" >      111 </v>
   <v type="int" >      112 </v>
   <v type="int" >      113 </v>
   <v type="int" >      114 </v>
   <v type="int" >      115 </v>
   <v type="int" >      116 </v>
   <v type="int" >      117 </v>
   <v type="int" >      118 </v>
   <v type="int" >      119 </v>
   <v type="int" >      120 </v>
   <v type="int" >      121 </v>
   <v type="int" >      122 </v>
   <v type="int" >      123 </v>
   <v type="int" >      124 </v>
   <v type="int" >      125 </v>
   <v type="int" >      126 </v>
   <v type="int" >      127 </v>
   <v type="int" >      128 </v>
   <v type="int" >      129 </v>
   <v type="int" >      130 </v>
   <v type="int" >      131 </v>
   <v type="int" >      132 </v>
   <v type="int" >      133 </v>
   <v type="int" >      134 </v>
   <v type="int" >      135 </v>
   <v type="int" >      136 </v>
   <v type="int" >      137 </v>
   <v type="int" >      138 </v>
   <v type="int" >      139 </v>
   <v type="int" >      140 </v>
   <v type="int" >      141 </v>
   <v type="int" >      142 </v>
   <v type="int" >      143 </v>
   <v type="int" >      144 </v>
   <v type="int" >      145 </v>
   <v type="int" >      146 </v>
   <v type="int" >      147 </v>
   <v type="int" >      148 </v>
   <v type="int" >      149 </v>
   <v type="int" >      150 </v>
   <v type="int" >      151 </v>
   <v type="int" >      152 </v>
   <v type="int" >      153 </v>
   <v type="int" >      154 </v>
   <v type="int" >      155 </v>
   <v type="int" >      156 </v>
   <v type="int" >      157 </v>
   <v type="int" >      158 </v>
   <v type="int" >      159 </v>
   <v type="int" >      160 </v>
   <v type="int" >      161 </v>
   <v type="int" >      162 </v>
   <v type="int" >      163 </v>
   <v type="int" >      164 </v>
   <v type="int" >      165 </v>
   <v type="int" >      166 </v>
   <v type="int" >      167 </v>
   <v type="int" >      168 </v>
   <v type="int" >      169 </v>
   <v type="int" >      170 </v>
   <v type="int" >      171 </v>
   <v type="int" >      172 </v>
   <v type="int" >      173 </v>
   <v type="int" >      174 </v>
   <v type="int" >      175 </v>
   <v type="int" >      176 </v>
   <v type="int" >      177 </v>
   <v type="int" >      178 </v>
   <v type="int" >      179 </v>
   <v type="int" >      180 </v>
   <v type="int" >      181 </v>
   <v type="int" >      182 </v>
   <v type="int" >      183 </v>
   <v type="int" >      184 </v>
   <v type="int" >      185 </v>
   <v type="int" >      186 </v>
   <v type="int" >      187 </v>
   <v type="int" >      188 </v>
   <v type="int" >      189 </v>
   <v type="int" >      190 </v>
   <v type="int" >      191 </v>
   <v type="int" >      192 </v>
   <v type="int" >      193 </v>
   <v type="int" >      194 </v>
   <v type="int" >      195 </v>
   <v type="int" >      196 </v>
   <v type="int" >      197 </v>
   <v type="int" >      198 </v>
   <v type="int" >      199 </v>
   <v type="int" >      200 </v>
   <v type="int" >      201 </v>
   <v type="int" >      202 </v>
   <v type="int" >      203 </v>
   <v type="int" >      204 </v>
   <v type="int" >      205 </v>
   <v type="int" >      206 </v>
   <v type="int" >      207 </v>
   <v type="int" >      208 </v>
   <v type="int" >      209 </v>
   <v type="int" >      210 </v>
   <v type="int" >      211 </v>
   <v type="int" >      212 </v>
   <v type="int" >      213 </v>
   <v type="int" >      214 </v>
   <v type="int" >      215 </v>
   <v type="int" >      216 </v>
   <v type="int" >      217 </v>
   <v type="int" >      218 </v>
   <v type="int" >      219 </v>
   <v type="int" >      220 </v>
   <v type="int" >      221 </v>
   <v type="int" >      222 </v>
   <v type="int" >      223 </v>
   <v type="int" >      224 </v>
   <v type="int" >      225 </v>
   <v type="int" >      226 </v>
   <v type="int" >      227 </v>
   <v type="int" >      228 </v>
   <v type="int" >      229 </v>
   <v type="int" >      230 </v>
   <v type="int" >      231 </v>
   <v type="int" >      232 </v>
   <v type="int" >      233 </v>
   <v type="int" >      234 </v>
   <v type="int" >      235 </v>
   <v type="int" >      236 </v>
   <v type="int" >      237 </v>
   <v type="int" >      238 </v>
   <v type="int" >      239 </v>
   <v type="int" >      240 </v>
   <v type="int" >      241 </v>
   <v type="int" >      242 </v>
   <v type="int" >      243 </v>
   <v type="int" >      244 </v>
   <v type="int" >      245 </v>
   <v type="int" >      246 </v>
   <v type="int" >      247 </v>
   <v type="int" >      248 </v>
   <v type="int" >      249 </v>
   <v type="int" >      250 </v>
   <v type="int" >      251 </v>
   <v type="int" >      252 </v>
   <v type="int" >      253 </v>
   <v type="int" >      254 </v>
   <v type="int" >      255 </v>
   <v type="int" >      256 </v>
   <v type="int" >      257 </v>
   <v type="int" >      258 </v>
   <v type="int" >      259 </v>
   <v type="int" >      260 </v>
   <v type="int" >      261 </v>
   <v type="int" >      262 </v>
   <v type="int" >      263 </v>
   <v type="int" >      264 </v>
   <v type="int" >      265 </v>
   <v type="int" >      266 </v>
   <v type="int" >      267 </v>
   <v type="int" >      268 </v>
   <v type="int" >      269 </v>
   <v type="int" >      270 </v>
   <v type="int" >      271 </v>
   <v type="int" >      272 </v>
   <v type="int" >      273 </v>
   <v type="int" >      274 </v>
   <v type="int" >      275 </v>
   <v type="int" >      276 </v>
   <v type="int" >      277 </v>
   <v type="int" >      278 </v>
   <v type="int" >      279 </v>
   <v type="int" >      280 </v>
   <v type="int" >      281 </v>
   <v type="int" >      282 </v>
   <v type="int" >      283 </v>
   <v type="int" >      284 </v>
   <v type="int" >      285 </v>
   <v type="int" >      286 </v>
   <v type="int" >      287 </v>
   <v type="int" >      288 </v>
   <v type="int" >      289 </v>
   <v type="int" >      290 </v>
   <v type="int" >      291 </v>
   <v type="int" >      292 </v>
   <v type="int" >      293 </v>
   <v type="int" >      294 </v>
   <v type="int" >      295 </v>
   <v type="int" >      296 </v>
   <v type="int" >      297 </v>
   <v type="int" >      298 </v>
   <v type="int" >      299 </v>
   <v type="int" >      300 </v>
   <v type="int" >      301 </v>
   <v type="int" >      302 </v>
   <v type="int" >      303 </v>
   <v type="int" >      304 </v>
   <v type="int" >      305 </v>
   <v type="int" >      306 </v>
   <v type="int" >      307 </v>
   <v type="int" >      308 </v>
   <v type="int" >      309 </v>
   <v type="int" >      310 </v>
   <v type="int" >      311 </v>
   <v type="int" >      312 </v>
   <v type="int" >      313 </v>
   <v type="int" >      314 </v>
   <v type="int" >      315 </v>
   <v type="int" >      316 </v>
   <v type="int" >      317 </v>
   <v type="int" >      318 </v>
   <v type="int" >      319 </v>
   <v type="int" >      320 </v>
   <v type="int" >      321 </v>
   <v type="int" >      322 </v>
   <v type="int" >      323 </v>
   <v type="int" >      324 </v>
   <v type="int" >      325 </v>
  </varray>
 </primitive_cell>
 <kpoints>
  <generation param="Gamma">
   <v type="int" name="divisions">       3        3        1 </v>
   <v name="usershift">      0.00000000       0.00000000       0.00000000 </v>
   <v name="genvec1">      0.33333333       0.00000000       0.00000000 </v>
   <v name="genvec2">      0.00000000       0.33333333       0.00000000 </v>
   <v name="genvec3">      0.00000000       0.00000000       1.00000000 </v>
   <v name="shift">      0.00000000       0.00000000       0.00000000 </v>
  </generation>
  <varray name="kpointlist" >
   <v>       0.00000000       0.00000000       0.00000000 </v>
   <v>       0.33333333       0.00000000       0.00000000 </v>
   <v>       0.00000000       0.33333333       0.00000000 </v>
   <v>       0.33333333       0.33333333       0.00000000 </v>
   <v>      -0.33333333       0.33333333       0.00000000 </v>
  </varray>
  <varray name="weights" >
   <v>       0.11111111 </v>
   <v>       0.22222222 </v>
   <v>       0.22222222 </v>
   <v>       0.22222222 </v>
   <v>       0.22222222 </v>
  </varray>
 </kpoints>
 <parameters>
  <separator name="general" >
   <i type="string" name="SYSTEM">PSC</i>
   <i type="logical" name="LCOMPAT"> F  </i>
  </separator>
  <separator name="electronic" >
   <i type="string" name="PREC">normal</i>
   <i name="ENMAX">    500.00000000</i>
   <i name="ENAUG">    644.87300000</i>
   <i name="EDIFF">      0.00010000</i>
   <i type="int" name="IALGO">    38</i>
   <i type="int" name="IWAVPR">    10</i>
   <i type="int" name="NBANDS">   732</i>
   <i type="int" name="NBANDSLOW">    -1</i>
   <i type="int" name="NBANDSHIGH">    -1</i>
   <i name="NELECT">   1134.00000000</i>
   <i type="int" name="TURBO">     0</i>
   <i type="int" name="IRESTART">     0</i>
   <i type="int" name="NREBOOT">     0</i>
   <i type="int" name="NMIN">     0</i>
   <i name="EREF">      0.00000000</i>
   <separator name="electronic smearing" >
    <i type="int" name="ISMEAR">     0</i>
    <i name="SIGMA">      0.05000000</i>
    <i name="KSPACING">      0.50000000</i>
    <i type="logical" name="KGAMMA"> T  </i>
    <i type="logical" name="KBLOWUP"> T  </i>
   </separator>
   <separator name="electronic projectors" >
    <i type="logical" name="LREAL"> T  </i>
    <v name="ROPT">     -0.00050000     -0.00050000     -0.00050000     -0.00050000     -0.00050000</v>
    <i type="int" name="LMAXPAW">  -100</i>
    <i type="int" name="LMAXMIX">     2</i>
    <i type="logical" name="NLSPLINE"> F  </i>
   </separator>
   <separator name="electronic startup" >
    <i type="int" name="ISTART">     0</i>
    <i type="int" name="ICHARG">     1</i>
    <i type="int" name="INIWAV">     1</i>
   </separator>
   <separator name="electronic spin" >
    <i type="int" name="ISPIN">     1</i>
    <i type="logical" name="LNONCOLLINEAR"> F  </i>
    <v name="MAGMOM">      1.00000000      1.00000000      1.00000000      1.00000000      1.00000000      1.00000000      1.00000000      1.00000000      1.00000000      1.00000000      1.00000000      1.00000000      1.00000000      1.00000000      1.00000000      1.00000000      1.00000000      1.00000000      1.00000000      1.00000000
      1.00000000      1.00000000      1.00000000      1.00000000      1.00000000      1.00000000      1.00000000      1.00000000      1.00000000      1.00000000      1.00000000      1.00000000      1.00000000      1.00000000      1.00000000      1.00000000      1.00000000      1.00000000      1.00000000      1.00000000
      1.00000000      1.00000000      1.00000000      1.00000000      1.00000000      1.00000000      1.00000000      1.00000000      1.00000000      1.00000000      1.00000000      1.00000000      1.00000000      1.00000000      1.00000000      1.00000000      1.00000000      1.00000000      1.00000000      1.00000000
      1.00000000      1.00000000      1.00000000      1.00000000      1.00000000      1.00000000      1.00000000      1.00000000      1.00000000      1.00000000      1.00000000      1.00000000      1.00000000      1.00000000      1.00000000      1.00000000      1.00000000      1.00000000      1.00000000      1.00000000
      1.00000000      1.00000000      1.00000000      1.00000000      1.00000000      1.00000000      1.00000000      1.00000000      1.00000000      1.00000000      1.00000000      1.00000000      1.00000000      1.00000000      1.00000000      1.00000000      1.00000000      1.00000000      1.00000000      1.00000000
      1.00000000      1.00000000      1.00000000      1.00000000      1.00000000      1.00000000      1.00000000      1.00000000      1.00000000      1.00000000      1.00000000      1.00000000      1.00000000      1.00000000      1.00000000      1.00000000      1.00000000      1.00000000      1.00000000      1.00000000
      1.00000000      1.00000000      1.00000000      1.00000000      1.00000000      1.00000000      1.00000000      1.00000000      1.00000000      1.00000000      1.00000000      1.00000000      1.00000000      1.00000000      1.00000000      1.00000000      1.00000000      1.00000000      1.00000000      1.00000000
      1.00000000      1.00000000      1.00000000      1.00000000      1.00000000      1.00000000      1.00000000      1.00000000      1.00000000      1.00000000      1.00000000      1.00000000      1.00000000      1.00000000      1.00000000      1.00000000      1.00000000      1.00000000      1.00000000      1.00000000
      1.00000000      1.00000000      1.00000000      1.00000000      1.00000000      1.00000000      1.00000000      1.00000000      1.00000000      1.00000000      1.00000000      1.00000000      1.00000000      1.00000000      1.00000000      1.00000000      1.00000000      1.00000000      1.00000000      1.00000000
      1.00000000      1.00000000      1.00000000      1.00000000      1.00000000      1.00000000      1.00000000      1.00000000      1.00000000      1.00000000      1.00000000      1.00000000      1.00000000      1.00000000      1.00000000      1.00000000      1.00000000      1.00000000      1.00000000      1.00000000
      1.00000000      1.00000000      1.00000000      1.00000000      1.00000000      1.00000000      1.00000000      1.00000000      1.00000000      1.00000000      1.00000000      1.00000000      1.00000000      1.00000000      1.00000000      1.00000000      1.00000000      1.00000000      1.00000000      1.00000000
      1.00000000      1.00000000      1.00000000      1.00000000      1.00000000      1.00000000      1.00000000      1.00000000      1.00000000      1.00000000      1.00000000      1.00000000      1.00000000      1.00000000      1.00000000      1.00000000      1.00000000      1.00000000      1.00000000      1.00000000
      1.00000000      1.00000000      1.00000000      1.00000000      1.00000000      1.00000000      1.00000000      1.00000000      1.00000000      1.00000000      1.00000000      1.00000000      1.00000000      1.00000000      1.00000000      1.00000000      1.00000000      1.00000000      1.00000000      1.00000000
      1.00000000      1.00000000      1.00000000      1.00000000      1.00000000      1.00000000      1.00000000      1.00000000      1.00000000      1.00000000      1.00000000      1.00000000      1.00000000      1.00000000      1.00000000      1.00000000      1.00000000      1.00000000      1.00000000      1.00000000
      1.00000000      1.00000000      1.00000000      1.00000000      1.00000000      1.00000000      1.00000000      1.00000000      1.00000000      1.00000000      1.00000000      1.00000000      1.00000000      1.00000000      1.00000000      1.00000000      1.00000000      1.00000000      1.00000000      1.00000000
      1.00000000      1.00000000      1.00000000      1.00000000      1.00000000      1.00000000      1.00000000      1.00000000      1.00000000      1.00000000      1.00000000      1.00000000      1.00000000      1.00000000      1.00000000      1.00000000      1.00000000      1.00000000      1.00000000      1.00000000
      1.00000000      1.00000000      1.00000000      1.00000000      1.00000000</v>
    <i name="NUPDOWN">     -1.00000000</i>
    <i type="logical" name="LSORBIT"> F  </i>
    <v name="SAXIS">      0.00000000      0.00000000      1.00000000</v>
    <i type="logical" name="LSPIRAL"> F  </i>
    <v name="QSPIRAL">      0.00000000      0.00000000      0.00000000</v>
    <i type="logical" name="LZEROZ"> F  </i>
   </separator>
   <separator name="electronic exchange-correlation" >
    <i type="logical" name="LASPH"> F  </i>
    <i type="logical" name="LMETAGGA"> F  </i>
   </separator>
   <separator name="electronic convergence" >
    <i type="int" name="NELM">   600</i>
    <i type="int" name="NELMDL">     0</i>
    <i type="int" name="NELMIN">     2</i>
    <i name="ENINI">    500.00000000</i>
    <separator name="electronic convergence detail" >
     <i type="logical" name="LDIAG"> T  </i>
     <i type="logical" name="LSUBROT"> F  </i>
     <i name="WEIMIN">      0.00000000</i>
     <i name="EBREAK">      0.00000003</i>
     <i name="DEPER">      0.30000000</i>
     <i type="int" name="NRMM">     4</i>
     <i name="TIME">      0.40000000</i>
    </separator>
   </separator>
   <separator name="electronic mixer" >
    <i name="AMIX">      0.40000000</i>
    <i name="BMIX">      0.01000000</i>
    <i name="AMIN">      0.01000000</i>
    <i name="AMIX_MAG">      1.60000000</i>
    <i name="BMIX_MAG">      0.01000000</i>
    <separator name="electronic mixer details" >
     <i type="int" name="IMIX">     4</i>
     <i type="logical" name="MIXFIRST"> F  </i>
     <i type="int" name="MAXMIX">   -45</i>
     <i name="WC">    100.00000000</i>
     <i type="int" name="INIMIX">     1</i>
     <i type="int" name="MIXPRE">     1</i>
     <i type="int" name="MREMOVE">     5</i>
    </separator>
   </separator>
   <separator name="electronic dipolcorrection" >
    <i type="logical" name="LDIPOL"> T  </i>
    <i type="logical" name="LMONO"> F  </i>
    <i type="int" name="IDIPOL">     3</i>
    <i name="EPSILON">      1.00000000</i>
    <v name="DIPOL">   -100.00000000   -100.00000000   -100.00000000</v>
    <i name="EFIELD">      0.00000000</i>
   </separator>
  </separator>
  <separator name="grids" >
   <i type="int" name="NGX">   100</i>
   <i type="int" name="NGY">   100</i>
   <i type="int" name="NGZ">   350</i>
   <i type="int" name="NGXF">   200</i>
   <i type="int" name="NGYF">   200</i>
   <i type="int" name="NGZF">   700</i>
   <i type="logical" name="ADDGRID"> F  </i>
  </separator>
  <separator name="ionic" >
   <i type="int" name="NSW">     0</i>
   <i type="int" name="IBRION">    -1</i>
   <i type="int" name="MDALGO">     0</i>
   <i type="int" name="ISIF">     2</i>
   <i name="PSTRESS">      0.00000000</i>
   <i name="EDIFFG">      0.00100000</i>
   <i type="int" name="NFREE">     0</i>
   <i name="POTIM">      0.50000000</i>
   <i name="SMASS">     -3.00000000</i>
   <i name="SCALEE">      1.00000000</i>
  </separator>
  <separator name="ionic md" >
   <i name="TEBEG">      0.00010000</i>
   <i name="TEEND">      0.00010000</i>
   <i type="int" name="NBLOCK">     1</i>
   <i type="int" name="KBLOCK">     1</i>
   <i type="int" name="NPACO">   256</i>
   <i name="APACO">     16.00000000</i>
  </separator>
  <separator name="symmetry" >
   <i type="int" name="ISYM">     0</i>
   <i name="SYMPREC">      0.00001000</i>
  </separator>
  <separator name="dos" >
   <i type="int" name="LORBIT">     0</i>
   <v name="RWIGS">     -1.00000000     -1.00000000     -1.00000000     -1.00000000     -1.00000000</v>
   <i type="int" name="NEDOS">   301</i>
   <i name="EMIN">     10.00000000</i>
   <i name="EMAX">    -10.00000000</i>
   <i name="EFERMI">      0.00000000</i>
  </separator>
  <separator name="writing" >
   <i type="int" name="NWRITE">     2</i>
   <i type="logical" name="LWAVE"> F  </i>
   <i type="logical" name="LDOWNSAMPLE"> F  </i>
   <i type="logical" name="LCHARG"> T  </i>
   <i type="logical" name="LPARD"> F  </i>
   <i type="logical" name="LVTOT"> T  </i>
   <i type="logical" name="LVHAR"> F  </i>
   <i type="logical" name="LELF"> F  </i>
   <i type="logical" name="LOPTICS"> F  </i>
   <v name="STM">      0.00000000      0.00000000      0.00000000      0.00000000      0.00000000      0.00000000      0.00000000</v>
  </separator>
  <separator name="performance" >
   <i type="int" name="NPAR">     4</i>
   <i type="int" name="NSIM">     4</i>
   <i type="int" name="NBLK">    -1</i>
   <i type="logical" name="LPLANE"> T  </i>
   <i type="logical" name="LSCALAPACK"> T  </i>
   <i type="logical" name="LSCAAWARE"> F  </i>
   <i type="logical" name="LSCALU"> F  </i>
   <i type="logical" name="LASYNC"> F  </i>
   <i type="logical" name="LORBITALREAL"> F  </i>
  </separator>
  <separator name="miscellaneous" >
   <i type="int" name="IDIOT">     3</i>
   <i type="int" name="PHON_NSTRUCT">    -1</i>
   <i type="logical" name="LMUSIC"> F  </i>
   <v name="POMASS">      1.00000000     12.01100000     14.00100000    126.90400000    207.20000000</v>
   <v name="DARWINR">      0.00000000      0.00000000      0.00000000      0.00000000      0.00000000</v>
   <v name="DARWINV">      1.00000000      1.00000000      1.00000000      1.00000000      1.00000000</v>
   <i type="logical" name="LCORR"> T  </i>
  </separator>
  <i type="logical" name="GGA_COMPAT"> F  </i>
  <i type="logical" name="LBERRY"> F  </i>
  <i type="int" name="ICORELEVEL">     0</i>
  <i type="logical" name="LDAU"> F  </i>
  <i type="int" name="I_CONSTRAINED_M">     0</i>
  <separator name="electronic exchange-correlation" >
   <i type="string" name="GGA">--</i>
   <i type="int" name="VOSKOWN">     0</i>
   <i type="logical" name="LHFCALC"> F  </i>
   <i type="string" name="PRECFOCK"></i>
   <i type="logical" name="LSYMGRAD"> F  </i>
   <i type="logical" name="LHFONE"> F  </i>
   <i type="logical" name="LRHFCALC"> F  </i>
   <i type="logical" name="LTHOMAS"> F  </i>
   <i type="logical" name="LMODELHF"> F  </i>
   <i type="logical" name="LFOCKACE"> F  </i>
   <i name="ENCUT4O">     -1.00000000</i>
   <i type="int" name="EXXOEP">     0</i>
   <i type="int" name="FOURORBIT">     0</i>
   <i name="AEXX">      0.00000000</i>
   <i name="HFALPHA">      0.00000000</i>
   <i name="MCALPHA">      0.00000000</i>
   <i name="ALDAX">      1.00000000</i>
   <i name="AGGAX">      1.00000000</i>
   <i name="ALDAC">      1.00000000</i>
   <i name="AGGAC">      1.00000000</i>
   <i type="int" name="NKREDX">     1</i>
   <i type="int" name="NKREDY">     1</i>
   <i type="int" name="NKREDZ">     1</i>
   <i type="logical" name="SHIFTRED"> F  </i>
   <i type="logical" name="ODDONLY"> F  </i>
   <i type="logical" name="EVENONLY"> F  </i>
   <i type="int" name="LMAXFOCK">     0</i>
   <i type="int" name="NMAXFOCKAE">     0</i>
   <i type="logical" name="LFOCKAEDFT"> F  </i>
   <i name="HFSCREEN">      0.00000000</i>
   <i name="HFSCREENC">      0.00000000</i>
   <i type="int" name="NBANDSGWLOW">     0</i>
  </separator>
  <separator name="vdW DFT" >
   <i type="logical" name="LUSE_VDW"> F  </i>
   <i name="Zab_VDW">     -0.84910000</i>
   <i name="PARAM1">      0.12340000</i>
   <i name="PARAM2">      1.00000000</i>
   <i name="PARAM3">      0.00000000</i>
  </separator>
  <separator name="model GW" >
   <i type="int" name="MODEL_GW">     0</i>
   <i name="MODEL_EPS0">     37.63423484</i>
   <i name="MODEL_ALPHA">      1.00000000</i>
  </separator>
  <separator name="linear response parameters" >
   <i type="logical" name="LEPSILON"> F  </i>
   <i type="logical" name="LRPA"> F  </i>
   <i type="logical" name="LNABLA"> F  </i>
   <i type="logical" name="LVEL"> F  </i>
   <i type="int" name="KINTER">     0</i>
   <i name="CSHIFT">      0.10000000</i>
   <i name="OMEGAMAX">     -1.00000000</i>
   <i name="DEG_THRESHOLD">      0.00200000</i>
   <i name="RTIME">     -0.10000000</i>
   <i name="WPLASMAI">      0.00000000</i>
   <v name="DFIELD">      0.00000000      0.00000000      0.00000000</v>
   <v name="WPLASMA">      0.00000000      0.00000000      0.00000000      0.00000000      0.00000000      0.00000000      0.00000000      0.00000000      0.00000000</v>
  </separator>
  <separator name="orbital magnetization" >
   <i type="logical" name="NUCIND"> F  </i>
   <v name="MAGPOS">      0.00000000      0.00000000      0.00000000</v>
   <i type="logical" name="LNICSALL"> T  </i>
   <i type="logical" name="ORBITALMAG"> F  </i>
   <i type="logical" name="LMAGBLOCH"> F  </i>
   <i type="logical" name="LCHIMAG"> F  </i>
   <i type="logical" name="LGAUGE"> T  </i>
   <i type="int" name="MAGATOM">     0</i>
   <v name="MAGDIPOL">      0.00000000      0.00000000      0.00000000</v>
   <v name="AVECCONST">      0.00000000      0.00000000      0.00000000</v>
  </separator>
  <separator name="response functions" >
   <i type="logical" name="LFINITE_TEMPERATURE"> F  </i>
   <i type="logical" name="LADDER"> F  </i>
   <i type="logical" name="LRPAFORCE"> F  </i>
   <i type="logical" name="LFXC"> F  </i>
   <i type="logical" name="LHARTREE"> T  </i>
   <i type="int" name="IBSE">     0</i>
   <v type="int" name="KPOINT">    -1     0     0     0</v>
   <i type="logical" name="LTCTC"> F  </i>
   <i type="logical" name="LTCTE"> F  </i>
   <i type="logical" name="LTETE"> F  </i>
   <i type="logical" name="LTRIPLET"> F  </i>
   <i type="logical" name="LFXCEPS"> F  </i>
   <i type="logical" name="LFXHEG"> F  </i>
   <i type="int" name="NATURALO">     2</i>
   <i type="logical" name="LHOLEGF"> F  </i>
   <i type="logical" name="L2ORDER"> F  </i>
   <i type="logical" name="LDMP1"> F  </i>
   <i type="logical" name="LMP2LT"> F  </i>
   <i type="logical" name="LSMP2LT"> F  </i>
   <i type="logical" name="LGWLF"> F  </i>
   <i name="ENCUTGW">     -2.00000000</i>
   <i name="ENCUTGWSOFT">     -2.00000000</i>
   <i name="ENCUTLF">     -1.00000000</i>
   <i type="logical" name="LESF_SPLINES"> F  </i>
   <i type="int" name="LMAXMP2">    -1</i>
   <i name="SCISSOR">      0.00000000</i>
   <i type="int" name="NOMEGA">     0</i>
   <i type="int" name="NOMEGAR">     0</i>
   <i type="int" name="NBANDSGW">    -1</i>
   <i type="int" name="NBANDSO">    -1</i>
   <i type="int" name="NBANDSV">    -1</i>
   <i type="int" name="NELM">   600</i>
   <i type="int" name="NELMHF">     1</i>
   <i type="int" name="DIM">     3</i>
   <i type="int" name="IESPILON">     4</i>
   <i type="int" name="ANTIRES">     0</i>
   <i name="OMEGAMAX">    -30.00000000</i>
   <i name="OMEGAMIN">    -30.00000000</i>
   <i name="OMEGATL">   -200.00000000</i>
   <i type="int" name="OMEGAGRID">     0</i>
   <i name="CSHIFT">     -0.10000000</i>
   <i type="logical" name="LSELFENERGY"> F  </i>
   <i type="logical" name="LSPECTRAL"> F  </i>
   <i type="logical" name="LSPECTRALGW"> F  </i>
   <i type="logical" name="LSINGLES"> F  </i>
   <i type="logical" name="LFERMIGW"> F  </i>
   <i type="logical" name="ODDONLYGW"> F  </i>
   <i type="logical" name="EVENONLYGW"> F  </i>
   <i type="int" name="NKREDLFX">     1</i>
   <i type="int" name="NKREDLFY">     1</i>
   <i type="int" name="NKREDLFZ">     1</i>
   <i type="int" name="MAXMEM">  2800</i>
   <i type="int" name="TELESCOPE">     0</i>
   <i type="int" name="NTAUPAR">    -1</i>
   <i type="int" name="NOMEGAPAR">    -1</i>
   <i name="DAMP_NEWTON">      0.80000001</i>
   <i name="LAMBDA">      1.00000000</i>
  </separator>
  <separator name="External order field" >
   <i name="OFIELD_KAPPA">      0.00000000</i>
   <v name="OFIELD_K">      0.00000000      0.00000000      0.00000000</v>
   <i name="OFIELD_Q6_NEAR">      0.00000000</i>
   <i name="OFIELD_Q6_FAR">      0.00000000</i>
   <i name="OFIELD_A">      0.00000000</i>
  </separator>
 </parameters>
 <atominfo>
  <atoms>     325 </atoms>
  <types>       5 </types>
  <array name="atoms" >
   <dimension dim="1">ion</dimension>
   <field type="string">element</field>
   <field type="int">atomtype</field>
   <set>
    <rc><c>H </c><c>   1</c></rc>
    <rc><c>H </c><c>   1</c></rc>
    <rc><c>H </c><c>   1</c></rc>
    <rc><c>H </c><c>   1</c></rc>
    <rc><c>H </c><c>   1</c></rc>
    <rc><c>H </c><c>   1</c></rc>
    <rc><c>H </c><c>   1</c></rc>
    <rc><c>H </c><c>   1</c></rc>
    <rc><c>H </c><c>   1</c></rc>
    <rc><c>H </c><c>   1</c></rc>
    <rc><c>H </c><c>   1</c></rc>
    <rc><c>H </c><c>   1</c></rc>
    <rc><c>H </c><c>   1</c></rc>
    <rc><c>H </c><c>   1</c></rc>
    <rc><c>H </c><c>   1</c></rc>
    <rc><c>H </c><c>   1</c></rc>
    <rc><c>H </c><c>   1</c></rc>
    <rc><c>H </c><c>   1</c></rc>
    <rc><c>H </c><c>   1</c></rc>
    <rc><c>H </c><c>   1</c></rc>
    <rc><c>H </c><c>   1</c></rc>
    <rc><c>H </c><c>   1</c></rc>
    <rc><c>H </c><c>   1</c></rc>
    <rc><c>H </c><c>   1</c></rc>
    <rc><c>H </c><c>   1</c></rc>
    <rc><c>H </c><c>   1</c></rc>
    <rc><c>H </c><c>   1</c></rc>
    <rc><c>H </c><c>   1</c></rc>
    <rc><c>H </c><c>   1</c></rc>
    <rc><c>H </c><c>   1</c></rc>
    <rc><c>H </c><c>   1</c></rc>
    <rc><c>H </c><c>   1</c></rc>
    <rc><c>H </c><c>   1</c></rc>
    <rc><c>H </c><c>   1</c></rc>
    <rc><c>H </c><c>   1</c></rc>
    <rc><c>H </c><c>   1</c></rc>
    <rc><c>H </c><c>   1</c></rc>
    <rc><c>H </c><c>   1</c></rc>
    <rc><c>H </c><c>   1</c></rc>
    <rc><c>H </c><c>   1</c></rc>
    <rc><c>H </c><c>   1</c></rc>
    <rc><c>H </c><c>   1</c></rc>
    <rc><c>H </c><c>   1</c></rc>
    <rc><c>H </c><c>   1</c></rc>
    <rc><c>H </c><c>   1</c></rc>
    <rc><c>H </c><c>   1</c></rc>
    <rc><c>H </c><c>   1</c></rc>
    <rc><c>H </c><c>   1</c></rc>
    <rc><c>H </c><c>   1</c></rc>
    <rc><c>H </c><c>   1</c></rc>
    <rc><c>H </c><c>   1</c></rc>
    <rc><c>H </c><c>   1</c></rc>
    <rc><c>H </c><c>   1</c></rc>
    <rc><c>H </c><c>   1</c></rc>
    <rc><c>H </c><c>   1</c></rc>
    <rc><c>H </c><c>   1</c></rc>
    <rc><c>H </c><c>   1</c></rc>
    <rc><c>H </c><c>   1</c></rc>
    <rc><c>H </c><c>   1</c></rc>
    <rc><c>H </c><c>   1</c></rc>
    <rc><c>H </c><c>   1</c></rc>
    <rc><c>H </c><c>   1</c></rc>
    <rc><c>H </c><c>   1</c></rc>
    <rc><c>H </c><c>   1</c></rc>
    <rc><c>H </c><c>   1</c></rc>
    <rc><c>H </c><c>   1</c></rc>
    <rc><c>H </c><c>   1</c></rc>
    <rc><c>H </c><c>   1</c></rc>
    <rc><c>H </c><c>   1</c></rc>
    <rc><c>H </c><c>   1</c></rc>
    <rc><c>H </c><c>   1</c></rc>
    <rc><c>H </c><c>   1</c></rc>
    <rc><c>H </c><c>   1</c></rc>
    <rc><c>H </c><c>   1</c></rc>
    <rc><c>H </c><c>   1</c></rc>
    <rc><c>H </c><c>   1</c></rc>
    <rc><c>H </c><c>   1</c></rc>
    <rc><c>H </c><c>   1</c></rc>
    <rc><c>H </c><c>   1</c></rc>
    <rc><c>H </c><c>   1</c></rc>
    <rc><c>H </c><c>   1</c></rc>
    <rc><c>H </c><c>   1</c></rc>
    <rc><c>H </c><c>   1</c></rc>
    <rc><c>H </c><c>   1</c></rc>
    <rc><c>H </c><c>   1</c></rc>
    <rc><c>H </c><c>   1</c></rc>
    <rc><c>H </c><c>   1</c></rc>
    <rc><c>H </c><c>   1</c></rc>
    <rc><c>H </c><c>   1</c></rc>
    <rc><c>H </c><c>   1</c></rc>
    <rc><c>H </c><c>   1</c></rc>
    <rc><c>H </c><c>   1</c></rc>
    <rc><c>H </c><c>   1</c></rc>
    <rc><c>H </c><c>   1</c></rc>
    <rc><c>H </c><c>   1</c></rc>
    <rc><c>H </c><c>   1</c></rc>
    <rc><c>H </c><c>   1</c></rc>
    <rc><c>H </c><c>   1</c></rc>
    <rc><c>H </c><c>   1</c></rc>
    <rc><c>H </c><c>   1</c></rc>
    <rc><c>H </c><c>   1</c></rc>
    <rc><c>H </c><c>   1</c></rc>
    <rc><c>H </c><c>   1</c></rc>
    <rc><c>H </c><c>   1</c></rc>
    <rc><c>H </c><c>   1</c></rc>
    <rc><c>H </c><c>   1</c></rc>
    <rc><c>H </c><c>   1</c></rc>
    <rc><c>H </c><c>   1</c></rc>
    <rc><c>H </c><c>   1</c></rc>
    <rc><c>H </c><c>   1</c></rc>
    <rc><c>H </c><c>   1</c></rc>
    <rc><c>H </c><c>   1</c></rc>
    <rc><c>H </c><c>   1</c></rc>
    <rc><c>H </c><c>   1</c></rc>
    <rc><c>H </c><c>   1</c></rc>
    <rc><c>H </c><c>   1</c></rc>
    <rc><c>H </c><c>   1</c></rc>
    <rc><c>H </c><c>   1</c></rc>
    <rc><c>H </c><c>   1</c></rc>
    <rc><c>H </c><c>   1</c></rc>
    <rc><c>H </c><c>   1</c></rc>
    <rc><c>H </c><c>   1</c></rc>
    <rc><c>H </c><c>   1</c></rc>
    <rc><c>H </c><c>   1</c></rc>
    <rc><c>H </c><c>   1</c></rc>
    <rc><c>H </c><c>   1</c></rc>
    <rc><c>H </c><c>   1</c></rc>
    <rc><c>H </c><c>   1</c></rc>
    <rc><c>H </c><c>   1</c></rc>
    <rc><c>H </c><c>   1</c></rc>
    <rc><c>H </c><c>   1</c></rc>
    <rc><c>H </c><c>   1</c></rc>
    <rc><c>H </c><c>   1</c></rc>
    <rc><c>H </c><c>   1</c></rc>
    <rc><c>H </c><c>   1</c></rc>
    <rc><c>H </c><c>   1</c></rc>
    <rc><c>H </c><c>   1</c></rc>
    <rc><c>H </c><c>   1</c></rc>
    <rc><c>H </c><c>   1</c></rc>
    <rc><c>H </c><c>   1</c></rc>
    <rc><c>H </c><c>   1</c></rc>
    <rc><c>H </c><c>   1</c></rc>
    <rc><c>H </c><c>   1</c></rc>
    <rc><c>C </c><c>   2</c></rc>
    <rc><c>C </c><c>   2</c></rc>
    <rc><c>C </c><c>   2</c></rc>
    <rc><c>C </c><c>   2</c></rc>
    <rc><c>C </c><c>   2</c></rc>
    <rc><c>C </c><c>   2</c></rc>
    <rc><c>C </c><c>   2</c></rc>
    <rc><c>C </c><c>   2</c></rc>
    <rc><c>C </c><c>   2</c></rc>
    <rc><c>C </c><c>   2</c></rc>
    <rc><c>C </c><c>   2</c></rc>
    <rc><c>C </c><c>   2</c></rc>
    <rc><c>C </c><c>   2</c></rc>
    <rc><c>C </c><c>   2</c></rc>
    <rc><c>C </c><c>   2</c></rc>
    <rc><c>C </c><c>   2</c></rc>
    <rc><c>C </c><c>   2</c></rc>
    <rc><c>C </c><c>   2</c></rc>
    <rc><c>C </c><c>   2</c></rc>
    <rc><c>C </c><c>   2</c></rc>
    <rc><c>C </c><c>   2</c></rc>
    <rc><c>C </c><c>   2</c></rc>
    <rc><c>C </c><c>   2</c></rc>
    <rc><c>C </c><c>   2</c></rc>
    <rc><c>C </c><c>   2</c></rc>
    <rc><c>C </c><c>   2</c></rc>
    <rc><c>C </c><c>   2</c></rc>
    <rc><c>C </c><c>   2</c></rc>
    <rc><c>C </c><c>   2</c></rc>
    <rc><c>C </c><c>   2</c></rc>
    <rc><c>C </c><c>   2</c></rc>
    <rc><c>C </c><c>   2</c></rc>
    <rc><c>C </c><c>   2</c></rc>
    <rc><c>C </c><c>   2</c></rc>
    <rc><c>C </c><c>   2</c></rc>
    <rc><c>C </c><c>   2</c></rc>
    <rc><c>C </c><c>   2</c></rc>
    <rc><c>C </c><c>   2</c></rc>
    <rc><c>C </c><c>   2</c></rc>
    <rc><c>N </c><c>   3</c></rc>
    <rc><c>N </c><c>   3</c></rc>
    <rc><c>N </c><c>   3</c></rc>
    <rc><c>N </c><c>   3</c></rc>
    <rc><c>N </c><c>   3</c></rc>
    <rc><c>N </c><c>   3</c></rc>
    <rc><c>N </c><c>   3</c></rc>
    <rc><c>N </c><c>   3</c></rc>
    <rc><c>N </c><c>   3</c></rc>
    <rc><c>N </c><c>   3</c></rc>
    <rc><c>N </c><c>   3</c></rc>
    <rc><c>N </c><c>   3</c></rc>
    <rc><c>N </c><c>   3</c></rc>
    <rc><c>N </c><c>   3</c></rc>
    <rc><c>N </c><c>   3</c></rc>
    <rc><c>N </c><c>   3</c></rc>
    <rc><c>N </c><c>   3</c></rc>
    <rc><c>N </c><c>   3</c></rc>
    <rc><c>N </c><c>   3</c></rc>
    <rc><c>N </c><c>   3</c></rc>
    <rc><c>N </c><c>   3</c></rc>
    <rc><c>N </c><c>   3</c></rc>
    <rc><c>N </c><c>   3</c></rc>
    <rc><c>N </c><c>   3</c></rc>
    <rc><c>N </c><c>   3</c></rc>
    <rc><c>N </c><c>   3</c></rc>
    <rc><c>N </c><c>   3</c></rc>
    <rc><c>N </c><c>   3</c></rc>
    <rc><c>N </c><c>   3</c></rc>
    <rc><c>N </c><c>   3</c></rc>
    <rc><c>N </c><c>   3</c></rc>
    <rc><c>N </c><c>   3</c></rc>
    <rc><c>N </c><c>   3</c></rc>
    <rc><c>N </c><c>   3</c></rc>
    <rc><c>N </c><c>   3</c></rc>
    <rc><c>N </c><c>   3</c></rc>
    <rc><c>N </c><c>   3</c></rc>
    <rc><c>N </c><c>   3</c></rc>
    <rc><c>N </c><c>   3</c></rc>
    <rc><c>N </c><c>   3</c></rc>
    <rc><c>N </c><c>   3</c></rc>
    <rc><c>N </c><c>   3</c></rc>
    <rc><c>N </c><c>   3</c></rc>
    <rc><c>N </c><c>   3</c></rc>
    <rc><c>N </c><c>   3</c></rc>
    <rc><c>N </c><c>   3</c></rc>
    <rc><c>N </c><c>   3</c></rc>
    <rc><c>I </c><c>   4</c></rc>
    <rc><c>I </c><c>   4</c></rc>
    <rc><c>I </c><c>   4</c></rc>
    <rc><c>I </c><c>   4</c></rc>
    <rc><c>I </c><c>   4</c></rc>
    <rc><c>I </c><c>   4</c></rc>
    <rc><c>I </c><c>   4</c></rc>
    <rc><c>I </c><c>   4</c></rc>
    <rc><c>I </c><c>   4</c></rc>
    <rc><c>I </c><c>   4</c></rc>
    <rc><c>I </c><c>   4</c></rc>
    <rc><c>I </c><c>   4</c></rc>
    <rc><c>I </c><c>   4</c></rc>
    <rc><c>I </c><c>   4</c></rc>
    <rc><c>I </c><c>   4</c></rc>
    <rc><c>I </c><c>   4</c></rc>
    <rc><c>I </c><c>   4</c></rc>
    <rc><c>I </c><c>   4</c></rc>
    <rc><c>I </c><c>   4</c></rc>
    <rc><c>I </c><c>   4</c></rc>
    <rc><c>I </c><c>   4</c></rc>
    <rc><c>I </c><c>   4</c></rc>
    <rc><c>I </c><c>   4</c></rc>
    <rc><c>I </c><c>   4</c></rc>
    <rc><c>I </c><c>   4</c></rc>
    <rc><c>I </c><c>   4</c></rc>
    <rc><c>I </c><c>   4</c></rc>
    <rc><c>I </c><c>   4</c></rc>
    <rc><c>I </c><c>   4</c></rc>
    <rc><c>I </c><c>   4</c></rc>
    <rc><c>I </c><c>   4</c></rc>
    <rc><c>I </c><c>   4</c></rc>
    <rc><c>I </c><c>   4</c></rc>
    <rc><c>I </c><c>   4</c></rc>
    <rc><c>I </c><c>   4</c></rc>
    <rc><c>I </c><c>   4</c></rc>
    <rc><c>I </c><c>   4</c></rc>
    <rc><c>I </c><c>   4</c></rc>
    <rc><c>I </c><c>   4</c></rc>
    <rc><c>I </c><c>   4</c></rc>
    <rc><c>I </c><c>   4</c></rc>
    <rc><c>I </c><c>   4</c></rc>
    <rc><c>I </c><c>   4</c></rc>
    <rc><c>I </c><c>   4</c></rc>
    <rc><c>I </c><c>   4</c></rc>
    <rc><c>I </c><c>   4</c></rc>
    <rc><c>I </c><c>   4</c></rc>
    <rc><c>I </c><c>   4</c></rc>
    <rc><c>I </c><c>   4</c></rc>
    <rc><c>I </c><c>   4</c></rc>
    <rc><c>I </c><c>   4</c></rc>
    <rc><c>I </c><c>   4</c></rc>
    <rc><c>I </c><c>   4</c></rc>
    <rc><c>I </c><c>   4</c></rc>
    <rc><c>I </c><c>   4</c></rc>
    <rc><c>I </c><c>   4</c></rc>
    <rc><c>I </c><c>   4</c></rc>
    <rc><c>I </c><c>   4</c></rc>
    <rc><c>I </c><c>   4</c></rc>
    <rc><c>I </c><c>   4</c></rc>
    <rc><c>I </c><c>   4</c></rc>
    <rc><c>I </c><c>   4</c></rc>
    <rc><c>I </c><c>   4</c></rc>
    <rc><c>I </c><c>   4</c></rc>
    <rc><c>I </c><c>   4</c></rc>
    <rc><c>I </c><c>   4</c></rc>
    <rc><c>I </c><c>   4</c></rc>
    <rc><c>I </c><c>   4</c></rc>
    <rc><c>I </c><c>   4</c></rc>
    <rc><c>I </c><c>   4</c></rc>
    <rc><c>I </c><c>   4</c></rc>
    <rc><c>I </c><c>   4</c></rc>
    <rc><c>Pb</c><c>   5</c></rc>
    <rc><c>Pb</c><c>   5</c></rc>
    <rc><c>Pb</c><c>   5</c></rc>
    <rc><c>Pb</c><c>   5</c></rc>
    <rc><c>Pb</c><c>   5</c></rc>
    <rc><c>Pb</c><c>   5</c></rc>
    <rc><c>Pb</c><c>   5</c></rc>
    <rc><c>Pb</c><c>   5</c></rc>
    <rc><c>Pb</c><c>   5</c></rc>
    <rc><c>Pb</c><c>   5</c></rc>
    <rc><c>Pb</c><c>   5</c></rc>
    <rc><c>Pb</c><c>   5</c></rc>
    <rc><c>Pb</c><c>   5</c></rc>
    <rc><c>Pb</c><c>   5</c></rc>
    <rc><c>Pb</c><c>   5</c></rc>
    <rc><c>Pb</c><c>   5</c></rc>
    <rc><c>Pb</c><c>   5</c></rc>
    <rc><c>Pb</c><c>   5</c></rc>
    <rc><c>Pb</c><c>   5</c></rc>
    <rc><c>Pb</c><c>   5</c></rc>
    <rc><c>Pb</c><c>   5</c></rc>
    <rc><c>Pb</c><c>   5</c></rc>
    <rc><c>Pb</c><c>   5</c></rc>
    <rc><c>Pb</c><c>   5</c></rc>
   </set>
  </array>
  <array name="atomtypes" >
   <dimension dim="1">type</dimension>
   <field type="int">atomspertype</field>
   <field type="string">element</field>
   <field>mass</field>
   <field>valence</field>
   <field type="string">pseudopotential</field>
   <set>
    <rc><c> 143</c><c>H </c><c>      1.00000000</c><c>      1.00000000</c><c>  PAW_PBE H 15Jun2001                   </c></rc>
    <rc><c>  39</c><c>C </c><c>     12.01100000</c><c>      4.00000000</c><c>  PAW_PBE C 08Apr2002                   </c></rc>
    <rc><c>  47</c><c>N </c><c>     14.00100000</c><c>      5.00000000</c><c>  PAW_PBE N 08Apr2002                   </c></rc>
    <rc><c>  72</c><c>I </c><c>    126.90400000</c><c>      7.00000000</c><c>  PAW_PBE I 08Apr2002                   </c></rc>
    <rc><c>  24</c><c>Pb</c><c>    207.20000000</c><c>      4.00000000</c><c>  PAW_PBE Pb 08Apr2002                  </c></rc>
   </set>
  </array>
 </atominfo>
 <structure name="initialpos" >
  <crystal>
   <varray name="basis" >
    <v>      18.06080055       0.00000000       0.00000000 </v>
    <v>      -0.00491865      18.06279945       0.00000000 </v>
    <v>       0.00000000       0.00000000      62.48749924 </v>
   </varray>
   <i name="volume">  20385.21054034 </i>
   <varray name="rec_basis" >
    <v>       0.05536853       0.00001508      -0.00000000 </v>
    <v>       0.00000000       0.05536240       0.00000000 </v>
    <v>       0.00000000      -0.00000000       0.01600320 </v>
   </varray>
  </crystal>
  <varray name="positions" >
   <v>       0.43873441       0.30069786       0.57515270 </v>
   <v>       0.43895414       0.83083716       0.57688046 </v>
   <v>       0.98413652       0.30739659       0.58177176 </v>
   <v>       0.96843299       0.79844979       0.58281402 </v>
   <v>       0.31831857       0.99126831       0.57883141 </v>
   <v>       0.31625769       0.55776285       0.57948797 </v>
   <v>       0.78587838       0.06739456       0.58273093 </v>
   <v>       0.05215600       0.13663768       0.56096675 </v>
   <v>       0.05526614       0.64193237       0.55797360 </v>
   <v>       0.58942071       0.19472223       0.55405192 </v>
   <v>       0.54492579       0.66970808       0.56237530 </v>
   <v>       0.34423069       0.04533893       0.55748095 </v>
   <v>       0.29294623       0.61172274       0.55795559 </v>
   <v>       0.85159929       0.05936496       0.56317502 </v>
   <v>       0.02858462       0.17663445       0.58453678 </v>
   <v>       0.02293773       0.67308618       0.58224762 </v>
   <v>       0.56534835       0.25963558       0.57323312 </v>
   <v>       0.48422749       0.70136812       0.58250066 </v>
   <v>       0.25130068       0.43334116       0.58155498 </v>
   <v>       0.18554402       0.94607261       0.57900717 </v>
   <v>       0.68072866       0.97738234       0.58147635 </v>
   <v>       0.37373275       0.26164760       0.55731862 </v>
   <v>       0.47497446       0.87971791       0.55535852 </v>
   <v>       0.99373170       0.35214904       0.55738553 </v>
   <v>       0.96952925       0.84947908       0.55914095 </v>
   <v>       0.18766123       0.41576636       0.56149072 </v>
   <v>       0.13061235       0.97899855       0.55848170 </v>
   <v>       0.68500139       0.91194057       0.56099325 </v>
   <v>       0.46482249       0.19135941       0.54087869 </v>
   <v>       0.54515663       0.77842019       0.54350568 </v>
   <v>       0.03410045       0.24012445       0.54090934 </v>
   <v>       0.02313119       0.75216320       0.54011541 </v>
   <v>       0.21040330       0.52658454       0.54404149 </v>
   <v>       0.22529038       0.04493752       0.54260383 </v>
   <v>       0.79397939       0.95784001       0.54728689 </v>
   <v>       0.46003571       0.31185966       0.67467217 </v>
   <v>       0.43326342       0.81655137       0.67170137 </v>
   <v>       0.97017927       0.27967632       0.68150319 </v>
   <v>       0.92944002       0.78686391       0.67478291 </v>
   <v>       0.29787143       0.05379120       0.67492021 </v>
   <v>       0.30407585       0.54494082       0.67549033 </v>
   <v>       0.79338348       0.05762814       0.67502314 </v>
   <v>       0.80279855       0.58321478       0.67028122 </v>
   <v>       0.08281778       0.16684936       0.64527030 </v>
   <v>       0.09895831       0.69451777       0.65597135 </v>
   <v>       0.57187794       0.16214241       0.65198661 </v>
   <v>       0.57482840       0.67908500       0.65758856 </v>
   <v>       0.17697007       0.41357338       0.64906195 </v>
   <v>       0.17692050       0.91449610       0.65030719 </v>
   <v>       0.69448762       0.41769477       0.65986373 </v>
   <v>       0.67223387       0.92226716       0.64895353 </v>
   <v>       0.06770162       0.17879384       0.67243491 </v>
   <v>       0.04232761       0.69642614       0.67824277 </v>
   <v>       0.56922140       0.21955186       0.67424087 </v>
   <v>       0.53235187       0.71905276       0.67986376 </v>
   <v>       0.21010028       0.43674598       0.67430992 </v>
   <v>       0.20077098       0.94798764       0.67527270 </v>
   <v>       0.70853413       0.48392532       0.67971096 </v>
   <v>       0.69037851       0.95877248       0.67405395 </v>
   <v>       0.40020512       0.30601501       0.65302868 </v>
   <v>       0.41886588       0.83172781       0.64457173 </v>
   <v>       0.93156779       0.32338427       0.65926992 </v>
   <v>       0.92551990       0.83402947       0.65044449 </v>
   <v>       0.32862338       0.08018873       0.64970398 </v>
   <v>       0.32327290       0.58460457       0.65079099 </v>
   <v>       0.83510090       0.07673155       0.65053667 </v>
   <v>       0.83741458       0.57847856       0.64439189 </v>
   <v>       0.99671104       0.25904514       0.63507795 </v>
   <v>       0.03132347       0.78323644       0.63707377 </v>
   <v>       0.46691240       0.21037164       0.63695369 </v>
   <v>       0.50878665       0.74525188       0.63386360 </v>
   <v>       0.25449466       0.99369547       0.63222106 </v>
   <v>       0.24446142       0.50403580       0.63226129 </v>
   <v>       0.76385831       0.99397203       0.63226019 </v>
   <v>       0.77327452       0.47236373       0.63607754 </v>
   <v>       0.44874502       0.30128397       0.76888902 </v>
   <v>       0.44874501       0.80128391       0.76888902 </v>
   <v>       0.94874497       0.30128397       0.76888902 </v>
   <v>       0.94874501       0.80128391       0.76888902 </v>
   <v>       0.30127600       0.05129450       0.76887296 </v>
   <v>       0.30127601       0.55129450       0.76887296 </v>
   <v>       0.80127594       0.05129450       0.76887296 </v>
   <v>       0.80127598       0.55129450       0.76887296 </v>
   <v>       0.07877100       0.17118050       0.74344197 </v>
   <v>       0.07877101       0.67118045       0.74344197 </v>
   <v>       0.57877100       0.17118050       0.74344197 </v>
   <v>       0.57877099       0.67118045       0.74344197 </v>
   <v>       0.17119950       0.42117448       0.74342103 </v>
   <v>       0.17119950       0.92117451       0.74342103 </v>
   <v>       0.67119951       0.42117448       0.74342103 </v>
   <v>       0.67119950       0.92117451       0.74342103 </v>
   <v>       0.05125600       0.19871499       0.76888902 </v>
   <v>       0.05125600       0.69871493       0.76888902 </v>
   <v>       0.55125603       0.19871499       0.76888902 </v>
   <v>       0.55125602       0.69871493       0.76888902 </v>
   <v>       0.19872349       0.44870397       0.76887205 </v>
   <v>       0.19872349       0.94870397       0.76887205 </v>
   <v>       0.69872352       0.44870397       0.76887205 </v>
   <v>       0.69872351       0.94870397       0.76887205 </v>
   <v>       0.42123152       0.32881747       0.74344197 </v>
   <v>       0.42123151       0.82881744       0.74344197 </v>
   <v>       0.92123147       0.32881747       0.74344197 </v>
   <v>       0.92123151       0.82881744       0.74344197 </v>
   <v>       0.32880050       0.07882500       0.74342103 </v>
   <v>       0.32880049       0.57882496       0.74342103 </v>
   <v>       0.82880048       0.07882500       0.74342103 </v>
   <v>       0.82880052       0.57882496       0.74342103 </v>
   <v>       0.00000350       0.25000148       0.72582199 </v>
   <v>       0.00000350       0.75000145       0.72582199 </v>
   <v>       0.50000351       0.25000148       0.72582199 </v>
   <v>       0.50000350       0.75000145       0.72582199 </v>
   <v>       0.25000050       0.00000000       0.72580398 </v>
   <v>       0.25000052       0.50000000       0.72580398 </v>
   <v>       0.75000050       0.00000000       0.72580398 </v>
   <v>       0.75000049       0.50000000       0.72580398 </v>
   <v>       0.77540053       0.55760134       0.52354527 </v>
   <v>       0.72567842       0.47628549       0.52768513 </v>
   <v>       0.86953702       0.50277283       0.54514627 </v>
   <v>       0.85154364       0.48108997       0.57182012 </v>
   <v>       0.73987768       0.63745016       0.56255991 </v>
   <v>       0.80062608       0.59299238       0.58101147 </v>
   <v>       0.66065681       0.54062007       0.57112473 </v>
   <v>       0.67501378       0.45181967       0.56107127 </v>
   <v>       0.61494468       0.54741809       0.53878135 </v>
   <v>       0.66817898       0.62897132       0.54042419 </v>
   <v>       0.61226557       0.64934041       0.50820516 </v>
   <v>       0.69091902       0.60447636       0.49836540 </v>
   <v>       0.82993323       0.38736262       0.53196956 </v>
   <v>       0.75807828       0.37477235       0.55101634 </v>
   <v>       0.85023869       0.36026974       0.55857614 </v>
   <v>       0.86034280       0.69140529       0.55892875 </v>
   <v>       0.84874714       0.63475442       0.53576573 </v>
   <v>       0.90698594       0.60384669       0.55746209 </v>
   <v>       0.75855035       0.51322677       0.60015446 </v>
   <v>       0.75897737       0.41976827       0.59140082 </v>
   <v>       0.67607612       0.46029481       0.60109954 </v>
   <v>       0.53985338       0.53633042       0.50678911 </v>
   <v>       0.57573503       0.55553547       0.48127335 </v>
   <v>       0.70508913       0.48993486       0.47325799 </v>
   <v>       0.55132777       0.41831184       0.52149133 </v>
   <v>       0.77185121       0.37118593       0.47565849 </v>
   <v>       0.61905606       0.29707929       0.52424243 </v>
   <v>       0.72919758       0.27409650       0.50139142 </v>
   <v>       0.02070239       0.24283680       0.55791616 </v>
   <v>       0.01137565       0.74483393       0.55737699 </v>
   <v>       0.48179022       0.22685460       0.55416748 </v>
   <v>       0.51080921       0.77325599       0.55785309 </v>
   <v>       0.23915048       0.51292752       0.55857663 </v>
   <v>       0.23604821       0.01363458       0.55690118 </v>
   <v>       0.76982654       0.98485197       0.56097457 </v>
   <v>       0.00640190       0.24575195       0.65233323 </v>
   <v>       0.01259901       0.76426454       0.65310847 </v>
   <v>       0.48671796       0.23325154       0.65224789 </v>
   <v>       0.49732394       0.75527626       0.65109495 </v>
   <v>       0.25127051       0.49987835       0.64981491 </v>
   <v>       0.25210463       0.99655626       0.64979165 </v>
   <v>       0.76516173       0.49717511       0.65188392 </v>
   <v>       0.75296739       0.99870630       0.64954282 </v>
   <v>       0.49998898       0.24999498       0.74327702 </v>
   <v>       0.49998903       0.74999496       0.74327702 </v>
   <v>       0.99998898       0.24999498       0.74327702 </v>
   <v>       0.99998903       0.74999496       0.74327702 </v>
   <v>       0.25000050       0.00000100       0.74325596 </v>
   <v>       0.25000052       0.50000100       0.74325596 </v>
   <v>       0.75000050       0.00000100       0.74325596 </v>
   <v>       0.75000049       0.50000100       0.74325596 </v>
   <v>       0.62505848       0.46295608       0.49722390 </v>
   <v>       0.68667008       0.44842847       0.48416795 </v>
   <v>       0.60034421       0.40773116       0.51138884 </v>
   <v>       0.72402383       0.37956015       0.48552295 </v>
   <v>       0.63797809       0.33891276       0.51280972 </v>
   <v>       0.69995594       0.32573614       0.49998941 </v>
   <v>       0.73173713       0.53263400       0.53345100 </v>
   <v>       0.82921305       0.47598560       0.55561400 </v>
   <v>       0.78821550       0.60091985       0.56403841 </v>
   <v>       0.70256413       0.49679956       0.56972107 </v>
   <v>       0.66169943       0.57770692       0.53167946 </v>
   <v>       0.64179381       0.59725585       0.50841144 </v>
   <v>       0.81549037       0.39651349       0.54882694 </v>
   <v>       0.85568989       0.63374931       0.55322808 </v>
   <v>       0.72611489       0.47103956       0.59157651 </v>
   <v>       0.59101370       0.53951121       0.49765627 </v>
   <v>       0.03423638       0.18240822       0.56881122 </v>
   <v>       0.03200628       0.68304742       0.56659318 </v>
   <v>       0.54980124       0.22588721       0.56106608 </v>
   <v>       0.51482346       0.71128938       0.56882062 </v>
   <v>       0.42815376       0.26906171       0.56245680 </v>
   <v>       0.46945305       0.83083173       0.56364789 </v>
   <v>       0.99299427       0.30374001       0.56585298 </v>
   <v>       0.97850859       0.80019961       0.56675673 </v>
   <v>       0.22576997       0.44966911       0.56745572 </v>
   <v>       0.18144009       0.97656649       0.56499588 </v>
   <v>       0.70587248       0.95814758       0.56784551 </v>
   <v>       0.30340966       0.01835282       0.56497622 </v>
   <v>       0.28516817       0.56383739       0.56581636 </v>
   <v>       0.80687752       0.03760941       0.56997356 </v>
   <v>       0.05376490       0.19542804       0.65691209 </v>
   <v>       0.05172838       0.71665126       0.66303374 </v>
   <v>       0.54555690       0.20438414       0.66005304 </v>
   <v>       0.53778171       0.71497620       0.66397118 </v>
   <v>       0.21057675       0.44719575       0.65871476 </v>
   <v>       0.20824979       0.95170425       0.65952535 </v>
   <v>       0.71895495       0.46369815       0.66480765 </v>
   <v>       0.70309718       0.95855673       0.65857496 </v>
   <v>       0.44702273       0.28810957       0.66082114 </v>
   <v>       0.44699741       0.80415891       0.65644142 </v>
   <v>       0.96632598       0.28570516       0.66570499 </v>
   <v>       0.95162517       0.79592505       0.65983339 </v>
   <v>       0.29595337       0.04692756       0.65920009 </v>
   <v>       0.29435145       0.54486765       0.65981147 </v>
   <v>       0.79665958       0.04795140       0.65945764 </v>
   <v>       0.80437599       0.55795393       0.65545532 </v>
   <v>       0.04586250       0.20411950       0.75272599 </v>
   <v>       0.04586250       0.70411946       0.75272599 </v>
   <v>       0.54586251       0.20411950       0.75272599 </v>
   <v>       0.54586250       0.70411946       0.75272599 </v>
   <v>       0.20411900       0.45410100       0.75270499 </v>
   <v>       0.20411899       0.95410095       0.75270499 </v>
   <v>       0.70411898       0.45410100       0.75270499 </v>
   <v>       0.70411896       0.95410095       0.75270499 </v>
   <v>       0.45414002       0.29588849       0.75272697 </v>
   <v>       0.45414001       0.79588852       0.75272697 </v>
   <v>       0.95414002       0.29588849       0.75272697 </v>
[...]
   <v>       0.58942071       0.19472223       0.55405192 </v>
   <v>       0.54492579       0.66970808       0.56237530 </v>
   <v>       0.34423069       0.04533893       0.55748095 </v>
   <v>       0.29294623       0.61172274       0.55795559 </v>
   <v>       0.85159929       0.05936496       0.56317502 </v>
   <v>       0.02858462       0.17663445       0.58453678 </v>
   <v>       0.02293773       0.67308618       0.58224762 </v>
   <v>       0.56534835       0.25963558       0.57323312 </v>
   <v>       0.48422749       0.70136812       0.58250066 </v>
   <v>       0.25130068       0.43334116       0.58155498 </v>
   <v>       0.18554402       0.94607261       0.57900717 </v>
   <v>       0.68072866       0.97738234       0.58147635 </v>
   <v>       0.37373275       0.26164760       0.55731862 </v>
   <v>       0.47497446       0.87971791       0.55535852 </v>
   <v>       0.99373170       0.35214904       0.55738553 </v>
   <v>       0.96952925       0.84947908       0.55914095 </v>
   <v>       0.18766123       0.41576636       0.56149072 </v>
   <v>       0.13061235       0.97899855       0.55848170 </v>
   <v>       0.68500139       0.91194057       0.56099325 </v>
   <v>       0.46482249       0.19135941       0.54087869 </v>
   <v>       0.54515663       0.77842019       0.54350568 </v>
   <v>       0.03410045       0.24012445       0.54090934 </v>
   <v>       0.02313119       0.75216320       0.54011541 </v>
   <v>       0.21040330       0.52658454       0.54404149 </v>
   <v>       0.22529038       0.04493752       0.54260383 </v>
   <v>       0.79397939       0.95784001       0.54728689 </v>
   <v>       0.46003571       0.31185966       0.67467217 </v>
   <v>       0.43326342       0.81655137       0.67170137 </v>
   <v>       0.97017927       0.27967632       0.68150319 </v>
   <v>       0.92944002       0.78686391       0.67478291 </v>
   <v>       0.29787143       0.05379120       0.67492021 </v>
   <v>       0.30407585       0.54494082       0.67549033 </v>
   <v>       0.79338348       0.05762814       0.67502314 </v>
   <v>       0.80279855       0.58321478       0.67028122 </v>
   <v>       0.08281778       0.16684936       0.64527030 </v>
   <v>       0.09895831       0.69451777       0.65597135 </v>
   <v>       0.57187794       0.16214241       0.65198661 </v>
   <v>       0.57482840       0.67908500       0.65758856 </v>
   <v>       0.17697007       0.41357338       0.64906195 </v>
   <v>       0.17692050       0.91449610       0.65030719 </v>
   <v>       0.69448762       0.41769477       0.65986373 </v>
   <v>       0.67223387       0.92226716       0.64895353 </v>
   <v>       0.06770162       0.17879384       0.67243491 </v>
   <v>       0.04232761       0.69642614       0.67824277 </v>
   <v>       0.56922140       0.21955186       0.67424087 </v>
   <v>       0.53235187       0.71905276       0.67986376 </v>
   <v>       0.21010028       0.43674598       0.67430992 </v>
   <v>       0.20077098       0.94798764       0.67527270 </v>
   <v>       0.70853413       0.48392532       0.67971096 </v>
   <v>       0.69037851       0.95877248       0.67405395 </v>
   <v>       0.40020512       0.30601501       0.65302868 </v>
   <v>       0.41886588       0.83172781       0.64457173 </v>
   <v>       0.93156779       0.32338427       0.65926992 </v>
   <v>       0.92551990       0.83402947       0.65044449 </v>
   <v>       0.32862338       0.08018873       0.64970398 </v>
   <v>       0.32327290       0.58460457       0.65079099 </v>
   <v>       0.83510090       0.07673155       0.65053667 </v>
   <v>       0.83741458       0.57847856       0.64439189 </v>
   <v>       0.99671104       0.25904514       0.63507795 </v>
   <v>       0.03132347       0.78323644       0.63707377 </v>
   <v>       0.46691240       0.21037164       0.63695369 </v>
   <v>       0.50878665       0.74525188       0.63386360 </v>
   <v>       0.25449466       0.99369547       0.63222106 </v>
   <v>       0.24446142       0.50403580       0.63226129 </v>
   <v>       0.76385831       0.99397203       0.63226019 </v>
   <v>       0.77327452       0.47236373       0.63607754 </v>
   <v>       0.44874502       0.30128397       0.76888902 </v>
   <v>       0.44874501       0.80128391       0.76888902 </v>
   <v>       0.94874497       0.30128397       0.76888902 </v>
   <v>       0.94874501       0.80128391       0.76888902 </v>
   <v>       0.30127600       0.05129450       0.76887296 </v>
   <v>       0.30127601       0.55129450       0.76887296 </v>
   <v>       0.80127594       0.05129450       0.76887296 </v>
   <v>       0.80127598       0.55129450       0.76887296 </v>
   <v>       0.07877100       0.17118050       0.74344197 </v>
   <v>       0.07877101       0.67118045       0.74344197 </v>
   <v>       0.57877100       0.17118050       0.74344197 </v>
   <v>       0.57877099       0.67118045       0.74344197 </v>
   <v>       0.17119950       0.42117448       0.74342103 </v>
   <v>       0.17119950       0.92117451       0.74342103 </v>
   <v>       0.67119951       0.42117448       0.74342103 </v>
   <v>       0.67119950       0.92117451       0.74342103 </v>
   <v>       0.05125600       0.19871499       0.76888902 </v>
   <v>       0.05125600       0.69871493       0.76888902 </v>
   <v>       0.55125603       0.19871499       0.76888902 </v>
   <v>       0.55125602       0.69871493       0.76888902 </v>
   <v>       0.19872349       0.44870397       0.76887205 </v>
   <v>       0.19872349       0.94870397       0.76887205 </v>
   <v>       0.69872352       0.44870397       0.76887205 </v>
   <v>       0.69872351       0.94870397       0.76887205 </v>
   <v>       0.42123152       0.32881747       0.74344197 </v>
   <v>       0.42123151       0.82881744       0.74344197 </v>
   <v>       0.92123147       0.32881747       0.74344197 </v>
   <v>       0.92123151       0.82881744       0.74344197 </v>
   <v>       0.32880050       0.07882500       0.74342103 </v>
   <v>       0.32880049       0.57882496       0.74342103 </v>
   <v>       0.82880048       0.07882500       0.74342103 </v>
   <v>       0.82880052       0.57882496       0.74342103 </v>
   <v>       0.00000350       0.25000148       0.72582199 </v>
   <v>       0.00000350       0.75000145       0.72582199 </v>
   <v>       0.50000351       0.25000148       0.72582199 </v>
   <v>       0.50000350       0.75000145       0.72582199 </v>
   <v>       0.25000050       0.00000000       0.72580398 </v>
   <v>       0.25000052       0.50000000       0.72580398 </v>
   <v>       0.75000050       0.00000000       0.72580398 </v>
   <v>       0.75000049       0.50000000       0.72580398 </v>
   <v>       0.77540053       0.55760134       0.52354527 </v>
   <v>       0.72567842       0.47628549       0.52768513 </v>
   <v>       0.86953702       0.50277283       0.54514627 </v>
   <v>       0.85154364       0.48108997       0.57182012 </v>
   <v>       0.73987768       0.63745016       0.56255991 </v>
   <v>       0.80062608       0.59299238       0.58101147 </v>
   <v>       0.66065681       0.54062007       0.57112473 </v>
   <v>       0.67501378       0.45181967       0.56107127 </v>
   <v>       0.61494468       0.54741809       0.53878135 </v>
   <v>       0.66817898       0.62897132       0.54042419 </v>
   <v>       0.61226557       0.64934041       0.50820516 </v>
   <v>       0.69091902       0.60447636       0.49836540 </v>
   <v>       0.82993323       0.38736262       0.53196956 </v>
   <v>       0.75807828       0.37477235       0.55101634 </v>
   <v>       0.85023869       0.36026974       0.55857614 </v>
   <v>       0.86034280       0.69140529       0.55892875 </v>
   <v>       0.84874714       0.63475442       0.53576573 </v>
   <v>       0.90698594       0.60384669       0.55746209 </v>
   <v>       0.75855035       0.51322677       0.60015446 </v>
   <v>       0.75897737       0.41976827       0.59140082 </v>
   <v>       0.67607612       0.46029481       0.60109954 </v>
   <v>       0.53985338       0.53633042       0.50678911 </v>
   <v>       0.57573503       0.55553547       0.48127335 </v>
   <v>       0.70508913       0.48993486       0.47325799 </v>
   <v>       0.55132777       0.41831184       0.52149133 </v>
   <v>       0.77185121       0.37118593       0.47565849 </v>
   <v>       0.61905606       0.29707929       0.52424243 </v>
   <v>       0.72919758       0.27409650       0.50139142 </v>
   <v>       0.02070239       0.24283680       0.55791616 </v>
   <v>       0.01137565       0.74483393       0.55737699 </v>
   <v>       0.48179022       0.22685460       0.55416748 </v>
   <v>       0.51080921       0.77325599       0.55785309 </v>
   <v>       0.23915048       0.51292752       0.55857663 </v>
   <v>       0.23604821       0.01363458       0.55690118 </v>
   <v>       0.76982654       0.98485197       0.56097457 </v>
   <v>       0.00640190       0.24575195       0.65233323 </v>
   <v>       0.01259901       0.76426454       0.65310847 </v>
   <v>       0.48671796       0.23325154       0.65224789 </v>
   <v>       0.49732394       0.75527626       0.65109495 </v>
   <v>       0.25127051       0.49987835       0.64981491 </v>
   <v>       0.25210463       0.99655626       0.64979165 </v>
   <v>       0.76516173       0.49717511       0.65188392 </v>
   <v>       0.75296739       0.99870630       0.64954282 </v>
   <v>       0.49998898       0.24999498       0.74327702 </v>
   <v>       0.49998903       0.74999496       0.74327702 </v>
   <v>       0.99998898       0.24999498       0.74327702 </v>
   <v>       0.99998903       0.74999496       0.74327702 </v>
   <v>       0.25000050       0.00000100       0.74325596 </v>
   <v>       0.25000052       0.50000100       0.74325596 </v>
   <v>       0.75000050       0.00000100       0.74325596 </v>
   <v>       0.75000049       0.50000100       0.74325596 </v>
   <v>       0.62505848       0.46295608       0.49722390 </v>
   <v>       0.68667008       0.44842847       0.48416795 </v>
   <v>       0.60034421       0.40773116       0.51138884 </v>
   <v>       0.72402383       0.37956015       0.48552295 </v>
   <v>       0.63797809       0.33891276       0.51280972 </v>
   <v>       0.69995594       0.32573614       0.49998941 </v>
   <v>       0.73173713       0.53263400       0.53345100 </v>
   <v>       0.82921305       0.47598560       0.55561400 </v>
   <v>       0.78821550       0.60091985       0.56403841 </v>
   <v>       0.70256413       0.49679956       0.56972107 </v>
   <v>       0.66169943       0.57770692       0.53167946 </v>
   <v>       0.64179381       0.59725585       0.50841144 </v>
   <v>       0.81549037       0.39651349       0.54882694 </v>
   <v>       0.85568989       0.63374931       0.55322808 </v>
   <v>       0.72611489       0.47103956       0.59157651 </v>
   <v>       0.59101370       0.53951121       0.49765627 </v>
   <v>       0.03423638       0.18240822       0.56881122 </v>
   <v>       0.03200628       0.68304742       0.56659318 </v>
   <v>       0.54980124       0.22588721       0.56106608 </v>
   <v>       0.51482346       0.71128938       0.56882062 </v>
   <v>       0.42815376       0.26906171       0.56245680 </v>
   <v>       0.46945305       0.83083173       0.56364789 </v>
   <v>       0.99299427       0.30374001       0.56585298 </v>
   <v>       0.97850859       0.80019961       0.56675673 </v>
   <v>       0.22576997       0.44966911       0.56745572 </v>
   <v>       0.18144009       0.97656649       0.56499588 </v>
   <v>       0.70587248       0.95814758       0.56784551 </v>
   <v>       0.30340966       0.01835282       0.56497622 </v>
   <v>       0.28516817       0.56383739       0.56581636 </v>
   <v>       0.80687752       0.03760941       0.56997356 </v>
   <v>       0.05376490       0.19542804       0.65691209 </v>
   <v>       0.05172838       0.71665126       0.66303374 </v>
   <v>       0.54555690       0.20438414       0.66005304 </v>
   <v>       0.53778171       0.71497620       0.66397118 </v>
   <v>       0.21057675       0.44719575       0.65871476 </v>
   <v>       0.20824979       0.95170425       0.65952535 </v>
   <v>       0.71895495       0.46369815       0.66480765 </v>
   <v>       0.70309718       0.95855673       0.65857496 </v>
   <v>       0.44702273       0.28810957       0.66082114 </v>
   <v>       0.44699741       0.80415891       0.65644142 </v>
   <v>       0.96632598       0.28570516       0.66570499 </v>
   <v>       0.95162517       0.79592505       0.65983339 </v>
   <v>       0.29595337       0.04692756       0.65920009 </v>
   <v>       0.29435145       0.54486765       0.65981147 </v>
   <v>       0.79665958       0.04795140       0.65945764 </v>
   <v>       0.80437599       0.55795393       0.65545532 </v>
   <v>       0.04586250       0.20411950       0.75272599 </v>
   <v>       0.04586250       0.70411946       0.75272599 </v>
   <v>       0.54586251       0.20411950       0.75272599 </v>
   <v>       0.54586250       0.70411946       0.75272599 </v>
   <v>       0.20411900       0.45410100       0.75270499 </v>
   <v>       0.20411899       0.95410095       0.75270499 </v>
   <v>       0.70411898       0.45410100       0.75270499 </v>
   <v>       0.70411896       0.95410095       0.75270499 </v>
   <v>       0.45414002       0.29588849       0.75272697 </v>
   <v>       0.45414001       0.79588852       0.75272697 </v>
   <v>       0.95414002       0.29588849       0.75272697 </v>
   <v>       0.95414006       0.79588852       0.75272697 </v>
   <v>       0.29588249       0.04590050       0.75270499 </v>
   <v>       0.29588248       0.54590053       0.75270499 </v>
   <v>       0.79588244       0.04590050       0.75270499 </v>
   <v>       0.79588248       0.54590053       0.75270499 </v>
   <v>       0.76242160       0.52550266       0.55575923 </v>
   <v>       0.49578038       0.02062957       0.55165483 </v>
   <v>       0.47043284       0.51294040       0.55788411 </v>
   <v>       0.99337795       0.99530880       0.55059639 </v>
   <v>       0.03570869       0.49283667       0.55244216 </v>
   <v>       0.23158979       0.23862846       0.55204816 </v>
   <v>       0.25734674       0.75624948       0.55282084 </v>
   <v>       0.74711698       0.21182566       0.55566522 </v>
   <v>       0.71899253       0.78568599       0.54708147 </v>
   <v>       0.00076180       0.99494416       0.65415824 </v>
   <v>       0.01420744       0.49990095       0.65526088 </v>
   <v>       0.49373060       0.00043589       0.65403591 </v>
   <v>       0.50601807       0.48876792       0.65629997 </v>
   <v>       0.25349013       0.24671456       0.65441879 </v>
   <v>       0.24868246       0.75135914       0.65437264 </v>
   <v>       0.74131535       0.25778967       0.65535410 </v>
   <v>       0.75239282       0.75656558       0.65373091 </v>
   <v>       0.14370141       0.10513996       0.61100185 </v>
   <v>       0.14634783       0.60672623       0.60811730 </v>
   <v>       0.65107846       0.10438001       0.60952334 </v>
   <v>       0.61762990       0.63563175       0.61461243 </v>
   <v>       0.35103984       0.39093254       0.60781444 </v>
   <v>       0.35972100       0.89250926       0.60756207 </v>
   <v>       0.89154863       0.36271003       0.61441696 </v>
   <v>       0.86257268       0.88910054       0.60771353 </v>
   <v>       0.11483402       0.35641596       0.61111997 </v>
   <v>       0.11092792       0.86251642       0.60680826 </v>
   <v>       0.57767173       0.32820681       0.60790870 </v>
   <v>       0.61286423       0.86330749       0.61061475 </v>
   <v>       0.38294316       0.13113439       0.60841155 </v>
   <v>       0.38745126       0.63880157       0.61281153 </v>
   <v>       0.88818672       0.14164044       0.61197451 </v>
   <v>       0.91472584       0.65099230       0.61521350 </v>
   <v>       0.00000000       0.00000000       0.75492797 </v>
   <v>       0.00000000       0.50000000       0.75492797 </v>
   <v>       0.50000000       0.00000000       0.75492797 </v>
   <v>       0.49999999       0.50000000       0.75492797 </v>
   <v>       0.25000050       0.25000000       0.75493902 </v>
   <v>       0.25000051       0.74999997       0.75493902 </v>
   <v>       0.75000047       0.25000000       0.75493902 </v>
   <v>       0.75000046       0.74999997       0.75493902 </v>
   <v>       0.13579050       0.11421000       0.70478299 </v>
   <v>       0.13579050       0.61420998       0.70478299 </v>
   <v>       0.63579045       0.11421000       0.70478299 </v>
   <v>       0.63579049       0.61420998       0.70478299 </v>
   <v>       0.36420952       0.38578999       0.70478299 </v>
   <v>       0.36420950       0.88578996       0.70478299 </v>
   <v>       0.86420954       0.38578999       0.70478299 </v>
   <v>       0.86420953       0.88578996       0.70478299 </v>
   <v>       0.11421799       0.36421899       0.70478098 </v>
   <v>       0.11421799       0.86421899       0.70478098 </v>
   <v>       0.61421800       0.36421899       0.70478098 </v>
   <v>       0.61421799       0.86421899       0.70478098 </v>
   <v>       0.38578201       0.13578149       0.70478202 </v>
   <v>       0.38578200       0.63578149       0.70478202 </v>
   <v>       0.88578199       0.13578149       0.70478202 </v>
   <v>       0.88578203       0.63578149       0.70478202 </v>
   <v>       0.13466700       0.11533200       0.80125603 </v>
   <v>       0.13466699       0.61533199       0.80125603 </v>
   <v>       0.63466699       0.11533200       0.80125603 </v>
   <v>       0.63466698       0.61533199       0.80125603 </v>
   <v>       0.36533300       0.38466799       0.80125603 </v>
   <v>       0.36533299       0.88466796       0.80125603 </v>
   <v>       0.86533295       0.38466799       0.80125603 </v>
   <v>       0.86533294       0.88466796       0.80125603 </v>
   <v>       0.11532850       0.36533700       0.80126500 </v>
   <v>       0.11532850       0.86533698       0.80126500 </v>
   <v>       0.61532850       0.36533700       0.80126500 </v>
   <v>       0.61532849       0.86533698       0.80126500 </v>
   <v>       0.38467151       0.13466300       0.80126500 </v>
   <v>       0.38467150       0.63466297       0.80126500 </v>
   <v>       0.88467149       0.13466300       0.80126500 </v>
   <v>       0.88467153       0.63466297       0.80126500 </v>
   <v>       0.99574707       0.00033023       0.60451404 </v>
   <v>       0.00644278       0.49997645       0.60574420 </v>
   <v>       0.50006017       0.00609381       0.60278817 </v>
   <v>       0.49614425       0.49643003       0.60554549 </v>
   <v>       0.24442936       0.24692870       0.60277376 </v>
   <v>       0.24813182       0.74698211       0.60218502 </v>
   <v>       0.74660337       0.25046634       0.60387133 </v>
   <v>       0.74416785       0.75531042       0.60322209 </v>
   <v>       0.00000050       0.00000050       0.70482896 </v>
   <v>       0.00000050       0.50000048       0.70482896 </v>
   <v>       0.50000048       0.00000050       0.70482896 </v>
   <v>       0.50000046       0.50000048       0.70482896 </v>
   <v>       0.24999999       0.24999947       0.70482499 </v>
   <v>       0.25000001       0.74999950       0.70482499 </v>
   <v>       0.74999999       0.24999947       0.70482499 </v>
   <v>       0.74999998       0.74999950       0.70482499 </v>
   <v>       0.00000000       0.00000000       0.80731797 </v>
   <v>       0.00000000       0.50000000       0.80731797 </v>
   <v>       0.50000000       0.00000000       0.80731797 </v>
   <v>       0.49999999       0.50000000       0.80731797 </v>
   <v>       0.24999999       0.25000000       0.80731797 </v>
   <v>       0.25000001       0.74999997       0.80731797 </v>
   <v>       0.74999999       0.25000000       0.80731797 </v>
   <v>       0.74999998       0.74999997       0.80731797 </v>
  </varray>
 </structure>
</modeling>
