 vasp.6.2.1 16May21 (build Nov 15 2021 14:57:28) complex                         
 executed on             LinuxPGI date 2023.07.30  19:45:27
 running on    4 total cores
 distrk:  each k-point on    4 cores,    1 groups
 distr:  one band on NCORE=   1 cores,    4 groups


--------------------------------------------------------------------------------------------------------


 INCAR:
   SYSTEM = PSC
   ISTART = 1
   ICHARG = 1
   PREC = Normal
   ENCUT = 500
   GGA_COMPAT = F
   NELM = 600
   ISYM = 0
   LREAL = Auto
   ISMEAR = 0
   SIGMA = 0.05
   AMIN = 0.01
   BMIX = 0.01
   LVTOT = T
   LWAVE = F
   LDIPOL = T
   IDIPOL = 3
   LVDW = T
   IVDW = 12

 POTCAR:    PAW_PBE H 15Jun2001                   
 POTCAR:    PAW_PBE C 08Apr2002                   
 POTCAR:    PAW_PBE N 08Apr2002                   
 POTCAR:    PAW_PBE I 08Apr2002                   
 POTCAR:    PAW_PBE Pb 08Apr2002                  
 WARNING: For LVTOT=.TRUE., VASP.5.x writes the TOTAL local potential to the
     file LOCPOT. If you want only the Hartree contributions, use LVHAR=.TRUE.
     instead. 

 POTCAR:    PAW_PBE H 15Jun2001                   
   SHA256 =  030f79b5d3ab3cf0e668861823c8fb652ff669f3e15e46930bd03bfd63a607b6 H/POTCAR              
   COPYR  = (c) Copyright 15Jun2001 Georg Kresse                                                    
   COPYR  = This file is part of the software VASP. Any use, copying, and all other rights are regul
   COPYR  = If you do not have a valid VASP license, you may not use, copy or distribute this file. 
   VRHFIN =H: ultrasoft test                                                                        
   LEXCH  = PE                                                                                      
   EATOM  =    12.4884 eV,    0.9179 Ry                                                             
                                                                                                    
   TITEL  = PAW_PBE H 15Jun2001                                                                     
   LULTRA =        F    use ultrasoft PP ?                                                          
   IUNSCR =        0    unscreen: 0-lin 1-nonlin 2-no                                               
   RPACOR =    0.000    partial core radius                                                         
   POMASS =    1.000; ZVAL   =    1.000    mass and valenz                                          
   RCORE  =    1.100    outmost cutoff radius                                                       
   RWIGS  =    0.700; RWIGS  =    0.370    wigner-seitz radius (au A)                               
   ENMAX  =  250.000; ENMIN  =  200.000 eV                                                          
   RCLOC  =    0.701    cutoff for local pot                                                        
   LCOR   =        T    correct aug charges                                                         
   LPAW   =        T    paw PP                                                                      
   EAUG   =  400.000                                                                                
   RMAX   =    1.123    core radius for proj-oper                                                   
   RAUG   =    1.200    factor for augmentation sphere                                              
   RDEP   =    1.112    radius for radial grids                                                     
   RDEPT  =    0.926    core radius for aug-charge                                                  
                                                                                                    
   Atomic configuration                                                                             
    2 entries                                                                                       
     n  l   j            E        occ.                                                              
     1  0  0.50        -6.4927   1.0000                                                             
     2  1  0.50        -3.4015   0.0000                                                             
   Description                                                                                      
     l       E           TYP  RCUT    TYP  RCUT                                                     
     0     -6.4927494     23  1.100                                                                 
     0      6.8029130     23  1.100                                                                 
     1     -4.0817478     23  1.100                                                                 
  local pseudopotential read in
  atomic valenz-charges read in
  non local Contribution for L=            0  read in
    real space projection operators read in
  non local Contribution for L=            0  read in
    real space projection operators read in
  non local Contribution for L=            1  read in
    real space projection operators read in
    PAW grid and wavefunctions read in
 
   number of l-projection  operators is LMAX  =            3
   number of lm-projection operators is LMMAX =            5
 
 POTCAR:    PAW_PBE C 08Apr2002                   
   SHA256 =  253f7b50bb8d59471dbedb8285d89021f4a42ed1a2c5d38a03a736e69125dd95 C/POTCAR              
   COPYR  = (c) Copyright 08Apr2002 Georg Kresse                                                    
   COPYR  = This file is part of the software VASP. Any use, copying, and all other rights are regul
   COPYR  = If you do not have a valid VASP license, you may not use, copy or distribute this file. 
   VRHFIN =C: s2p2                                                                                  
   LEXCH  = PE                                                                                      
   EATOM  =   147.1560 eV,   10.8157 Ry                                                             
                                                                                                    
   TITEL  = PAW_PBE C 08Apr2002                                                                     
   LULTRA =        F    use ultrasoft PP ?                                                          
   IUNSCR =        1    unscreen: 0-lin 1-nonlin 2-no                                               
   RPACOR =    1.200    partial core radius                                                         
   POMASS =   12.011; ZVAL   =    4.000    mass and valenz                                          
   RCORE  =    1.500    outmost cutoff radius                                                       
   RWIGS  =    1.630; RWIGS  =    0.863    wigner-seitz radius (au A)                               
   ENMAX  =  400.000; ENMIN  =  300.000 eV                                                          
   ICORE  =        2    local potential                                                             
   LCOR   =        T    correct aug charges                                                         
   LPAW   =        T    paw PP                                                                      
   EAUG   =  644.873                                                                                
   DEXC   =    0.000                                                                                
   RMAX   =    1.529    core radius for proj-oper                                                   
   RAUG   =    1.300    factor for augmentation sphere                                              
   RDEP   =    1.501    radius for radial grids                                                     
   RDEPT  =    1.300    core radius for aug-charge                                                  
                                                                                                    
   Atomic configuration                                                                             
    4 entries                                                                                       
     n  l   j            E        occ.                                                              
     1  0  0.50      -273.3789   2.0000                                                             
     2  0  0.50       -13.7508   2.0000                                                             
     2  1  0.50        -5.2854   2.0000                                                             
     3  2  1.50        -5.4423   0.0000                                                             
   Description                                                                                      
     l       E           TYP  RCUT    TYP  RCUT                                                     
     0    -13.7508458     23  1.200                                                                 
     0     -8.2022199     23  1.200                                                                 
     1     -5.2854383     23  1.500                                                                 
     1     34.0145650     23  1.500                                                                 
     2     -5.4423304      7  1.500                                                                 
  local pseudopotential read in
  partial core-charges read in
  partial kinetic energy density read in
  atomic valenz-charges read in
  non local Contribution for L=            0  read in
    real space projection operators read in
  non local Contribution for L=            0  read in
    real space projection operators read in
  non local Contribution for L=            1  read in
    real space projection operators read in
  non local Contribution for L=            1  read in
    real space projection operators read in
    PAW grid and wavefunctions read in
 
   number of l-projection  operators is LMAX  =            4
   number of lm-projection operators is LMMAX =            8
 
 POTCAR:    PAW_PBE N 08Apr2002                   
   SHA256 =  e053789ff3a61a86a1b75d8a110fcc91f86041011e7b0817c7c99e4e8a6349d7 N/POTCAR              
   COPYR  = (c) Copyright 08Apr2002 Georg Kresse                                                    
   COPYR  = This file is part of the software VASP. Any use, copying, and all other rights are regul
   COPYR  = If you do not have a valid VASP license, you may not use, copy or distribute this file. 
   VRHFIN =N: s2p3                                                                                  
   LEXCH  = PE                                                                                      
   EATOM  =   264.5486 eV,   19.4438 Ry                                                             
                                                                                                    
   TITEL  = PAW_PBE N 08Apr2002                                                                     
   LULTRA =        F    use ultrasoft PP ?                                                          
   IUNSCR =        1    unscreen: 0-lin 1-nonlin 2-no                                               
   RPACOR =    1.200    partial core radius                                                         
   POMASS =   14.001; ZVAL   =    5.000    mass and valenz                                          
   RCORE  =    1.500    outmost cutoff radius                                                       
   RWIGS  =    1.400; RWIGS  =    0.741    wigner-seitz radius (au A)                               
   ENMAX  =  400.000; ENMIN  =  300.000 eV                                                          
   ICORE  =        2    local potential                                                             
   LCOR   =        T    correct aug charges                                                         
   LPAW   =        T    paw PP                                                                      
   EAUG   =  627.112                                                                                
   DEXC   =    0.000                                                                                
   RMAX   =    1.529    core radius for proj-oper                                                   
   RAUG   =    1.300    factor for augmentation sphere                                              
   RDEP   =    1.514    radius for radial grids                                                     
   RDEPT  =    1.338    core radius for aug-charge                                                  
                                                                                                    
   Atomic configuration                                                                             
    4 entries                                                                                       
     n  l   j            E        occ.                                                              
     1  0  0.50      -384.7179   2.0000                                                             
     2  0  0.50       -18.5828   2.0000                                                             
     2  1  0.50        -7.0898   3.0000                                                             
     3  2  1.50        -6.8029   0.0000                                                             
   Description                                                                                      
     l       E           TYP  RCUT    TYP  RCUT                                                     
     0    -18.5828119     23  1.200                                                                 
     0    -13.5018863     23  1.200                                                                 
     1     -7.0897853     23  1.500                                                                 
     1      9.5240782     23  1.500                                                                 
     2     -6.8029130      7  1.500                                                                 
  local pseudopotential read in
  partial core-charges read in
  partial kinetic energy density read in
  atomic valenz-charges read in
  non local Contribution for L=            0  read in
    real space projection operators read in
  non local Contribution for L=            0  read in
    real space projection operators read in
  non local Contribution for L=            1  read in
    real space projection operators read in
  non local Contribution for L=            1  read in
    real space projection operators read in
    PAW grid and wavefunctions read in
 
   number of l-projection  operators is LMAX  =            4
   number of lm-projection operators is LMMAX =            8
 
 POTCAR:    PAW_PBE I 08Apr2002                   
   SHA256 =  e40f3f59b681c1fc3e3091736183c4589116986673d2b852a5012aec72758799 I/POTCAR              
   COPYR  = (c) Copyright 08Apr2002 Georg Kresse                                                    
   COPYR  = This file is part of the software VASP. Any use, copying, and all other rights are regul
   COPYR  = If you do not have a valid VASP license, you may not use, copy or distribute this file. 
   VRHFIN =I : s2p5                                                                                 
   LEXCH  = PE                                                                                      
   EATOM  =   315.8678 eV,   23.2156 Ry                                                             
                                                                                                    
   TITEL  = PAW_PBE I 08Apr2002                                                                     
   LULTRA =        F    use ultrasoft PP ?                                                          
   IUNSCR =        1    unscreen: 0-lin 1-nonlin 2-no                                               
   RPACOR =    2.200    partial core radius                                                         
   POMASS =  126.904; ZVAL   =    7.000    mass and valenz                                          
   RCORE  =    2.300    outmost cutoff radius                                                       
   RWIGS  =    2.810; RWIGS  =    1.487    wigner-seitz radius (au A)                               
   ENMAX  =  175.647; ENMIN  =  131.735 eV                                                          
   ICORE  =        3    local potential                                                             
   LCOR   =        T    correct aug charges                                                         
   LPAW   =        T    paw PP                                                                      
   EAUG   =  370.139                                                                                
   DEXC   =    0.000                                                                                
   RMAX   =    2.359    core radius for proj-oper                                                   
   RAUG   =    1.300    factor for augmentation sphere                                              
   RDEP   =    2.392    radius for radial grids                                                     
   RDEPT  =    2.170    core radius for aug-charge                                                  
                                                                                                    
   Atomic configuration                                                                             
   13 entries                                                                                       
     n  l   j            E        occ.                                                              
     1  0  0.50    -32976.3739   2.0000                                                             
     2  0  0.50     -5094.5933   2.0000                                                             
     2  1  1.50     -4572.0131   6.0000                                                             
     3  0  0.50     -1028.2813   2.0000                                                             
     3  1  1.50      -859.0250   6.0000                                                             
     3  2  2.50      -605.7620  10.0000                                                             
     4  0  0.50      -180.5540   2.0000                                                             
     4  1  1.50      -127.5306   6.0000                                                             
     4  2  2.50       -50.2720  10.0000                                                             
     5  0  0.50       -17.4058   2.0000                                                             
     5  1  0.50        -7.0851   5.0000                                                             
     5  2  1.50        -7.0750   0.0000                                                             
     4  3  2.50        -7.0750   0.0000                                                             
   Description                                                                                      
     l       E           TYP  RCUT    TYP  RCUT                                                     
     0    -17.4058016     23  2.300                                                                 
     0    -18.7663842     23  2.300                                                                 
     1     -7.0850686     23  2.300                                                                 
     1     -4.2150896     23  2.300                                                                 
     2     -7.0750295     23  2.300                                                                 
     3     -1.3605826     23  2.300                                                                 
  local pseudopotential read in
  partial core-charges read in
  partial kinetic energy density read in
  atomic valenz-charges read in
  non local Contribution for L=            0  read in
    real space projection operators read in
  non local Contribution for L=            0  read in
    real space projection operators read in
  non local Contribution for L=            1  read in
    real space projection operators read in
  non local Contribution for L=            1  read in
    real space projection operators read in
  non local Contribution for L=            2  read in
    real space projection operators read in
    PAW grid and wavefunctions read in
 
   number of l-projection  operators is LMAX  =            5
   number of lm-projection operators is LMMAX =           13
 
 POTCAR:    PAW_PBE Pb 08Apr2002                  
   SHA256 =  797118a27cf1bcd06b9881c67a26cdde129e3cd1a551dd4a281f9681ce847303 Pb/POTCAR             
   COPYR  = (c) Copyright 08Apr2002 Georg Kresse                                                    
   COPYR  = This file is part of the software VASP. Any use, copying, and all other rights are regul
   COPYR  = If you do not have a valid VASP license, you may not use, copy or distribute this file. 
   VRHFIN =Pb:                                                                                      
   LEXCH  = PE                                                                                      
   EATOM  =    96.9868 eV,    7.1283 Ry                                                             
                                                                                                    
   TITEL  = PAW_PBE Pb 08Apr2002                                                                    
   LULTRA =        F    use ultrasoft PP ?                                                          
   IUNSCR =        1    unscreen: 0-lin 1-nonlin 2-no                                               
   RPACOR =    2.200    partial core radius                                                         
   POMASS =  207.200; ZVAL   =    4.000    mass and valenz                                          
   RCORE  =    3.100    outmost cutoff radius                                                       
   RWIGS  =    3.260; RWIGS  =    1.725    wigner-seitz radius (au A)                               
   ENMAX  =   97.973; ENMIN  =   73.480 eV                                                          
   ICORE  =        3    local potential                                                             
   LCOR   =        T    correct aug charges                                                         
   LPAW   =        T    paw PP                                                                      
   EAUG   =  234.873                                                                                
   DEXC   =    0.000                                                                                
   RMAX   =    3.158    core radius for proj-oper                                                   
   RAUG   =    1.300    factor for augmentation sphere                                              
   RDEP   =    3.202    radius for radial grids                                                     
   RDEPT  =    2.659    core radius for aug-charge                                                  
                                                                                                    
   Atomic configuration                                                                             
   17 entries                                                                                       
     n  l   j            E        occ.                                                              
     1  0  0.50    -88091.8466   2.0000                                                             
     2  0  0.50    -15753.4197   2.0000                                                             
     2  1  1.50    -13508.1797   6.0000                                                             
     3  0  0.50     -3781.7194   2.0000                                                             
     3  1  1.50     -3138.2529   6.0000                                                             
     3  2  2.50     -2483.2977  10.0000                                                             
     4  0  0.50      -856.2895   2.0000                                                             
     4  1  1.50      -645.4943   6.0000                                                             
     4  2  2.50      -401.8768  10.0000                                                             
     4  3  3.50      -132.9059  14.0000                                                             
     5  0  0.50      -144.0950   2.0000                                                             
     5  1  1.50       -85.7879   6.0000                                                             
     5  2  2.50       -21.1769  10.0000                                                             
     6  0  0.50       -12.0372   2.0000                                                             
     6  1  1.50        -3.4971   2.0000                                                             
     6  2  2.50        -1.3606   0.0000                                                             
     5  3  2.50        -2.7212   0.0000                                                             
   Description                                                                                      
     l       E           TYP  RCUT    TYP  RCUT                                                     
     0    -12.0371566     23  3.100                                                                 
     0    -13.3977392     23  3.100                                                                 
     1     -3.4971341     23  3.100                                                                 
     1     -5.4423304     23  3.100                                                                 
     2     -1.3605826     23  3.100                                                                 
     3     -1.3605826     23  3.100                                                                 
  local pseudopotential read in
  partial core-charges read in
  partial kinetic energy density read in
  atomic valenz-charges read in
  non local Contribution for L=            0  read in
    real space projection operators read in
  non local Contribution for L=            0  read in
    real space projection operators read in
  non local Contribution for L=            1  read in
    real space projection operators read in
  non local Contribution for L=            1  read in
    real space projection operators read in
  non local Contribution for L=            2  read in
    real space projection operators read in
    PAW grid and wavefunctions read in
 
   number of l-projection  operators is LMAX  =            5
   number of lm-projection operators is LMMAX =           13
 
 Optimization of the real space projectors (new method)

 maximal supplied QI-value         = 34.20
 optimisation between [QCUT,QGAM] = [ 11.29, 22.57] = [ 35.68,142.71] Ry 
 Optimized for a Real-space Cutoff    1.16 Angstroem

   l    n(q)    QCUT    max X(q) W(low)/X(q) W(high)/X(q)  e(spline) 
   0      8    11.287    19.460    0.40E-03    0.73E-03    0.16E-06
   0      8    11.287    12.209    0.38E-03    0.70E-03    0.15E-06
   1      7    11.287     4.655    0.22E-03    0.25E-04    0.22E-06
 Optimization of the real space projectors (new method)

 maximal supplied QI-value         = 25.13
 optimisation between [QCUT,QGAM] = [ 11.31, 22.87] = [ 35.82,146.48] Ry 
 Optimized for a Real-space Cutoff    1.00 Angstroem

   l    n(q)    QCUT    max X(q) W(low)/X(q) W(high)/X(q)  e(spline) 
   0      7    11.310   115.676    0.43E-03    0.13E-02    0.19E-06
   0      7    11.310    87.132    0.43E-03    0.13E-02    0.18E-06
   1      6    11.310     4.429    0.42E-03    0.74E-03    0.11E-06
   1      6    11.310     2.733    0.34E-03    0.55E-03    0.92E-07
 Optimization of the real space projectors (new method)

 maximal supplied QI-value         = 25.13
 optimisation between [QCUT,QGAM] = [ 11.31, 22.87] = [ 35.82,146.48] Ry 
 Optimized for a Real-space Cutoff    1.27 Angstroem

   l    n(q)    QCUT    max X(q) W(low)/X(q) W(high)/X(q)  e(spline) 
   0      9    11.310    79.467    0.75E-04    0.16E-03    0.36E-06
   0      9    11.310    66.151    0.74E-04    0.16E-03    0.36E-06
   1      8    11.310    17.416    0.35E-03    0.12E-03    0.95E-06
   1      8    11.310    12.382    0.37E-03    0.13E-03    0.98E-06
 Optimization of the real space projectors (new method)

 maximal supplied QI-value         = 16.25
 optimisation between [QCUT,QGAM] = [ 11.38, 22.75] = [ 36.24,144.96] Ry 
 Optimized for a Real-space Cutoff    1.31 Angstroem

   l    n(q)    QCUT    max X(q) W(low)/X(q) W(high)/X(q)  e(spline) 
   0      9    11.376   194.483    0.24E-03    0.23E-03    0.67E-07
   0      9    11.376   190.334    0.23E-03    0.22E-03    0.65E-07
   1      8    11.376   116.687    0.25E-03    0.63E-04    0.16E-06
   1      8    11.376    88.696    0.25E-03    0.61E-04    0.16E-06
   2      8    11.376     4.877    0.17E-03    0.14E-03    0.29E-07
 Optimization of the real space projectors (new method)

 maximal supplied QI-value         = 12.09
 optimisation between [QCUT,QGAM] = [ 11.37, 22.86] = [ 36.19,146.31] Ry 
 Optimized for a Real-space Cutoff    1.66 Angstroem

   l    n(q)    QCUT    max X(q) W(low)/X(q) W(high)/X(q)  e(spline) 
   0     11    11.369   135.111    0.12E-03    0.69E-04    0.19E-05
   0     11    11.369   146.850    0.11E-03    0.65E-04    0.18E-05
   1     11    11.369   148.016    0.17E-03    0.32E-03    0.89E-06
   1     11    11.369   122.989    0.17E-03    0.32E-03    0.91E-06
   2     10    11.369     8.916    0.12E-03    0.45E-04    0.33E-06
  PAW_PBE H 15Jun2001                   :
 energy of atom  1       EATOM=  -12.4884
 kinetic energy error for atom=    0.0020 (will be added to EATOM!!)
  PAW_PBE C 08Apr2002                   :
 energy of atom  2       EATOM= -147.1560
 kinetic energy error for atom=    0.0076 (will be added to EATOM!!)
  PAW_PBE N 08Apr2002                   :
 energy of atom  3       EATOM= -264.5486
 kinetic energy error for atom=    0.0138 (will be added to EATOM!!)
  PAW_PBE I 08Apr2002                   :
 energy of atom  4       EATOM= -315.8678
 kinetic energy error for atom=    0.0009 (will be added to EATOM!!)
  PAW_PBE Pb 08Apr2002                  :
 energy of atom  5       EATOM=  -96.9868
 kinetic energy error for atom=    0.0000 (will be added to EATOM!!)
 
 
 POSCAR:  H  C  N  I Pb
  positions in cartesian coordinates
  No initial velocities read in
 exchange correlation table for  LEXCH =        8
   RHO(1)=    0.500       N(1)  =     2000
   RHO(2)=  100.500       N(2)  =     4000
 


--------------------------------------------------------------------------------------------------------


 ion  position               nearest neighbor table
   1  0.466  0.328  0.573- 187 1.02
   2  0.451  0.840  0.574- 188 1.02
   3  0.919  0.241  0.581- 189 1.03
   4  0.942  0.810  0.578- 190 1.04
   5  0.311  0.067  0.573- 194 1.04
   6  0.327  0.571  0.575- 195 1.04
   7  0.793  0.082  0.577- 196 1.04
   8  0.105  0.246  0.559- 183 1.02
   9  0.093  0.678  0.569- 184 1.01
  10  0.562  0.163  0.557- 185 1.02
  11  0.493  0.648  0.564- 186 1.04
  12  0.365  0.005  0.558- 194 1.02
  13  0.275  0.629  0.558- 195 1.02
  14  0.867  0.027  0.566- 196 1.02
  15  0.057  0.237  0.582- 183 1.02
  16  0.017  0.694  0.586- 184 1.02
  17  0.572  0.245  0.572- 185 1.02
  18  0.459  0.706  0.584- 186 1.03
  19  0.285  0.439  0.577- 191 1.04
  20  0.174  0.050  0.571- 192 1.04
  21  0.668  0.027  0.574- 193 1.03
  22  0.384  0.296  0.561- 187 1.03
  23  0.495  0.869  0.551- 188 1.04
  24  0.878  0.237  0.556- 189 1.03
  25  0.981  0.868  0.559- 190 1.03
  26  0.204  0.417  0.563- 191 1.02
  27  0.141  0.980  0.555- 192 1.01
  28  0.664  0.937  0.563- 193 1.02
  29  0.440  0.188  0.549- 146 1.09
  30  0.526  0.745  0.542- 147 1.09
  31  0.994  0.246  0.539- 144 1.08
  32  0.075  0.787  0.550- 145 1.09
  33  0.190  0.536  0.549- 148 1.10
  34  0.261  0.940  0.545- 149 1.10
  35  0.787  0.932  0.556- 150 1.10
  36  0.466  0.311  0.674- 205 1.01
  37  0.439  0.809  0.674- 206 1.02
  38  0.953  0.278  0.678- 207 1.02
  39  0.922  0.766  0.674- 208 1.03
  40  0.307  0.054  0.673- 209 1.01
  41  0.293  0.543  0.677- 210 1.02
  42  0.791  0.055  0.674- 211 1.01
  43  0.848  0.486  0.666- 212 1.01
  44  0.090  0.173  0.646- 197 1.03
  45  0.099  0.695  0.653- 198 1.04
  46  0.579  0.167  0.648- 199 1.03
  47  0.574  0.673  0.654- 200 1.02
  48  0.181  0.410  0.647- 201 1.02
  49  0.174  0.923  0.649- 202 1.04
  50  0.648  0.482  0.660- 203 1.03
  51  0.675  0.911  0.650- 204 1.03
  52  0.060  0.184  0.673- 197 1.03
  53  0.037  0.680  0.674- 198 1.03
  54  0.570  0.214  0.672- 199 1.01
  55  0.536  0.704  0.678- 200 1.01
  56  0.202  0.434  0.674- 201 1.02
  57  0.203  0.956  0.674- 202 1.01
  58  0.721  0.433  0.672- 203 1.03
  59  0.698  0.946  0.675- 204 1.01
  60  0.415  0.319  0.650- 205 1.02
  61  0.423  0.835  0.647- 206 1.02
  62  0.925  0.320  0.654- 207 1.02
  63  0.920  0.829  0.653- 208 1.02
  64  0.337  0.076  0.647- 209 1.03
  65  0.320  0.583  0.653- 210 1.02
  66  0.822  0.080  0.649- 211 1.03
  67  0.855  0.556  0.647- 212 1.02
  68  0.008  0.260  0.633- 151 1.11
  69  0.029  0.790  0.638- 152 1.10
  70  0.483  0.229  0.632- 153 1.10
  71  0.506  0.753  0.633- 154 1.10
  72  0.255  0.996  0.630- 156 1.10
  73  0.252  0.503  0.632- 155 1.10
  74  0.752  0.992  0.631- 158 1.10
  75  0.726  0.560  0.641- 157 1.10
  76  0.449  0.301  0.769- 221 1.02
  77  0.449  0.801  0.769- 222 1.02
  78  0.949  0.301  0.769- 223 1.02
  79  0.949  0.801  0.769- 224 1.02
  80  0.301  0.051  0.769- 225 1.02
  81  0.301  0.551  0.769- 226 1.02
  82  0.801  0.051  0.769- 227 1.02
  83  0.801  0.551  0.769- 228 1.02
  84  0.079  0.171  0.743- 213 1.02
  85  0.079  0.671  0.743- 214 1.02
  86  0.579  0.171  0.743- 215 1.02
  87  0.579  0.671  0.743- 216 1.02
  88  0.171  0.421  0.743- 217 1.02
  89  0.171  0.921  0.743- 218 1.02
  90  0.671  0.421  0.743- 219 1.02
  91  0.671  0.921  0.743- 220 1.02
  92  0.051  0.199  0.769- 213 1.02
  93  0.051  0.699  0.769- 214 1.02
  94  0.551  0.199  0.769- 215 1.02
  95  0.551  0.699  0.769- 216 1.02
  96  0.199  0.449  0.769- 217 1.02
  97  0.199  0.949  0.769- 218 1.02
  98  0.699  0.449  0.769- 219 1.02
  99  0.699  0.949  0.769- 220 1.02
 100  0.421  0.329  0.743- 221 1.02
 101  0.421  0.829  0.743- 222 1.02
 102  0.921  0.329  0.743- 223 1.02
 103  0.921  0.829  0.743- 224 1.02
 104  0.329  0.079  0.743- 225 1.02
 105  0.329  0.579  0.743- 226 1.02
 106  0.829  0.079  0.743- 227 1.02
 107  0.829  0.579  0.743- 228 1.02
 108  0.000  0.250  0.726- 161 1.09
 109  0.000  0.750  0.726- 162 1.09
 110  0.500  0.250  0.726- 159 1.09
 111  0.500  0.750  0.726- 160 1.09
 112  0.250  0.000  0.726- 163 1.09
 113  0.250  0.500  0.726- 164 1.09
 114  0.750  0.000  0.726- 165 1.09
 115  0.750  0.500  0.726- 166 1.09
 116  0.718  0.438  0.542- 173 1.10
 117  0.735  0.496  0.519- 173 1.10
 118  0.655  0.554  0.560- 174 1.09
 119  0.709  0.636  0.558- 174 1.09
 120  0.847  0.502  0.572- 175 1.11
 121  0.785  0.572  0.581- 175 1.10
 122  0.867  0.560  0.531- 176 1.09
 123  0.794  0.625  0.527- 176 1.09
 124  0.867  0.464  0.519- 177 1.10
 125  0.864  0.423  0.544- 177 1.10
 126  0.872  0.326  0.519- 178 1.11
 127  0.784  0.322  0.531- 178 1.10
 128  0.638  0.551  0.521- 179 1.09
 129  0.689  0.635  0.518- 179 1.09
 130  0.606  0.632  0.533- 179 1.09
 131  0.752  0.456  0.598- 180 1.09
 132  0.750  0.406  0.574- 180 1.10
 133  0.679  0.472  0.580- 180 1.10
 134  0.822  0.687  0.561- 181 1.09
 135  0.899  0.681  0.544- 181 1.10
 136  0.894  0.621  0.566- 181 1.09
 137  0.818  0.385  0.486- 182 1.09
 138  0.783  0.297  0.492- 182 1.09
 139  0.662  0.317  0.522- 168 1.09
 140  0.729  0.461  0.470- 169 1.08
 141  0.537  0.374  0.521- 170 1.10
 142  0.604  0.517  0.469- 171 1.09
 143  0.508  0.473  0.495- 172 1.07
 144  0.992  0.244  0.556-  31 1.08 183 1.31 189 1.32
 145  0.036  0.771  0.563-  32 1.09 184 1.31 190 1.32
 146  0.472  0.229  0.558-  29 1.09 185 1.31 187 1.31
 147  0.498  0.757  0.557-  30 1.09 186 1.31 188 1.32
 148  0.238  0.523  0.559-  33 1.10 195 1.31 191 1.32
 149  0.253  0.988  0.555-  34 1.10 192 1.31 194 1.32
 150  0.765  0.981  0.564-  35 1.10 196 1.31 193 1.32
 151  0.008  0.247  0.650-  68 1.11 197 1.29 207 1.31
 152  0.010  0.762  0.653-  69 1.10 198 1.30 208 1.31
 153  0.497  0.243  0.649-  70 1.10 199 1.30 205 1.33
 154  0.499  0.754  0.650-  71 1.10 200 1.31 206 1.33
 155  0.251  0.496  0.650-  73 1.10 201 1.31 210 1.32
 156  0.255  1.000  0.648-  72 1.10 202 1.30 209 1.33
 157  0.750  0.520  0.652-  75 1.10 203 1.31 212 1.33
 158  0.749  0.995  0.649-  74 1.10 204 1.30 211 1.34
 159  0.500  0.250  0.743- 110 1.09 221 1.31 215 1.31
 160  0.500  0.750  0.743- 111 1.09 222 1.31 216 1.31
 161  1.000  0.250  0.743- 108 1.09 223 1.31 213 1.31
 162  1.000  0.750  0.743- 109 1.09 224 1.31 214 1.31
 163  0.250  0.000  0.743- 112 1.09 225 1.31 218 1.31
 164  0.250  0.500  0.743- 113 1.09 226 1.31 217 1.31
 165  0.750  0.000  0.743- 114 1.09 227 1.31 220 1.31
 166  0.750  0.500  0.743- 115 1.09 228 1.31 219 1.31
 167  0.705  0.385  0.496- 168 1.40 169 1.41 182 1.51
 168  0.650  0.360  0.510- 139 1.09 167 1.40 170 1.41
 169  0.687  0.441  0.481- 140 1.08 171 1.40 167 1.41
 170  0.579  0.392  0.510- 141 1.10 172 1.40 168 1.41
 171  0.617  0.473  0.480- 142 1.09 169 1.40 172 1.42
 172  0.562  0.449  0.495- 143 1.07 170 1.40 171 1.42
 173  0.759  0.475  0.534- 116 1.10 117 1.10 229 1.52 177 1.54
 174  0.694  0.584  0.550- 118 1.09 119 1.09 179 1.52 229 1.53
 175  0.789  0.520  0.572- 121 1.10 120 1.11 180 1.51 229 1.54
 176  0.825  0.594  0.539- 123 1.09 122 1.09 181 1.51 229 1.54
 177  0.832  0.432  0.530- 124 1.10 125 1.10 178 1.54 173 1.54
 178  0.818  0.355  0.520- 127 1.10 126 1.11 182 1.54 177 1.54
 179  0.656  0.601  0.529- 128 1.09 130 1.09 129 1.09 174 1.52
 180  0.739  0.461  0.581- 131 1.09 132 1.10 133 1.10 175 1.51
 181  0.861  0.648  0.554- 136 1.09 134 1.09 135 1.10 176 1.51
 182  0.783  0.355  0.497- 137 1.09 138 1.09 167 1.51 178 1.54
 183  0.055  0.240  0.566-   8 1.02  15 1.02 144 1.31
 184  0.049  0.710  0.573-   9 1.01  16 1.02 145 1.31
 185  0.542  0.213  0.562-  17 1.02  10 1.02 146 1.31
 186  0.486  0.702  0.570-  18 1.03  11 1.04 147 1.31
 187  0.440  0.291  0.564-   1 1.02  22 1.03 146 1.31
 188  0.480  0.826  0.561-   2 1.02  23 1.04 147 1.32
 189  0.926  0.245  0.565-  24 1.03   3 1.03 144 1.32
 190  0.979  0.816  0.566-  25 1.03   4 1.04 145 1.32
 191  0.242  0.455  0.567-  26 1.02  19 1.04 148 1.32
 192  0.185  0.007  0.561-  27 1.01  20 1.04 149 1.31
 193  0.693  0.984  0.566-  28 1.02  21 1.03 150 1.32
 194  0.313  0.023  0.562-  12 1.02   5 1.04 149 1.32
 195  0.284  0.577  0.564-  13 1.02   6 1.04 148 1.31
 196  0.811  0.033  0.569-  14 1.02   7 1.04 150 1.31
 197  0.055  0.198  0.657-  44 1.03  52 1.03 151 1.29
 198  0.050  0.709  0.660-  53 1.03  45 1.04 152 1.30
 199  0.552  0.207  0.657-  54 1.01  46 1.03 153 1.30
 200  0.538  0.708  0.662-  55 1.01  47 1.02 154 1.31
 201  0.209  0.443  0.658-  56 1.02  48 1.02 155 1.31
 202  0.208  0.958  0.658-  57 1.01  49 1.04 156 1.30
 203  0.704  0.473  0.662-  58 1.03  50 1.03 157 1.31
 204  0.705  0.948  0.659-  59 1.01  51 1.03 158 1.30
 205  0.457  0.295  0.658-  36 1.01  60 1.02 153 1.33
 206  0.451  0.803  0.658-  37 1.02  61 1.02 154 1.33
 207  0.959  0.283  0.661-  62 1.02  38 1.02 151 1.31
 208  0.948  0.787  0.661-  63 1.02  39 1.03 152 1.31
 209  0.303  0.047  0.657-  40 1.01  64 1.03 156 1.33
 210  0.291  0.543  0.661-  41 1.02  65 1.02 155 1.32
 211  0.790  0.047  0.658-  42 1.01  66 1.03 158 1.34
 212  0.823  0.520  0.656-  43 1.01  67 1.02 157 1.33
 213  0.046  0.204  0.753-  92 1.02  84 1.02 161 1.31
 214  0.046  0.704  0.753-  93 1.02  85 1.02 162 1.31
 215  0.546  0.204  0.753-  94 1.02  86 1.02 159 1.31
 216  0.546  0.704  0.753-  95 1.02  87 1.02 160 1.31
 217  0.204  0.454  0.753-  96 1.02  88 1.02 164 1.31
 218  0.204  0.954  0.753-  97 1.02  89 1.02 163 1.31
 219  0.704  0.454  0.753-  98 1.02  90 1.02 166 1.31
 220  0.704  0.954  0.753-  99 1.02  91 1.02 165 1.31
 221  0.454  0.296  0.753-  76 1.02 100 1.02 159 1.31
 222  0.454  0.796  0.753-  77 1.02 101 1.02 160 1.31
 223  0.954  0.296  0.753-  78 1.02 102 1.02 161 1.31
 224  0.954  0.796  0.753-  79 1.02 103 1.02 162 1.31
 225  0.296  0.046  0.753-  80 1.02 104 1.02 163 1.31
 226  0.296  0.546  0.753-  81 1.02 105 1.02 164 1.31
 227  0.796  0.046  0.753-  82 1.02 106 1.02 165 1.31
 228  0.796  0.546  0.753-  83 1.02 107 1.02 166 1.31
 229  0.767  0.542  0.549- 173 1.52 174 1.53 175 1.54 176 1.54
 230  0.505  0.018  0.553- 304 3.28
 231  0.483  0.512  0.555- 305 3.10
 232  0.995  0.005  0.552- 302 3.33
 233  0.034  0.507  0.554- 303 3.16
 234  0.249  0.249  0.554- 306 3.20
 235  0.241  0.765  0.553- 307 3.19
 236  0.737  0.212  0.556- 308 3.20
 237  0.704  0.794  0.552- 309 3.27
 238  0.003  0.996  0.654- 302 3.09 310 3.15
 239  0.016  0.493  0.656- 311 3.09 303 3.22
 240  0.503  0.001  0.655- 304 3.10 312 3.13
 241  0.503  0.495  0.655- 313 3.10 305 3.16
 242  0.258  0.246  0.655- 306 3.12 314 3.13
 243  0.251  0.754  0.655- 315 3.14 307 3.18
 244  0.748  0.262  0.655- 316 3.10 308 3.10
 245  0.750  0.742  0.654- 317 3.18 309 3.28
 246  0.138  0.116  0.607- 306 3.21 302 3.25
 247  0.148  0.612  0.611- 307 3.17 303 3.21
 248  0.643  0.113  0.611- 304 3.19 308 3.24
 249  0.624  0.625  0.613- 305 3.21 309 3.23
 250  0.361  0.391  0.609- 306 3.21 305 3.21
 251  0.374  0.881  0.606- 304 3.24 307 3.25
 252  0.886  0.370  0.612- 308 3.25 303 3.32
 253  0.868  0.881  0.610- 302 3.22 309 3.27
 254  0.118  0.365  0.609- 306 3.13 303 3.29
 255  0.121  0.875  0.608- 307 3.16 302 3.22
 256  0.592  0.347  0.604- 308 3.23 305 3.29
 257  0.612  0.865  0.610- 309 3.06 304 3.24
 258  0.383  0.133  0.606- 304 3.16 306 3.24
 259  0.380  0.634  0.613- 305 3.22 307 3.31
 260  0.887  0.142  0.613- 302 3.24 308 3.32
 261  0.910  0.649  0.617- 303 3.19 309 3.77
 262  0.000  0.000  0.755- 310 3.13 318 3.27
 263  0.000  0.500  0.755- 311 3.13 319 3.27
 264  0.500  0.000  0.755- 312 3.13 320 3.27
 265  0.500  0.500  0.755- 313 3.13 321 3.27
 266  0.250  0.250  0.755- 314 3.13 322 3.27
 267  0.250  0.750  0.755- 315 3.13 323 3.27
 268  0.750  0.250  0.755- 316 3.13 324 3.27
 269  0.750  0.750  0.755- 317 3.13 325 3.27
 270  0.136  0.114  0.705- 310 3.20 314 3.20
 271  0.136  0.614  0.705- 311 3.20 315 3.20
 272  0.636  0.114  0.705- 312 3.20 316 3.20
 273  0.636  0.614  0.705- 313 3.20 317 3.20
 274  0.364  0.386  0.705- 313 3.20 314 3.20
 275  0.364  0.886  0.705- 312 3.20 315 3.20
 276  0.864  0.386  0.705- 311 3.20 316 3.20
 277  0.864  0.886  0.705- 310 3.20 317 3.20
 278  0.114  0.364  0.705- 314 3.21 311 3.21
 279  0.114  0.864  0.705- 315 3.21 310 3.21
 280  0.614  0.364  0.705- 316 3.21 313 3.21
 281  0.614  0.864  0.705- 317 3.21 312 3.21
 282  0.386  0.136  0.705- 314 3.21 312 3.21
 283  0.386  0.636  0.705- 315 3.21 313 3.21
 284  0.886  0.136  0.705- 316 3.21 310 3.21
 285  0.886  0.636  0.705- 317 3.21 311 3.21
 286  0.135  0.115  0.801- 318 3.22 322 3.22
 287  0.135  0.615  0.801- 319 3.22 323 3.22
 288  0.635  0.115  0.801- 320 3.22 324 3.22
 289  0.635  0.615  0.801- 321 3.22 325 3.22
 290  0.365  0.385  0.801- 321 3.22 322 3.22
 291  0.365  0.885  0.801- 320 3.22 323 3.22
 292  0.865  0.385  0.801- 319 3.22 324 3.22
 293  0.865  0.885  0.801- 318 3.22 325 3.22
 294  0.115  0.365  0.801- 319 3.23 322 3.23
 295  0.115  0.865  0.801- 318 3.23 323 3.23
 296  0.615  0.365  0.801- 321 3.23 324 3.23
 297  0.615  0.865  0.801- 320 3.23 325 3.23
 298  0.385  0.135  0.801- 320 3.23 322 3.23
 299  0.385  0.635  0.801- 321 3.23 323 3.23
 300  0.885  0.135  0.801- 318 3.23 324 3.23
 301  0.885  0.635  0.801- 319 3.23 325 3.23
 302  0.997  0.003  0.605- 238 3.09 255 3.22 253 3.22 260 3.24 246 3.25 232 3.33
 303  0.006  0.507  0.604- 233 3.16 261 3.19 247 3.21 239 3.22 254 3.29 252 3.32
 304  0.503  0.006  0.605- 240 3.10 258 3.16 248 3.19 257 3.24 251 3.24 230 3.28
 305  0.498  0.503  0.605- 231 3.10 241 3.16 249 3.21 250 3.21 259 3.22 256 3.29
 306  0.250  0.253  0.605- 242 3.12 254 3.13 234 3.20 250 3.21 246 3.21 258 3.24
 307  0.247  0.755  0.604- 255 3.16 247 3.17 243 3.18 235 3.19 251 3.25 259 3.31
 308  0.747  0.258  0.606- 244 3.10 236 3.20 256 3.23 248 3.24 252 3.25 260 3.32
 309  0.739  0.757  0.602- 257 3.06 249 3.23 253 3.27 237 3.27 245 3.28 261 3.77
 310  0.000  0.000  0.705- 262 3.13 238 3.15 270 3.20 277 3.20 279 3.21 284 3.21
 311  0.000  0.500  0.705- 239 3.09 263 3.13 271 3.20 276 3.20 278 3.21 285 3.21
 312  0.500  0.000  0.705- 264 3.13 240 3.13 272 3.20 275 3.20 281 3.21 282 3.21
 313  0.500  0.500  0.705- 241 3.10 265 3.13 273 3.20 274 3.20 280 3.21 283 3.21
 314  0.250  0.250  0.705- 266 3.13 242 3.13 270 3.20 274 3.20 282 3.21 278 3.21
 315  0.250  0.750  0.705- 267 3.13 243 3.14 271 3.20 275 3.20 283 3.21 279 3.21
 316  0.750  0.250  0.705- 244 3.10 268 3.13 272 3.20 276 3.20 284 3.21 280 3.21
 317  0.750  0.750  0.705- 269 3.13 245 3.18 273 3.20 277 3.20 285 3.21 281 3.21
 318  0.000  0.000  0.807- 286 3.22 293 3.22 300 3.23 295 3.23 262 3.27
 319  0.000  0.500  0.807- 287 3.22 292 3.22 301 3.23 294 3.23 263 3.27
 320  0.500  0.000  0.807- 288 3.22 291 3.22 298 3.23 297 3.23 264 3.27
 321  0.500  0.500  0.807- 289 3.22 290 3.22 299 3.23 296 3.23 265 3.27
 322  0.250  0.250  0.807- 290 3.22 286 3.22 294 3.23 298 3.23 266 3.27
 323  0.250  0.750  0.807- 291 3.22 287 3.22 299 3.23 295 3.23 267 3.27
 324  0.750  0.250  0.807- 292 3.22 288 3.22 296 3.23 300 3.23 268 3.27
 325  0.750  0.750  0.807- 293 3.22 289 3.22 297 3.23 301 3.23 269 3.27
 

IMPORTANT INFORMATION: All symmetrisations will be switched off!
NOSYMM: (Re-)initialisation of all symmetry stuff for point group C_1.


----------------------------------------------------------------------------------------

                                     Primitive cell                                     

  volume of cell :   20385.2105

  direct lattice vectors                    reciprocal lattice vectors
    18.060800552  0.000000000  0.000000000     0.055368531  0.000015077 -0.000000000
    -0.004918649 18.062799454  0.000000000     0.000000000  0.055362404  0.000000000
     0.000000000  0.000000000 62.487499237     0.000000000 -0.000000000  0.016003201

  length of vectors
    18.060800552 18.062800123 62.487499237     0.055368533  0.055362404  0.016003201

  position of ions in fractional coordinates (direct lattice)
     0.465569274  0.327812542  0.573464004
     0.450773530  0.840142600  0.574269646
     0.919259994  0.240792741  0.581196080
     0.941507352  0.809508634  0.578213794
     0.310958666  0.066534668  0.573018908
     0.326912051  0.571258736  0.574626590
     0.793357822  0.081672285  0.576735166
     0.104785165  0.245898622  0.558567409
     0.093058269  0.678001014  0.569358874
     0.562093640  0.163239964  0.557320150
     0.493181084  0.648083459  0.564336446
     0.364608878  0.004733436  0.558170845
     0.275055858  0.629152579  0.557886731
     0.866596759  0.026589704  0.566493555
     0.056926670  0.237365272  0.582461165
     0.017078191  0.693518258  0.585918460
     0.572432244  0.245207500  0.571791306
     0.458635994  0.706223973  0.584383913
     0.284652208  0.439013110  0.577050598
     0.173839584  0.049781314  0.571130835
     0.668098590  0.026680568  0.574450652
     0.383991976  0.296436583  0.560716581
     0.495466912  0.869173945  0.550684912
     0.878309665  0.236853610  0.556185341
     0.980735574  0.867840645  0.559073736
     0.203586226  0.416577386  0.562921612
     0.140648382  0.979925960  0.554534620
     0.663519878  0.937255956  0.562722415
     0.440306183  0.187628411  0.548950312
     0.526058276  0.745469192  0.541786464
     0.994430217  0.246390564  0.538525558
     0.075249608  0.786853087  0.550290241
     0.190348912  0.535553920  0.548767719
     0.261097048  0.940231852  0.544941881
     0.787380496  0.931537951  0.555697084
     0.465647137  0.310859965  0.673564592
     0.439407378  0.809300822  0.673547804
     0.952990139  0.277944478  0.677582485
     0.922461776  0.765531157  0.674184406
     0.307111003  0.054026483  0.672702237
     0.292973125  0.543042060  0.677396962
     0.790505136  0.055006864  0.674295878
     0.847997893  0.485606554  0.666044045
     0.090050236  0.173333155  0.646139246
     0.098656505  0.695127849  0.652645796
     0.578610725  0.167422558  0.648324558
     0.573937551  0.673252547  0.654142494
     0.180856612  0.410189207  0.646974129
     0.173655901  0.923490295  0.649273295
     0.647909561  0.481681045  0.659683764
     0.675397878  0.911278358  0.649561317
     0.059650050  0.183697292  0.672679649
     0.036833547  0.679864720  0.673982156
     0.570379519  0.213649204  0.672456460
     0.535624749  0.704370140  0.677961406
     0.201850349  0.433882466  0.673552382
     0.203006295  0.956321546  0.674300823
     0.721163485  0.433354331  0.672190538
     0.698451287  0.946037306  0.674807638
     0.414664112  0.319441070  0.650015326
     0.423238257  0.835422380  0.646883047
     0.925045716  0.320427225  0.653929256
     0.919807551  0.828512797  0.653170803
     0.336530720  0.076263338  0.646644779
     0.320148853  0.582645881  0.653126300
     0.822479207  0.079990962  0.648739741
     0.855325836  0.556081825  0.647371242
     0.007922157  0.259738721  0.632540151
     0.028661942  0.790472739  0.638001204
     0.482556701  0.228920306  0.632068133
     0.506467274  0.752683681  0.632803082
     0.255353213  0.996180676  0.630192941
     0.252114491  0.502754245  0.632299258
     0.752486383  0.991841225  0.631300706
     0.726310226  0.560471954  0.641219255
     0.448745018  0.301283966  0.768889017
     0.448745007  0.801283913  0.768889017
     0.948744965  0.301283966  0.768889017
     0.948745007  0.801283913  0.768889017
     0.301275995  0.051294496  0.768872961
     0.301276011  0.551294499  0.768872961
     0.801275943  0.051294496  0.768872961
     0.801275984  0.551294499  0.768872961
     0.078771004  0.171180501  0.743441971
     0.078771006  0.671180448  0.743441971
     0.578771004  0.171180501  0.743441971
     0.578770992  0.671180448  0.743441971
     0.171199499  0.421174482  0.743421032
     0.171199501  0.921174508  0.743421032
     0.671199512  0.421174482  0.743421032
     0.671199501  0.921174508  0.743421032
     0.051256000  0.198714991  0.768889017
     0.051256002  0.698714925  0.768889017
     0.551256027  0.198714991  0.768889017
     0.551256016  0.698714925  0.768889017
     0.198723491  0.448703970  0.768872046
     0.198723493  0.948703970  0.768872046
     0.698723518  0.448703970  0.768872046
     0.698723507  0.948703970  0.768872046
     0.421231519  0.328817467  0.743441971
     0.421231508  0.828817440  0.743441971
     0.921231466  0.328817467  0.743441971
     0.921231508  0.828817440  0.743441971
     0.328800503  0.078824997  0.743421032
     0.328800492  0.578824964  0.743421032
     0.828800477  0.078824997  0.743421032
     0.828800519  0.578824964  0.743421032
     0.000003500  0.250001478  0.725821992
     0.000003500  0.750001452  0.725821992
     0.500003506  0.250001478  0.725821992
     0.500003495  0.750001452  0.725821992
     0.250000502  0.000000000  0.725803983
     0.250000517  0.500000000  0.725803983
     0.750000502  0.000000000  0.725803983
     0.750000490  0.500000000  0.725803983
     0.718446119  0.438044034  0.541914481
     0.735160054  0.495928716  0.519297836
     0.655419424  0.553945472  0.560150672
     0.708673742  0.635914856  0.557942101
     0.847340713  0.502136248  0.571670677
     0.784664600  0.571571774  0.581165740
     0.866807840  0.560461764  0.530999273
     0.794112339  0.624973482  0.526792560
     0.866648482  0.463527083  0.518859516
     0.864486843  0.423124406  0.544460034
     0.871611601  0.326283441  0.518860981
     0.783729551  0.322409673  0.530721263
     0.638261217  0.550799679  0.520520859
     0.689055309  0.635281072  0.518031652
     0.606355943  0.632240136  0.532685889
     0.752371765  0.455694861  0.598045947
     0.749800164  0.406194770  0.573906292
     0.679426792  0.471824770  0.580143196
     0.822268930  0.687398213  0.561150872
     0.899145246  0.681010324  0.544173111
     0.894384352  0.620830024  0.566255470
     0.817580566  0.385162277  0.485869091
     0.783205073  0.297277149  0.491957895
     0.662250797  0.317280086  0.521538701
     0.728877976  0.461074418  0.469904595
     0.536790516  0.374454217  0.521197141
     0.603508429  0.517152442  0.469257218
     0.508048250  0.472847039  0.495129031
     0.992237467  0.243563010  0.555857211
     0.035873561  0.770879776  0.562643908
     0.472157542  0.229204490  0.557732891
     0.498497022  0.756833686  0.556865591
     0.237518996  0.523349995  0.559246500
     0.253330245  0.988481344  0.555347404
     0.765340209  0.981045570  0.563601558
     0.007754045  0.246624828  0.649860144
     0.009588263  0.762179189  0.652587557
     0.497270181  0.243399891  0.648702869
     0.498880155  0.754081922  0.650235524
     0.250696052  0.496244288  0.649808681
     0.254725924  0.999538000  0.647835935
     0.750016000  0.519529712  0.652413205
     0.748589318  0.994924653  0.648891627
     0.499988984  0.249994984  0.743277021
     0.499989025  0.749994958  0.743277021
     0.999988984  0.249994984  0.743277021
     0.999989025  0.749994958  0.743277021
     0.250000502  0.000001000  0.743255960
     0.250000517  0.500001003  0.743255960
     0.750000502  0.000001000  0.743255960
     0.750000491  0.500001003  0.743255960
     0.704796801  0.385219035  0.495800887
     0.649693066  0.360354036  0.509816050
     0.687398800  0.441358357  0.480970254
     0.578836756  0.392453165  0.509682357
     0.616924177  0.473349779  0.480493260
     0.561974753  0.448744149  0.495005990
     0.759391369  0.474522205  0.534308040
     0.693933020  0.584227911  0.549983050
     0.788919814  0.520338784  0.571715852
     0.824834426  0.594268556  0.538842822
     0.831647801  0.431503191  0.529824599
     0.817590834  0.355002276  0.519625599
     0.656167930  0.600729516  0.528842530
     0.739373672  0.460838307  0.581023194
     0.861205439  0.648107535  0.553996182
     0.782820466  0.355105601  0.497079616
     0.055437223  0.239820339  0.566207120
     0.049153503  0.709835072  0.573294109
     0.541638850  0.213398309  0.561753654
     0.486365074  0.701512517  0.570010249
     0.439784165  0.291156628  0.563516275
     0.479543014  0.826377447  0.560702907
     0.926024965  0.244643277  0.564863590
     0.979389836  0.815538765  0.565757079
     0.242310047  0.455393122  0.566799402
     0.185491418  0.006514010  0.560576539
     0.692919052  0.984014156  0.566108407
     0.313035558  0.023475974  0.562104921
     0.284450208  0.576867119  0.563557176
     0.811498191  0.033106493  0.569441044
     0.054980368  0.198404171  0.656835538
     0.049920677  0.709185501  0.660374454
     0.551631269  0.207127473  0.657293332
     0.538278569  0.708124690  0.661773842
     0.209040453  0.442911217  0.657553394
     0.207833885  0.957921260  0.658128765
     0.703855848  0.473460865  0.661705652
     0.705165550  0.948466238  0.658712622
     0.456980951  0.295099560  0.658308855
     0.450625521  0.802914676  0.657735376
     0.959156037  0.283111894  0.661352982
     0.947715547  0.787427579  0.660886641
     0.302597552  0.046505154  0.656690794
     0.290904851  0.543387568  0.661156470
     0.789963995  0.047020581  0.658252447
     0.822624035  0.520075165  0.655589012
     0.045862501  0.204119496  0.752725994
     0.045862500  0.704119456  0.752725994
     0.545862507  0.204119496  0.752725994
     0.545862496  0.704119456  0.752725994
     0.204119002  0.454101003  0.752704994
     0.204118991  0.954100951  0.752704994
     0.704118976  0.454101003  0.752704994
     0.704118964  0.954100951  0.752704994
     0.454140018  0.295888490  0.752726971
     0.454140007  0.795888516  0.752726971
     0.954140018  0.295888490  0.752726971
     0.954140060  0.795888516  0.752726971
     0.295882492  0.045900498  0.752704994
     0.295882481  0.545900528  0.752704994
     0.795882439  0.045900498  0.752704994
     0.795882481  0.545900528  0.752704994
     0.767140243  0.541631992  0.548771931
     0.505428869  0.018339005  0.552641419
     0.482530285  0.511947328  0.555265662
     0.994890626  0.005472036  0.551796645
     0.034083818  0.506755519  0.554344091
     0.248759646  0.248571796  0.553766705
     0.241100128  0.765404707  0.552743246
     0.737182517  0.211812557  0.556348886
     0.703504887  0.793663410  0.551611489
     0.003005422  0.995643700  0.654433507
     0.015676815  0.492747127  0.655597436
     0.502549936  0.001162830  0.654666830
     0.502952591  0.494519651  0.655194890
     0.257771419  0.245575553  0.654724154
     0.251044142  0.753861175  0.654559570
     0.747591804  0.261904166  0.655340610
     0.749561729  0.742493935  0.654015821
     0.137526220  0.115572904  0.607094632
     0.148005995  0.611592697  0.610841963
     0.642961992  0.112580898  0.610518046
     0.623949451  0.624871055  0.612962383
     0.360942999  0.390890538  0.608980080
     0.374314437  0.881416888  0.605742555
     0.885762337  0.370369021  0.612161136
     0.867945977  0.880993872  0.609719180
     0.117856521  0.364546385  0.608810490
     0.120590583  0.875249324  0.607977743
     0.591861466  0.346995214  0.603671950
     0.612127086  0.865024574  0.609992428
     0.382739444  0.132773881  0.606438861
     0.380240577  0.634004635  0.612861593
     0.887404477  0.142362459  0.613332269
     0.910074182  0.648733610  0.616744206
     0.000000000  0.000000000  0.754927972
     0.000000000  0.500000000  0.754927972
     0.500000000  0.000000000  0.754927972
     0.499999989  0.500000000  0.754927972
     0.250000496  0.250000000  0.754939022
     0.250000511  0.749999974  0.754939022
     0.750000470  0.250000000  0.754939022
     0.750000458  0.749999974  0.754939022
     0.135790500  0.114209997  0.704782994
     0.135790502  0.614209984  0.704782994
     0.635790447  0.114209997  0.704782994
     0.635790488  0.614209984  0.704782994
     0.364209516  0.385789989  0.704782994
     0.364209505  0.885789963  0.704782994
     0.864209542  0.385789989  0.704782994
     0.864209531  0.885789963  0.704782994
     0.114217990  0.364218986  0.704780979
     0.114217992  0.864218986  0.704780979
     0.614218004  0.364218986  0.704780979
     0.614217992  0.864218986  0.704780979
     0.385782012  0.135781489  0.704782017
     0.385782001  0.635781489  0.704782017
     0.885781985  0.135781489  0.704782017
     0.885782027  0.635781489  0.704782017
     0.134667000  0.115332001  0.801256025
     0.134666989  0.615331988  0.801256025
     0.634666987  0.115332001  0.801256025
     0.634666976  0.615331988  0.801256025
     0.365333002  0.384667985  0.801256025
     0.365332990  0.884667959  0.801256025
     0.865332949  0.384667985  0.801256025
     0.865332938  0.884667959  0.801256025
     0.115328503  0.365337004  0.801264999
     0.115328505  0.865336978  0.801264999
     0.615328503  0.365337004  0.801264999
     0.615328492  0.865336978  0.801264999
     0.384671513  0.134662996  0.801264999
     0.384671501  0.634662970  0.801264999
     0.884671486  0.134662996  0.801264999
     0.884671528  0.634662970  0.801264999
     0.996888873  0.003325875  0.605078298
     0.005968907  0.507068028  0.604333582
     0.503378503  0.006299972  0.605046126
     0.498125650  0.503012531  0.604625327
     0.249870051  0.253124172  0.604932639
     0.246593478  0.754980170  0.603657848
     0.746947509  0.257883991  0.605678455
     0.738992356  0.756634269  0.601845779
     0.000000500  0.000000500  0.704828963
     0.000000500  0.500000475  0.704828963
     0.500000475  0.000000500  0.704828963
     0.500000464  0.500000475  0.704828963
     0.249999994  0.249999472  0.704824995
     0.250000010  0.749999498  0.704824995
     0.749999994  0.249999472  0.704824995
     0.749999983  0.749999498  0.704824995
     0.000000000  0.000000000  0.807317968
     0.000000000  0.500000000  0.807317968
     0.500000000  0.000000000  0.807317968
     0.499999989  0.500000000  0.807317968
     0.249999994  0.250000000  0.807317968
     0.250000010  0.749999974  0.807317968
     0.749999994  0.250000000  0.807317968
     0.749999983  0.749999974  0.807317968

  ion indices of the primitive-cell ions
   primitive index   ion index
                 1           1
                 2           2
                 3           3
                 4           4
                 5           5
                 6           6
                 7           7
                 8           8
                 9           9
                10          10
                11          11
                12          12
                13          13
                14          14
                15          15
                16          16
                17          17
                18          18
                19          19
                20          20
                21          21
                22          22
                23          23
                24          24
                25          25
                26          26
                27          27
                28          28
                29          29
                30          30
                31          31
                32          32
                33          33
                34          34
                35          35
                36          36
                37          37
                38          38
                39          39
                40          40
                41          41
                42          42
                43          43
                44          44
                45          45
                46          46
                47          47
                48          48
                49          49
                50          50
                51          51
                52          52
                53          53
                54          54
                55          55
                56          56
                57          57
                58          58
                59          59
                60          60
                61          61
                62          62
                63          63
                64          64
                65          65
                66          66
                67          67
                68          68
                69          69
                70          70
                71          71
                72          72
                73          73
                74          74
                75          75
                76          76
                77          77
                78          78
                79          79
                80          80
                81          81
                82          82
                83          83
                84          84
                85          85
                86          86
                87          87
                88          88
                89          89
                90          90
                91          91
                92          92
                93          93
                94          94
                95          95
                96          96
                97          97
                98          98
                99          99
               100         100
               101         101
               102         102
               103         103
               104         104
               105         105
               106         106
               107         107
               108         108
               109         109
               110         110
               111         111
               112         112
               113         113
               114         114
               115         115
               116         116
               117         117
               118         118
               119         119
               120         120
               121         121
               122         122
               123         123
               124         124
               125         125
               126         126
               127         127
               128         128
               129         129
               130         130
               131         131
               132         132
               133         133
               134         134
               135         135
               136         136
               137         137
               138         138
               139         139
               140         140
               141         141
               142         142
               143         143
               144         144
               145         145
               146         146
               147         147
               148         148
               149         149
               150         150
               151         151
               152         152
               153         153
               154         154
               155         155
               156         156
               157         157
               158         158
               159         159
               160         160
               161         161
               162         162
               163         163
               164         164
               165         165
               166         166
               167         167
               168         168
               169         169
               170         170
               171         171
               172         172
               173         173
               174         174
               175         175
               176         176
               177         177
               178         178
               179         179
               180         180
               181         181
               182         182
               183         183
               184         184
               185         185
               186         186
               187         187
               188         188
               189         189
               190         190
               191         191
               192         192
               193         193
               194         194
               195         195
               196         196
               197         197
               198         198
               199         199
               200         200
               201         201
               202         202
               203         203
               204         204
               205         205
               206         206
               207         207
               208         208
               209         209
               210         210
               211         211
               212         212
               213         213
               214         214
               215         215
               216         216
               217         217
               218         218
               219         219
               220         220
               221         221
               222         222
               223         223
               224         224
               225         225
               226         226
               227         227
               228         228
               229         229
               230         230
               231         231
               232         232
               233         233
               234         234
               235         235
               236         236
               237         237
               238         238
               239         239
               240         240
               241         241
               242         242
               243         243
               244         244
               245         245
               246         246
               247         247
               248         248
               249         249
               250         250
               251         251
               252         252
               253         253
               254         254
               255         255
               256         256
               257         257
               258         258
               259         259
               260         260
               261         261
               262         262
               263         263
               264         264
               265         265
               266         266
               267         267
               268         268
               269         269
               270         270
               271         271
               272         272
               273         273
               274         274
               275         275
               276         276
               277         277
               278         278
               279         279
               280         280
               281         281
               282         282
               283         283
               284         284
               285         285
               286         286
               287         287
               288         288
               289         289
               290         290
               291         291
               292         292
               293         293
               294         294
               295         295
               296         296
               297         297
               298         298
               299         299
               300         300
               301         301
               302         302
               303         303
               304         304
               305         305
               306         306
               307         307
               308         308
               309         309
               310         310
               311         311
               312         312
               313         313
               314         314
               315         315
               316         316
               317         317
               318         318
               319         319
               320         320
               321         321
               322         322
               323         323
               324         324
               325         325

----------------------------------------------------------------------------------------

 
 
 KPOINTS: Automatic Mesh                          

Automatic generation of k-mesh.
 Grid dimensions read from file:
 generate k-points for:    3    3    1

 Generating k-lattice:

  Cartesian coordinates                     Fractional coordinates (reciprocal lattice)
     0.018456177  0.000005026 -0.000000000     0.333333333  0.000000000  0.000000000
     0.000000000  0.018454135  0.000000000     0.000000000  0.333333333  0.000000000
     0.000000000 -0.000000000  0.016003201     0.000000000  0.000000000  1.000000000

  Length of vectors
     0.018456178  0.018454135  0.016003201

  Shift w.r.t. Gamma in fractional coordinates (k-lattice)
     0.000000000  0.000000000  0.000000000

 
 Subroutine IBZKPT returns following result:
 ===========================================
 
 Found      5 irreducible k-points:
 
 Following reciprocal coordinates:
            Coordinates               Weight
  0.000000  0.000000  0.000000      1.000000
  0.333333  0.000000  0.000000      2.000000
  0.000000  0.333333  0.000000      2.000000
  0.333333  0.333333  0.000000      2.000000
 -0.333333  0.333333  0.000000      2.000000
 
 Following cartesian coordinates:
            Coordinates               Weight
  0.000000  0.000000  0.000000      1.000000
  0.018456  0.000005  0.000000      2.000000
  0.000000  0.018454  0.000000      2.000000
  0.018456  0.018459  0.000000      2.000000
 -0.018456  0.018449  0.000000      2.000000
 


--------------------------------------------------------------------------------------------------------




 Dimension of arrays:
   k-points           NKPTS =      5   k-points in BZ     NKDIM =      5   number of bands    NBANDS=    732
   number of dos      NEDOS =    301   number of ions     NIONS =    325
   non local maximal  LDIM  =      5   non local SUM 2l+1 LMDIM =     13
   total plane-waves  NPLWV = ******
   max r-space proj   IRMAX =   3336   max aug-charges    IRDMAX=  19845
   dimension x,y,z NGX =   100 NGY =  100 NGZ =  350
   dimension x,y,z NGXF=   200 NGYF=  200 NGZF=  700
   support grid    NGXF=   200 NGYF=  200 NGZF=  700
   ions per type =             143  39  47  72  24
   NGX,Y,Z   is equivalent  to a cutoff of   9.20,  9.20,  9.31 a.u.
   NGXF,Y,Z  is equivalent  to a cutoff of  18.41, 18.41, 18.62 a.u.

 SYSTEM =  PSC                                     
 POSCAR =   H  C  N  I Pb                          

 Startparameter for this run:
   NWRITE =      2    write-flag & timer
   PREC   = normal    normal or accurate (medium, high low for compatibility)
   ISTART =      0    job   : 0-new  1-cont  2-samecut
   ICHARG =      1    charge: 1-file 2-atom 10-const
   ISPIN  =      1    spin polarized calculation?
   LNONCOLLINEAR =      F non collinear calculations
   LSORBIT =      F    spin-orbit coupling
   INIWAV =      1    electr: 0-lowe 1-rand  2-diag
   LASPH  =      F    aspherical Exc in radial PAW
 Electronic Relaxation 1
   ENCUT  =  500.0 eV  36.75 Ry    6.06 a.u.  32.93 32.93113.93*2*pi/ulx,y,z
   ENINI  =  500.0     initial cutoff
   ENAUG  =  644.9 eV  augmentation charge cutoff
   NELM   =    600;   NELMIN=  2; NELMDL=  0     # of ELM steps 
   EDIFF  = 0.1E-03   stopping-criterion for ELM
   LREAL  =      T    real-space projection
   NLSPLINE    = F    spline interpolate recip. space projectors
   LCOMPAT=      F    compatible to vasp.4.4
   GGA_COMPAT  = F    GGA compatible to vasp.4.4-vasp.4.6
   LMAXPAW     = -100 max onsite density
   LMAXMIX     =    2 max onsite mixed and CHGCAR
   VOSKOWN=      0    Vosko Wilk Nusair interpolation
   ROPT   =   -0.00050  -0.00050  -0.00050  -0.00050
   ROPT   =   -0.00050
 Ionic relaxation
   EDIFFG = 0.1E-02   stopping-criterion for IOM
   NSW    =      0    number of steps for IOM
   NBLOCK =      1;   KBLOCK =      1    inner block; outer block 
   IBRION =     -1    ionic relax: 0-MD 1-quasi-New 2-CG
   NFREE  =      0    steps in history (QN), initial steepest desc. (CG)
   ISIF   =      2    stress and relaxation
   IWAVPR =     10    prediction:  0-non 1-charg 2-wave 3-comb
   ISYM   =      0    0-nonsym 1-usesym 2-fastsym
   LCORR  =      T    Harris-Foulkes like correction to forces

   POTIM  = 0.5000    time-step for ionic-motion
   TEIN   =    0.0    initial temperature
   TEBEG  =    0.0;   TEEND  =   0.0 temperature during run
   SMASS  =  -3.00    Nose mass-parameter (am)
   estimated Nose-frequenzy (Omega)   =  0.10E-29 period in steps = 0.13E+47 mass=  -0.745E-26a.u.
   SCALEE = 1.0000    scale energy and forces
   NPACO  =    256;   APACO  = 16.0  distance and # of slots for P.C.
   PSTRESS=    0.0 pullay stress

  Mass of Ions in am
   POMASS =   1.00 12.01 14.00126.90207.20
  Ionic Valenz
   ZVAL   =   1.00  4.00  5.00  7.00  4.00
  Atomic Wigner-Seitz radii
   RWIGS  =  -1.00 -1.00 -1.00 -1.00 -1.00
  virtual crystal weights 
   VCA    =   1.00  1.00  1.00  1.00  1.00
   NELECT =    1134.0000    total number of electrons
   NUPDOWN=      -1.0000    fix difference up-down

 DOS related values:
   EMIN   =  10.00;   EMAX   =-10.00  energy-range for DOS
   EFERMI =   0.00
   ISMEAR =     0;   SIGMA  =   0.05  broadening in eV -4-tet -1-fermi 0-gaus

 Electronic relaxation 2 (details)
   IALGO  =     38    algorithm
   LDIAG  =      T    sub-space diagonalisation (order eigenvalues)
   LSUBROT=      F    optimize rotation matrix (better conditioning)
   TURBO    =      0    0=normal 1=particle mesh
   IRESTART =      0    0=no restart 2=restart with 2 vectors
   NREBOOT  =      0    no. of reboots
   NMIN     =      0    reboot dimension
   EREF     =   0.00    reference energy to select bands
   IMIX   =      4    mixing-type and parameters
     AMIX     =   0.40;   BMIX     =  0.01
     AMIX_MAG =   1.60;   BMIX_MAG =  0.01
     AMIN     =   0.01
     WC   =   100.;   INIMIX=   1;  MIXPRE=   1;  MAXMIX= -45

 Intra band minimization:
   WEIMIN = 0.0000     energy-eigenvalue tresh-hold
   EBREAK =  0.34E-07  absolut break condition
   DEPER  =   0.30     relativ break condition  

   TIME   =   0.40     timestep for ELM

  volume/ion in A,a.u.               =      62.72       423.28
  Fermi-wavevector in a.u.,A,eV,Ry     =   0.624944  1.180972  5.313816  0.390554
  Thomas-Fermi vector in A             =   1.685677
 
 Write flags
   LWAVE        =      F    write WAVECAR
   LDOWNSAMPLE  =      F    k-point downsampling of WAVECAR
   LCHARG       =      T    write CHGCAR
   LVTOT        =      T    write LOCPOT, total local potential
   LVHAR        =      F    write LOCPOT, Hartree potential only
   LELF         =      F    write electronic localiz. function (ELF)
   LORBIT       =      0    0 simple, 1 ext, 2 COOP (PROOUT), +10 PAW based schemes


 Dipole corrections
   LMONO  =      F    monopole corrections only (constant potential shift)
   LDIPOL =      T    correct potential (dipole corrections)
   IDIPOL =      3    1-x, 2-y, 3-z, 4-all directions 
   EPSILON=  1.0000000 bulk dielectric constant

 Exchange correlation treatment:
   GGA     =    --    GGA type
   LEXCH   =     8    internal setting for exchange type
   VOSKOWN=      0    Vosko Wilk Nusair interpolation
   LHFCALC =     F    Hartree Fock is set to
   LHFONE  =     F    Hartree Fock one center treatment
   AEXX    =    0.0000 exact exchange contribution

 Linear response parameters
   LEPSILON=     F    determine dielectric tensor
   LRPA    =     F    only Hartree local field effects (RPA)
   LNABLA  =     F    use nabla operator in PAW spheres
   LVEL    =     F    velocity operator in full k-point grid
   LINTERFAST=   F  fast interpolation
   KINTER  =     0    interpolate to denser k-point grid
   CSHIFT  =0.1000    complex shift for real part using Kramers Kronig
   OMEGAMAX=  -1.0    maximum frequency
   DEG_THRESHOLD= 0.2000000E-02 threshold for treating states as degnerate
   RTIME   =   -0.100 relaxation time in fs
  (WPLASMAI=    0.000 imaginary part of plasma frequency in eV, 0.658/RTIME)
   DFIELD  = 0.0000000 0.0000000 0.0000000 field for delta impulse in time
 
 Orbital magnetization related:
   ORBITALMAG=     F  switch on orbital magnetization
   LCHIMAG   =     F  perturbation theory with respect to B field
   DQ        =  0.001000  dq finite difference perturbation B field
   LLRAUG    =     F  two centre corrections for induced B field



--------------------------------------------------------------------------------------------------------


 Static calculation
 charge density and potential will be updated during run
 non-spin polarized calculation
 Variant of blocked Davidson
 Davidson routine will perform the subspace rotation
 perform sub-space diagonalisation
    after iterative eigenvector-optimisation
 modified Broyden-mixing scheme, WC =      100.0
 initial mixing is a Kerker type mixing with AMIX =  0.4000 and BMIX =      0.0100
 Hartree-type preconditioning will be used
 using additional bands           165
 real space projection scheme for non local part
[...]
     13.54561      0.00000     45.35368         0.003706     -0.006185      0.012327
     13.54315      9.03140     45.35368        -0.004234      0.008721     -0.002418
     12.97356      7.91230     33.86288        -0.030197      0.132732     -0.097533
     13.27514      8.95786     32.44962         0.196999     -0.233636      0.304919
     11.83467     10.00581     35.00241         0.027510     -0.227973      0.148800
     12.79609     11.48640     34.86441        -0.060388      0.190108      0.158506
     15.30118      9.06999     35.72227        -0.219808      0.127128     -0.114317
     14.16886     10.32419     36.31559         0.081419     -0.090216     -0.089271
     15.65249     10.12351     33.18082         0.067044     -0.108175      0.068452
     14.33923     11.28877     32.91795        -0.042214      0.044180     -0.326987
     15.65009      8.37260     32.42223         0.117530      0.043329     -0.011735
     15.61124      7.64281     34.02195        -0.086129      0.079199      0.054265
     15.74040      5.89359     32.42233        -0.111517      0.066802     -0.072473
     14.15320      5.82362     33.16344        -0.093249     -0.096845     -0.069838
     11.52480      9.94898     32.52605        -0.122746     -0.116847     -0.086774
     12.44177     11.47495     32.37050         0.072116      0.039662     -0.040943
     10.94816     11.42003     33.28621        -0.157706      0.089031      0.049277
     13.58619      8.23112     37.37040         0.058216      0.028129      0.093174
     13.53999      7.33701     35.86197        -0.009376      0.028623     -0.017886
     12.26867      8.52248     36.25170         0.250439      0.096966     -0.104424
     14.84745     12.41634     35.06491        -0.077757     -0.011515      0.068048
     16.23593     12.30095     34.00402         0.102657      0.105197     -0.038049
     16.15024     11.21393     35.38389         0.067185     -0.031797      0.131522
     14.76427      6.95711     30.36074         0.339085      0.253004     -0.259958
     14.14385      5.36966     30.74122        -0.070199     -0.299949     -0.235529
     11.95922      5.73097     32.58965         0.017275     -0.033639     -0.020108
     13.16185      8.32829     29.36316         0.380353      0.080386     -0.220924
      9.69302      6.76369     32.56831         0.121289      0.016306     -0.108667
     10.89730      9.34122     29.32271         0.040486      0.120872     -0.168962
      9.17343      8.54094     30.93937        -0.729127      0.403816     -0.042108
     17.91940      4.39943     34.73413        -0.367894     -0.027705      0.302348
      0.64411     13.92425     35.15821        -0.152899      0.195119      0.118328
      8.52642      4.14007     34.85133         0.117107     -0.067860      0.051141
      8.99953     13.67054     34.79714        -0.263200      0.762567      0.312195
      4.28721      9.45317     34.94592         0.017250     -0.194270      0.053338
      4.57049     17.85474     34.70227         0.368170      0.014719      0.103418
     13.81783     17.72043     35.21805        -0.259430      0.025452     -0.078310
      0.13883      4.45473     40.60814        -0.635537      0.832070     -0.924848
      0.16942     13.76709     40.77856        -0.502733      0.803789     -0.347472
      8.97990      4.39648     40.53582        -1.026948      0.727338     -0.317762
      9.00647     13.62083     40.63159        -0.526664      0.544897     -0.038200
      4.52533      8.96356     40.60492         0.148281      0.190980      0.021301
      4.59564     18.05445     40.48165         0.970866      0.917352     -0.215016
     13.54333      9.38416     40.76767         0.670411      0.152049      0.088691
     13.51523     17.97112     40.54762         0.974714      1.130185     -0.103951
      9.02897      4.51561     46.44552         0.004886      0.008787      0.027852
      9.02651     13.54701     46.44552         0.027967     -0.013207      0.049802
     18.05937      4.51561     46.44552         0.021077     -0.002699      0.039160
     18.05691     13.54701     46.44552         0.019210     -0.001473      0.014980
      4.51521      0.00002     46.44421        -0.004882     -0.007043      0.059387
      4.51275      9.03142     46.44421        -0.004236     -0.003586      0.049172
     13.54561      0.00002     46.44421        -0.004887     -0.007998      0.039490
     13.54315      9.03142     46.44421        -0.000399      0.006075      0.024170
     12.72730      6.95813     30.98136         0.134973      0.157537     -0.187515
     11.73220      6.50900     31.85713        -0.447039      0.189289      0.088611
     12.41280      7.97217     30.05463        -0.462138     -0.106228      0.392552
     10.45232      7.08880     31.84878         0.167540     -0.005422     -0.190180
     11.13982      8.55002     30.02482        -0.520957     -0.510126      0.640185
     10.14751      8.10558     30.93169         1.209738     -0.345595     -0.140922
     13.71288      8.57120     33.38757         0.120811     -0.091475     -0.116276
     12.53011     10.55279     34.36707         0.075586     -0.020541     -0.240747
     14.24596      9.39878     35.72509        -0.241611     -0.080973     -0.173297
     14.89425     10.73415     33.67094        -0.188366     -0.066090      0.281707
     15.01810      7.79416     33.10741        -0.299564      0.062519     -0.136109
     14.76460      6.41233     32.47010         0.113305      0.455774      0.059152
     11.84796     10.85086     33.04605         0.167032     -0.036736      0.046184
     13.35141      8.32403     36.30669        -0.122438     -0.107262      0.047304
     15.55087     11.70664     34.61784         0.077635      0.002651     -0.058790
     14.13662      6.41420     31.06126        -0.228048     -0.201878      0.523605
      1.00006      4.33183     35.38087        -0.679612      0.105630     -0.003812
      0.88426     12.82161     35.82372        -0.376819      0.278646     -0.177536
      9.78138      3.85457     35.10258        -0.172077     -0.196555     -0.082379
      8.78069     12.67128     35.61852        -0.108503     -0.188736     -0.227515
      7.94142      5.25910     35.21272        -0.202613     -0.136713     -0.118514
      8.65687     14.92669     35.03692         0.365062     -0.324132     -0.642698
     16.72355      4.41894     35.29691         0.480807     -0.129151     -0.016778
     17.68455     14.73091     35.35275        -0.502020      0.018548      0.418172
      4.37407      8.22567     35.41788         0.362447      0.054795      0.050890
      3.35009      0.11766     35.02903         0.040402      0.705500      0.416666
     12.50983     17.77405     35.37470         0.299258      0.240153      0.230320
      5.65356      0.42404     35.12453        -0.580333      0.096680      0.168021
      5.13456     10.41984     35.21528         0.402656     -0.299166      0.389160
     14.65614      0.59800     35.58295        -0.569608      0.644003      0.403115
      0.99201      3.58373     41.04401         0.681518     -0.694354      0.362267
      0.89812     12.80988     41.26515         0.870481     -0.868842      0.132079
      9.96188      3.74130     41.07262         0.781836     -0.861729     -0.242972
      9.71826     12.79071     41.35259         0.031759     -0.056195     -0.216653
      3.77326      8.00022     41.08887         0.299246      0.335373     -0.175911
      3.74893     17.30274     41.12482        -0.616006     -0.627603     -0.475641
     12.70987      8.55203     41.34833         0.027991      0.056671      0.009493
     12.73119     17.13196     41.16130        -0.388927     -0.533780     -0.553692
      8.25199      5.33032     41.13607         0.251961     -0.635212     -0.969529
      8.13471     14.50289     41.10024         0.571535     -0.550779     -0.738241
     17.32173      5.11379     41.32629        -0.233297      0.208367      0.333034
     17.11263     14.22315     41.29715        -0.230986     -0.075191      0.227215
      5.46493      0.84001     41.03497        -0.539434     -0.604084     -1.012750
      5.25130      9.81510     41.31401        -0.465046     -0.524266     -0.489266
     14.26715      0.84932     41.13255        -0.598835     -0.807866     -0.822623
     14.85469      9.39401     40.96612        -1.015824      0.086756     -0.281439
      0.82731      3.68697     47.03596         0.014987     -0.020697     -0.094884
      0.82485     12.71837     47.03596         0.020152     -0.020043     -0.075349
      9.85771      3.68697     47.03596         0.025936     -0.029140     -0.082555
      9.85525     12.71837     47.03596         0.008140     -0.008388     -0.084609
      3.68432      8.20234     47.03465        -0.006880     -0.009944     -0.070974
      3.68186     17.23373     47.03465        -0.005226     -0.002662     -0.067559
     12.71472      8.20234     47.03465        -0.012437     -0.020372     -0.068065
     12.71226     17.23373     47.03465        -0.011819     -0.006278     -0.072620
      8.20068      5.34457     47.03603        -0.017924      0.013838     -0.088895
      8.19822     14.37597     47.03603        -0.027351      0.028684     -0.090787
     17.23108      5.34457     47.03603        -0.030306      0.023825     -0.107137
     17.22862     14.37597     47.03603        -0.023216      0.025399     -0.073500
      5.34365      0.82909     47.03465         0.011329      0.010675     -0.066209
      5.34119      9.86049     47.03465         0.013809      0.013459     -0.071986
     14.37405      0.82909     47.03465         0.015595      0.017083     -0.070938
     14.37159      9.86049     47.03465         0.012684      0.009947     -0.070791
     13.85250      9.78339     34.29139         0.362316      0.194073     -0.038617
      9.12836      0.33125     34.53318         0.025145     -0.027390     -0.046577
      8.71237      9.24720     34.69716        -0.000449     -0.049308     -0.067958
     17.96849      0.09884     34.48039        -0.012569      0.003457      0.013160
      0.61309      9.15342     34.63958        -0.171604     -0.020621      0.003437
      4.49158      4.48990     34.60350        -0.021255     -0.015314     -0.088946
      4.35070     13.82535     34.53954         0.040182      0.008368     -0.045589
     13.31306      3.82593     34.76485        -0.031977     -0.050628      0.033234
     12.70196     14.33578     34.46882        -0.002564     -0.040552      0.106537
      0.04938     17.98411     40.89391        -0.000430     -0.008874      0.023591
      0.28071      8.90039     40.96664         0.005589      0.006487     -0.015560
      9.07645      0.02100     40.90849        -0.007797      0.042654      0.001664
      9.08129      8.93241     40.94149         0.042546      0.004923      0.034846
      4.65435      4.43578     40.91208        -0.036201     -0.017442      0.046003
      4.53035     13.61684     40.90179        -0.020171      0.040207      0.004644
     13.50082      4.73072     40.95060        -0.029535      0.032292      0.053240
     13.53403     13.41152     40.86781        -0.035049      0.060078     -0.073027
      2.48327      2.08757     37.93583        -0.049243     -0.000495      0.008017
      2.67010     11.04708     38.16999        -0.031750     -0.062379      0.005324
     11.61185      2.03353     38.14975        -0.019752     -0.018152     -0.017521
     11.26595     11.28692     38.30249         0.080560     -0.002126     -0.244108
      6.51700      7.06058     38.05364         0.011899     -0.026273      0.021649
      6.75608     15.92086     37.85134        -0.031040      0.046016      0.103317
     15.99576      6.68990     38.25242         0.030593      0.051570     -0.117286
     15.67147     15.91322     38.09983        -0.049875     -0.020258     -0.048400
      2.12679      6.58473     38.04305         0.077378     -0.074821     -0.001507
      2.17366     15.80945     37.99101         0.038929      0.022976      0.018053
     10.68779      6.26770     37.72195        -0.018580     -0.042236      0.016027
     11.05125     15.62477     38.11690         0.066103     -0.024083      0.105770
      6.91193      2.39827     37.89485         0.060231     -0.022888      0.000299
      6.86433     11.45190     38.29619         0.020501     -0.020474     -0.013750
     16.02654      2.57146     38.32560        -0.020621     -0.096387     -0.047973
     16.43348     11.71795     38.53880        -0.159144     -0.038183     -0.433483
      0.00000      0.00000     47.17356        -0.000445      0.005981      0.366453
     -0.00246      9.03140     47.17356        -0.001890     -0.007131      0.492686
      9.03040      0.00000     47.17356         0.002414     -0.000558      0.382808
      9.02794      9.03140     47.17356        -0.000973     -0.002692      0.460139
      4.51398      4.51570     47.17425         0.000247     -0.004718      0.410620
      4.51152     13.54710     47.17425         0.005073      0.001409      0.420443
     13.54438      4.51570     47.17425         0.004974      0.002242      0.418545
     13.54192     13.54710     47.17425        -0.001340     -0.000593      0.401943
      2.45192      2.06295     44.04013         0.000757     -0.014055     -0.038575
      2.44946     11.09435     44.04013         0.037035     -0.032066      0.027565
     11.48232      2.06295     44.04013         0.045872      0.015232     -0.060985
     11.47986     11.09435     44.04013        -0.047936      0.016429      0.044740
      6.57602      6.96845     44.04013        -0.019894      0.008993     -0.034373
      6.57356     15.99985     44.04013         0.007901      0.031755     -0.014072
     15.60642      6.96845     44.04013        -0.035092      0.022078     -0.075774
     15.60396     15.99985     44.04013        -0.058415      0.055643      0.002701
      2.06108      6.57881     44.04000         0.057024     -0.058886      0.010377
      2.05862     15.61021     44.04000         0.040569      0.060125     -0.014581
     11.09148      6.57881     44.04000        -0.027275     -0.068375     -0.020242
     11.08902     15.61021     44.04000        -0.023181      0.007798     -0.015793
      6.96686      2.45259     44.04007        -0.004561     -0.041424     -0.016463
      6.96440     11.48399     44.04007         0.036716      0.026220     -0.014534
     15.99726      2.45259     44.04007        -0.001098      0.028762     -0.061762
     15.99481     11.48399     44.04007         0.054359      0.041663     -0.089056
      2.43163      2.08322     50.06849         0.005728     -0.014389      0.020756
      2.42917     11.11462     50.06849         0.016154     -0.005917      0.023908
     11.46203      2.08322     50.06849         0.008392     -0.013562      0.021271
     11.45957     11.11462     50.06849         0.013871     -0.006555      0.023229
      6.59631      6.94818     50.06849        -0.015205      0.003811      0.022910
      6.59385     15.97958     50.06849        -0.003920      0.016399      0.021858
     15.62671      6.94818     50.06849        -0.016574      0.000548      0.020411
     15.62425     15.97958     50.06849        -0.005977      0.016888      0.023916
      2.08113      6.59901     50.06905        -0.003092     -0.019225      0.022488
      2.07867     15.63041     50.06905        -0.015462     -0.002871      0.023285
     11.11153      6.59901     50.06905        -0.004465     -0.016653      0.022781
     11.10907     15.63041     50.06905        -0.013765     -0.005753      0.022386
      6.94681      2.43239     50.06905         0.014304      0.005306      0.022504
      6.94435     11.46379     50.06905         0.007845      0.012803      0.023382
     15.97721      2.43239     50.06905         0.013934      0.006504      0.021352
     15.97475     11.46379     50.06905         0.003799      0.015259      0.024078
     18.00459      0.06007     37.80983        -0.035064      0.024265      0.002181
      0.10531      9.15907     37.76329         0.023371     -0.031101      0.055591
      9.09139      0.11380     37.80782        -0.031935      0.017645     -0.060577
      8.99407      9.08581     37.78152         0.063072     -0.053257      0.030602
      4.51161      4.57213     37.80073        -0.023518      0.071320     -0.016686
      4.44996     13.63706     37.72107         0.007918     -0.003669      0.034546
     13.48920      4.65811     37.84733        -0.022839      0.009239     -0.009732
     13.34307     13.66693     37.60784         0.048341      0.030109      0.128597
      0.00001      0.00001     44.04300        -0.017677     -0.118920      0.142822
     -0.00245      9.03141     44.04300         0.079976      0.052713      0.113060
      9.03041      0.00001     44.04300        -0.020935      0.029825      0.168243
      9.02795      9.03141     44.04300         0.016344      0.045933      0.214677
      4.51397      4.51569     44.04275         0.025122      0.030254      0.149738
      4.51151     13.54709     44.04275        -0.087546      0.003826      0.094638
     13.54437      4.51569     44.04275        -0.035563     -0.034504      0.228533
     13.54191     13.54709     44.04275        -0.022303     -0.040634      0.008132
      0.00000      0.00000     50.44728         0.000854     -0.005206     -0.617307
     -0.00246      9.03140     50.44728         0.001891      0.003984     -0.650026
      9.03040      0.00000     50.44728        -0.001489     -0.002456     -0.620242
      9.02794      9.03140     50.44728        -0.000374      0.002018     -0.643730
      4.51397      4.51570     50.44728         0.000037      0.011561     -0.628980
      4.51151     13.54710     50.44728        -0.001064     -0.012669     -0.633839
     13.54437      4.51570     50.44728        -0.000839      0.011860     -0.627292
     13.54191     13.54710     50.44728         0.002879     -0.012314     -0.630259
 -----------------------------------------------------------------------------------
    total drift:                               -0.072978      0.126468      0.466143


--------------------------------------------------------------------------------------------------------



  FREE ENERGIE OF THE ION-ELECTRON SYSTEM (eV)
  ---------------------------------------------------
  free  energy   TOTEN  =     -1575.03198597 eV

  energy  without entropy=    -1575.03198597  energy(sigma->0) =    -1575.03198597
 


--------------------------------------------------------------------------------------------------------


    POTLOK:  cpu time    0.5005: real time    0.5005


--------------------------------------------------------------------------------------------------------


     LOOP+:  cpu time  305.9996: real time  306.5655
 vacuum level on the upper side and lower side of the slab         2.344         1.525
    4ORBIT:  cpu time    0.0000: real time    0.0000

 total amount of memory used by VASP MPI-rank0  8653577. kBytes
=======================================================================

   base      :      30000. kBytes
   nonlr-proj:      53615. kBytes
   fftplans  :     249280. kBytes
   grid      :     701440. kBytes
   one-center:       2636. kBytes
   wavefun   :    7616606. kBytes
 
  
  
 General timing and accounting informations for this job:
 ========================================================
  
                  Total CPU time used (sec):      521.195
                            User time (sec):      421.305
                          System time (sec):       99.890
                         Elapsed time (sec):      524.092
  
                   Maximum memory used (kb):    10314060.
                   Average memory used (kb):          N/A
  
                          Minor page faults:      3701115
                          Major page faults:           13
                 Voluntary context switches:        11112
