 vasp.6.2.1 16May21 (build Nov 15 2021 14:57:28) complex                         
 executed on             LinuxPGI date 2023.07.30  15:06:38
 running on    4 total cores
 distrk:  each k-point on    4 cores,    1 groups
 distr:  one band on NCORE=   1 cores,    4 groups


--------------------------------------------------------------------------------------------------------


 INCAR:
   SYSTEM = PSC
   ISTART = 1
   ICHARG = 1
   PREC = Normal
   ENCUT = 500
   GGA_COMPAT = F
   NELM = 600
   ISYM = 0
   LREAL = Auto
   ISMEAR = 0
   SIGMA = 0.05
   AMIN = 0.01
   BMIX = 0.01
   LVTOT = T
   LWAVE = F
   LDIPOL = T
   IDIPOL = 3
   LVDW = T
   IVDW = 12

 POTCAR:    PAW_PBE H 15Jun2001                   
 POTCAR:    PAW_PBE C 08Apr2002                   
 POTCAR:    PAW_PBE N 08Apr2002                   
 POTCAR:    PAW_PBE I 08Apr2002                   
 POTCAR:    PAW_PBE Pb 08Apr2002                  
 WARNING: For LVTOT=.TRUE., VASP.5.x writes the TOTAL local potential to the
     file LOCPOT. If you want only the Hartree contributions, use LVHAR=.TRUE.
     instead. 

 POTCAR:    PAW_PBE H 15Jun2001                   
   SHA256 =  030f79b5d3ab3cf0e668861823c8fb652ff669f3e15e46930bd03bfd63a607b6 H/POTCAR              
   COPYR  = (c) Copyright 15Jun2001 Georg Kresse                                                    
   COPYR  = This file is part of the software VASP. Any use, copying, and all other rights are regul
   COPYR  = If you do not have a valid VASP license, you may not use, copy or distribute this file. 
   VRHFIN =H: ultrasoft test                                                                        
   LEXCH  = PE                                                                                      
   EATOM  =    12.4884 eV,    0.9179 Ry                                                             
                                                                                                    
   TITEL  = PAW_PBE H 15Jun2001                                                                     
   LULTRA =        F    use ultrasoft PP ?                                                          
   IUNSCR =        0    unscreen: 0-lin 1-nonlin 2-no                                               
   RPACOR =    0.000    partial core radius                                                         
   POMASS =    1.000; ZVAL   =    1.000    mass and valenz                                          
   RCORE  =    1.100    outmost cutoff radius                                                       
   RWIGS  =    0.700; RWIGS  =    0.370    wigner-seitz radius (au A)                               
   ENMAX  =  250.000; ENMIN  =  200.000 eV                                                          
   RCLOC  =    0.701    cutoff for local pot                                                        
   LCOR   =        T    correct aug charges                                                         
   LPAW   =        T    paw PP                                                                      
   EAUG   =  400.000                                                                                
   RMAX   =    1.123    core radius for proj-oper                                                   
   RAUG   =    1.200    factor for augmentation sphere                                              
   RDEP   =    1.112    radius for radial grids                                                     
   RDEPT  =    0.926    core radius for aug-charge                                                  
                                                                                                    
   Atomic configuration                                                                             
    2 entries                                                                                       
     n  l   j            E        occ.                                                              
     1  0  0.50        -6.4927   1.0000                                                             
     2  1  0.50        -3.4015   0.0000                                                             
   Description                                                                                      
     l       E           TYP  RCUT    TYP  RCUT                                                     
     0     -6.4927494     23  1.100                                                                 
     0      6.8029130     23  1.100                                                                 
     1     -4.0817478     23  1.100                                                                 
  local pseudopotential read in
  atomic valenz-charges read in
  non local Contribution for L=            0  read in
    real space projection operators read in
  non local Contribution for L=            0  read in
    real space projection operators read in
  non local Contribution for L=            1  read in
    real space projection operators read in
    PAW grid and wavefunctions read in
 
   number of l-projection  operators is LMAX  =            3
   number of lm-projection operators is LMMAX =            5
 
 POTCAR:    PAW_PBE C 08Apr2002                   
   SHA256 =  253f7b50bb8d59471dbedb8285d89021f4a42ed1a2c5d38a03a736e69125dd95 C/POTCAR              
   COPYR  = (c) Copyright 08Apr2002 Georg Kresse                                                    
   COPYR  = This file is part of the software VASP. Any use, copying, and all other rights are regul
   COPYR  = If you do not have a valid VASP license, you may not use, copy or distribute this file. 
   VRHFIN =C: s2p2                                                                                  
   LEXCH  = PE                                                                                      
   EATOM  =   147.1560 eV,   10.8157 Ry                                                             
                                                                                                    
   TITEL  = PAW_PBE C 08Apr2002                                                                     
   LULTRA =        F    use ultrasoft PP ?                                                          
   IUNSCR =        1    unscreen: 0-lin 1-nonlin 2-no                                               
   RPACOR =    1.200    partial core radius                                                         
   POMASS =   12.011; ZVAL   =    4.000    mass and valenz                                          
   RCORE  =    1.500    outmost cutoff radius                                                       
   RWIGS  =    1.630; RWIGS  =    0.863    wigner-seitz radius (au A)                               
   ENMAX  =  400.000; ENMIN  =  300.000 eV                                                          
   ICORE  =        2    local potential                                                             
   LCOR   =        T    correct aug charges                                                         
   LPAW   =        T    paw PP                                                                      
   EAUG   =  644.873                                                                                
   DEXC   =    0.000                                                                                
   RMAX   =    1.529    core radius for proj-oper                                                   
   RAUG   =    1.300    factor for augmentation sphere                                              
   RDEP   =    1.501    radius for radial grids                                                     
   RDEPT  =    1.300    core radius for aug-charge                                                  
                                                                                                    
   Atomic configuration                                                                             
    4 entries                                                                                       
     n  l   j            E        occ.                                                              
     1  0  0.50      -273.3789   2.0000                                                             
     2  0  0.50       -13.7508   2.0000                                                             
     2  1  0.50        -5.2854   2.0000                                                             
     3  2  1.50        -5.4423   0.0000                                                             
   Description                                                                                      
     l       E           TYP  RCUT    TYP  RCUT                                                     
     0    -13.7508458     23  1.200                                                                 
     0     -8.2022199     23  1.200                                                                 
     1     -5.2854383     23  1.500                                                                 
     1     34.0145650     23  1.500                                                                 
     2     -5.4423304      7  1.500                                                                 
  local pseudopotential read in
  partial core-charges read in
  partial kinetic energy density read in
  atomic valenz-charges read in
  non local Contribution for L=            0  read in
    real space projection operators read in
  non local Contribution for L=            0  read in
    real space projection operators read in
  non local Contribution for L=            1  read in
    real space projection operators read in
  non local Contribution for L=            1  read in
    real space projection operators read in
    PAW grid and wavefunctions read in
 
   number of l-projection  operators is LMAX  =            4
   number of lm-projection operators is LMMAX =            8
 
 POTCAR:    PAW_PBE N 08Apr2002                   
   SHA256 =  e053789ff3a61a86a1b75d8a110fcc91f86041011e7b0817c7c99e4e8a6349d7 N/POTCAR              
   COPYR  = (c) Copyright 08Apr2002 Georg Kresse                                                    
   COPYR  = This file is part of the software VASP. Any use, copying, and all other rights are regul
   COPYR  = If you do not have a valid VASP license, you may not use, copy or distribute this file. 
   VRHFIN =N: s2p3                                                                                  
   LEXCH  = PE                                                                                      
   EATOM  =   264.5486 eV,   19.4438 Ry                                                             
                                                                                                    
   TITEL  = PAW_PBE N 08Apr2002                                                                     
   LULTRA =        F    use ultrasoft PP ?                                                          
   IUNSCR =        1    unscreen: 0-lin 1-nonlin 2-no                                               
   RPACOR =    1.200    partial core radius                                                         
   POMASS =   14.001; ZVAL   =    5.000    mass and valenz                                          
   RCORE  =    1.500    outmost cutoff radius                                                       
   RWIGS  =    1.400; RWIGS  =    0.741    wigner-seitz radius (au A)                               
   ENMAX  =  400.000; ENMIN  =  300.000 eV                                                          
   ICORE  =        2    local potential                                                             
   LCOR   =        T    correct aug charges                                                         
   LPAW   =        T    paw PP                                                                      
   EAUG   =  627.112                                                                                
   DEXC   =    0.000                                                                                
   RMAX   =    1.529    core radius for proj-oper                                                   
   RAUG   =    1.300    factor for augmentation sphere                                              
   RDEP   =    1.514    radius for radial grids                                                     
   RDEPT  =    1.338    core radius for aug-charge                                                  
                                                                                                    
   Atomic configuration                                                                             
    4 entries                                                                                       
     n  l   j            E        occ.                                                              
     1  0  0.50      -384.7179   2.0000                                                             
     2  0  0.50       -18.5828   2.0000                                                             
     2  1  0.50        -7.0898   3.0000                                                             
     3  2  1.50        -6.8029   0.0000                                                             
   Description                                                                                      
     l       E           TYP  RCUT    TYP  RCUT                                                     
     0    -18.5828119     23  1.200                                                                 
     0    -13.5018863     23  1.200                                                                 
     1     -7.0897853     23  1.500                                                                 
     1      9.5240782     23  1.500                                                                 
     2     -6.8029130      7  1.500                                                                 
  local pseudopotential read in
  partial core-charges read in
  partial kinetic energy density read in
  atomic valenz-charges read in
  non local Contribution for L=            0  read in
    real space projection operators read in
  non local Contribution for L=            0  read in
    real space projection operators read in
  non local Contribution for L=            1  read in
    real space projection operators read in
  non local Contribution for L=            1  read in
    real space projection operators read in
    PAW grid and wavefunctions read in
 
   number of l-projection  operators is LMAX  =            4
   number of lm-projection operators is LMMAX =            8
 
 POTCAR:    PAW_PBE I 08Apr2002                   
   SHA256 =  e40f3f59b681c1fc3e3091736183c4589116986673d2b852a5012aec72758799 I/POTCAR              
   COPYR  = (c) Copyright 08Apr2002 Georg Kresse                                                    
   COPYR  = This file is part of the software VASP. Any use, copying, and all other rights are regul
   COPYR  = If you do not have a valid VASP license, you may not use, copy or distribute this file. 
   VRHFIN =I : s2p5                                                                                 
   LEXCH  = PE                                                                                      
   EATOM  =   315.8678 eV,   23.2156 Ry                                                             
                                                                                                    
   TITEL  = PAW_PBE I 08Apr2002                                                                     
   LULTRA =        F    use ultrasoft PP ?                                                          
   IUNSCR =        1    unscreen: 0-lin 1-nonlin 2-no                                               
   RPACOR =    2.200    partial core radius                                                         
   POMASS =  126.904; ZVAL   =    7.000    mass and valenz                                          
   RCORE  =    2.300    outmost cutoff radius                                                       
   RWIGS  =    2.810; RWIGS  =    1.487    wigner-seitz radius (au A)                               
   ENMAX  =  175.647; ENMIN  =  131.735 eV                                                          
   ICORE  =        3    local potential                                                             
   LCOR   =        T    correct aug charges                                                         
   LPAW   =        T    paw PP                                                                      
   EAUG   =  370.139                                                                                
   DEXC   =    0.000                                                                                
   RMAX   =    2.359    core radius for proj-oper                                                   
   RAUG   =    1.300    factor for augmentation sphere                                              
   RDEP   =    2.392    radius for radial grids                                                     
   RDEPT  =    2.170    core radius for aug-charge                                                  
                                                                                                    
   Atomic configuration                                                                             
   13 entries                                                                                       
     n  l   j            E        occ.                                                              
     1  0  0.50    -32976.3739   2.0000                                                             
     2  0  0.50     -5094.5933   2.0000                                                             
     2  1  1.50     -4572.0131   6.0000                                                             
     3  0  0.50     -1028.2813   2.0000                                                             
     3  1  1.50      -859.0250   6.0000                                                             
     3  2  2.50      -605.7620  10.0000                                                             
     4  0  0.50      -180.5540   2.0000                                                             
     4  1  1.50      -127.5306   6.0000                                                             
     4  2  2.50       -50.2720  10.0000                                                             
     5  0  0.50       -17.4058   2.0000                                                             
     5  1  0.50        -7.0851   5.0000                                                             
     5  2  1.50        -7.0750   0.0000                                                             
     4  3  2.50        -7.0750   0.0000                                                             
   Description                                                                                      
     l       E           TYP  RCUT    TYP  RCUT                                                     
     0    -17.4058016     23  2.300                                                                 
     0    -18.7663842     23  2.300                                                                 
     1     -7.0850686     23  2.300                                                                 
     1     -4.2150896     23  2.300                                                                 
     2     -7.0750295     23  2.300                                                                 
     3     -1.3605826     23  2.300                                                                 
  local pseudopotential read in
  partial core-charges read in
  partial kinetic energy density read in
  atomic valenz-charges read in
  non local Contribution for L=            0  read in
    real space projection operators read in
  non local Contribution for L=            0  read in
    real space projection operators read in
  non local Contribution for L=            1  read in
    real space projection operators read in
  non local Contribution for L=            1  read in
    real space projection operators read in
  non local Contribution for L=            2  read in
    real space projection operators read in
    PAW grid and wavefunctions read in
 
   number of l-projection  operators is LMAX  =            5
   number of lm-projection operators is LMMAX =           13
 
 POTCAR:    PAW_PBE Pb 08Apr2002                  
   SHA256 =  797118a27cf1bcd06b9881c67a26cdde129e3cd1a551dd4a281f9681ce847303 Pb/POTCAR             
   COPYR  = (c) Copyright 08Apr2002 Georg Kresse                                                    
   COPYR  = This file is part of the software VASP. Any use, copying, and all other rights are regul
   COPYR  = If you do not have a valid VASP license, you may not use, copy or distribute this file. 
   VRHFIN =Pb:                                                                                      
   LEXCH  = PE                                                                                      
   EATOM  =    96.9868 eV,    7.1283 Ry                                                             
                                                                                                    
   TITEL  = PAW_PBE Pb 08Apr2002                                                                    
   LULTRA =        F    use ultrasoft PP ?                                                          
   IUNSCR =        1    unscreen: 0-lin 1-nonlin 2-no                                               
   RPACOR =    2.200    partial core radius                                                         
   POMASS =  207.200; ZVAL   =    4.000    mass and valenz                                          
   RCORE  =    3.100    outmost cutoff radius                                                       
   RWIGS  =    3.260; RWIGS  =    1.725    wigner-seitz radius (au A)                               
   ENMAX  =   97.973; ENMIN  =   73.480 eV                                                          
   ICORE  =        3    local potential                                                             
   LCOR   =        T    correct aug charges                                                         
   LPAW   =        T    paw PP                                                                      
   EAUG   =  234.873                                                                                
   DEXC   =    0.000                                                                                
   RMAX   =    3.158    core radius for proj-oper                                                   
   RAUG   =    1.300    factor for augmentation sphere                                              
   RDEP   =    3.202    radius for radial grids                                                     
   RDEPT  =    2.659    core radius for aug-charge                                                  
                                                                                                    
   Atomic configuration                                                                             
   17 entries                                                                                       
     n  l   j            E        occ.                                                              
     1  0  0.50    -88091.8466   2.0000                                                             
     2  0  0.50    -15753.4197   2.0000                                                             
     2  1  1.50    -13508.1797   6.0000                                                             
     3  0  0.50     -3781.7194   2.0000                                                             
     3  1  1.50     -3138.2529   6.0000                                                             
     3  2  2.50     -2483.2977  10.0000                                                             
     4  0  0.50      -856.2895   2.0000                                                             
     4  1  1.50      -645.4943   6.0000                                                             
     4  2  2.50      -401.8768  10.0000                                                             
     4  3  3.50      -132.9059  14.0000                                                             
     5  0  0.50      -144.0950   2.0000                                                             
     5  1  1.50       -85.7879   6.0000                                                             
     5  2  2.50       -21.1769  10.0000                                                             
     6  0  0.50       -12.0372   2.0000                                                             
     6  1  1.50        -3.4971   2.0000                                                             
     6  2  2.50        -1.3606   0.0000                                                             
     5  3  2.50        -2.7212   0.0000                                                             
   Description                                                                                      
     l       E           TYP  RCUT    TYP  RCUT                                                     
     0    -12.0371566     23  3.100                                                                 
     0    -13.3977392     23  3.100                                                                 
     1     -3.4971341     23  3.100                                                                 
     1     -5.4423304     23  3.100                                                                 
     2     -1.3605826     23  3.100                                                                 
     3     -1.3605826     23  3.100                                                                 
  local pseudopotential read in
  partial core-charges read in
  partial kinetic energy density read in
  atomic valenz-charges read in
  non local Contribution for L=            0  read in
    real space projection operators read in
  non local Contribution for L=            0  read in
    real space projection operators read in
  non local Contribution for L=            1  read in
    real space projection operators read in
  non local Contribution for L=            1  read in
    real space projection operators read in
  non local Contribution for L=            2  read in
    real space projection operators read in
    PAW grid and wavefunctions read in
 
   number of l-projection  operators is LMAX  =            5
   number of lm-projection operators is LMMAX =           13
 
 Optimization of the real space projectors (new method)

 maximal supplied QI-value         = 34.20
 optimisation between [QCUT,QGAM] = [ 11.29, 22.57] = [ 35.68,142.71] Ry 
 Optimized for a Real-space Cutoff    1.16 Angstroem

   l    n(q)    QCUT    max X(q) W(low)/X(q) W(high)/X(q)  e(spline) 
   0      8    11.287    19.460    0.40E-03    0.73E-03    0.16E-06
   0      8    11.287    12.209    0.38E-03    0.70E-03    0.15E-06
   1      7    11.287     4.655    0.22E-03    0.25E-04    0.22E-06
 Optimization of the real space projectors (new method)

 maximal supplied QI-value         = 25.13
 optimisation between [QCUT,QGAM] = [ 11.31, 22.87] = [ 35.82,146.48] Ry 
 Optimized for a Real-space Cutoff    1.00 Angstroem

   l    n(q)    QCUT    max X(q) W(low)/X(q) W(high)/X(q)  e(spline) 
   0      7    11.310   115.676    0.43E-03    0.13E-02    0.19E-06
   0      7    11.310    87.132    0.43E-03    0.13E-02    0.18E-06
   1      6    11.310     4.429    0.42E-03    0.74E-03    0.11E-06
   1      6    11.310     2.733    0.34E-03    0.55E-03    0.92E-07
 Optimization of the real space projectors (new method)

 maximal supplied QI-value         = 25.13
 optimisation between [QCUT,QGAM] = [ 11.31, 22.87] = [ 35.82,146.48] Ry 
 Optimized for a Real-space Cutoff    1.27 Angstroem

   l    n(q)    QCUT    max X(q) W(low)/X(q) W(high)/X(q)  e(spline) 
   0      9    11.310    79.467    0.75E-04    0.16E-03    0.36E-06
   0      9    11.310    66.151    0.74E-04    0.16E-03    0.36E-06
   1      8    11.310    17.416    0.35E-03    0.12E-03    0.95E-06
   1      8    11.310    12.382    0.37E-03    0.13E-03    0.98E-06
 Optimization of the real space projectors (new method)

 maximal supplied QI-value         = 16.25
 optimisation between [QCUT,QGAM] = [ 11.38, 22.75] = [ 36.24,144.96] Ry 
 Optimized for a Real-space Cutoff    1.31 Angstroem

   l    n(q)    QCUT    max X(q) W(low)/X(q) W(high)/X(q)  e(spline) 
   0      9    11.376   194.483    0.24E-03    0.23E-03    0.67E-07
   0      9    11.376   190.334    0.23E-03    0.22E-03    0.65E-07
   1      8    11.376   116.687    0.25E-03    0.63E-04    0.16E-06
   1      8    11.376    88.696    0.25E-03    0.61E-04    0.16E-06
   2      8    11.376     4.877    0.17E-03    0.14E-03    0.29E-07
 Optimization of the real space projectors (new method)

 maximal supplied QI-value         = 12.09
 optimisation between [QCUT,QGAM] = [ 11.37, 22.86] = [ 36.19,146.31] Ry 
 Optimized for a Real-space Cutoff    1.66 Angstroem

   l    n(q)    QCUT    max X(q) W(low)/X(q) W(high)/X(q)  e(spline) 
   0     11    11.369   135.111    0.12E-03    0.69E-04    0.19E-05
   0     11    11.369   146.850    0.11E-03    0.65E-04    0.18E-05
   1     11    11.369   148.016    0.17E-03    0.32E-03    0.89E-06
   1     11    11.369   122.989    0.17E-03    0.32E-03    0.91E-06
   2     10    11.369     8.916    0.12E-03    0.45E-04    0.33E-06
  PAW_PBE H 15Jun2001                   :
 energy of atom  1       EATOM=  -12.4884
 kinetic energy error for atom=    0.0020 (will be added to EATOM!!)
  PAW_PBE C 08Apr2002                   :
 energy of atom  2       EATOM= -147.1560
 kinetic energy error for atom=    0.0076 (will be added to EATOM!!)
  PAW_PBE N 08Apr2002                   :
 energy of atom  3       EATOM= -264.5486
 kinetic energy error for atom=    0.0138 (will be added to EATOM!!)
  PAW_PBE I 08Apr2002                   :
 energy of atom  4       EATOM= -315.8678
 kinetic energy error for atom=    0.0009 (will be added to EATOM!!)
  PAW_PBE Pb 08Apr2002                  :
 energy of atom  5       EATOM=  -96.9868
 kinetic energy error for atom=    0.0000 (will be added to EATOM!!)
 
 
 POSCAR:  H  C  N  I Pb
  positions in cartesian coordinates
  No initial velocities read in
 exchange correlation table for  LEXCH =        8
   RHO(1)=    0.500       N(1)  =     2000
   RHO(2)=  100.500       N(2)  =     4000
 


--------------------------------------------------------------------------------------------------------


 ion  position               nearest neighbor table
   1  0.406  0.285  0.559- 187 1.02
   2  0.418  0.697  0.570- 188 1.03
   3  0.923  0.293  0.578- 189 1.03
   4  0.924  0.813  0.573- 190 1.02
   5  0.322  0.091  0.562- 194 1.03
   6  0.327  0.568  0.567- 195 1.03
   7  0.792  0.107  0.563- 196 1.03
   8  0.108  0.241  0.561- 183 1.02
   9  0.079  0.686  0.568- 184 1.02
  10  0.580  0.185  0.565- 185 1.02
  11  0.599  0.772  0.560- 186 1.02
  12  0.380  0.018  0.555- 194 1.03
  13  0.257  0.620  0.555- 195 1.02
  14  0.872  0.056  0.556- 196 1.03
  15  0.061  0.291  0.581- 183 1.03
  16  0.992  0.693  0.581- 184 1.03
  17  0.485  0.173  0.569- 185 1.02
  18  0.554  0.702  0.574- 186 1.03
  19  0.304  0.433  0.572- 191 1.03
  20  0.190  0.062  0.568- 192 1.02
  21  0.681  0.028  0.573- 193 1.03
  22  0.457  0.366  0.553- 187 1.03
  23  0.374  0.760  0.553- 188 1.03
  24  0.883  0.245  0.557- 189 1.02
  25  0.968  0.874  0.556- 190 1.03
  26  0.226  0.398  0.559- 191 1.02
  27  0.161  0.973  0.562- 192 1.02
  28  0.689  0.934  0.567- 193 1.02
  29  0.570  0.306  0.555- 146 1.09
  30  0.488  0.817  0.545- 147 1.09
  31  0.999  0.204  0.544- 144 1.09
  32  0.068  0.796  0.550- 145 1.10
  33  0.184  0.514  0.548- 148 1.09
  34  0.280  0.934  0.553- 149 1.09
  35  0.810  0.944  0.556- 150 1.09
  36  0.456  0.302  0.673- 205 1.02
  37  0.440  0.814  0.671- 206 1.02
  38  0.955  0.284  0.676- 207 1.02
  39  0.911  0.744  0.660- 208 1.03
  40  0.295  0.042  0.675- 209 1.02
  41  0.301  0.562  0.672- 210 1.02
  42  0.798  0.053  0.675- 211 1.02
  43  0.834  0.466  0.664- 212 1.02
  44  0.090  0.170  0.647- 197 1.02
  45  0.108  0.699  0.656- 198 1.02
  46  0.576  0.167  0.646- 199 1.02
  47  0.575  0.678  0.652- 200 1.02
  48  0.185  0.412  0.652- 201 1.02
  49  0.164  0.933  0.643- 202 1.02
  50  0.634  0.485  0.656- 203 1.03
  51  0.673  0.917  0.650- 204 1.02
  52  0.063  0.188  0.673- 197 1.02
  53  0.022  0.655  0.658- 198 1.02
  54  0.549  0.194  0.672- 199 1.02
  55  0.545  0.716  0.675- 200 1.02
  56  0.212  0.451  0.676- 201 1.02
  57  0.183  0.954  0.670- 202 1.02
  58  0.699  0.429  0.669- 203 1.03
  59  0.701  0.946  0.675- 204 1.02
  60  0.432  0.338  0.648- 205 1.02
  61  0.414  0.829  0.644- 206 1.02
  62  0.924  0.317  0.651- 207 1.03
  63  0.933  0.838  0.657- 208 1.02
  64  0.342  0.064  0.652- 209 1.01
  65  0.322  0.587  0.646- 210 1.02
  66  0.822  0.082  0.649- 211 1.02
  67  0.850  0.541  0.648- 212 1.02
  68  0.006  0.249  0.632- 151 1.09
  69  0.058  0.817  0.653- 152 1.09
  70  0.506  0.256  0.629- 153 1.09
  71  0.495  0.743  0.630- 154 1.09
  72  0.262  0.999  0.630- 156 1.09
  73  0.252  0.494  0.631- 155 1.09
  74  0.746  0.000  0.632- 158 1.09
  75  0.725  0.561  0.641- 157 1.09
  76  0.449  0.301  0.769- 221 1.02
  77  0.449  0.801  0.769- 222 1.02
  78  0.949  0.301  0.769- 223 1.02
  79  0.949  0.801  0.769- 224 1.02
  80  0.301  0.051  0.769- 225 1.02
  81  0.301  0.551  0.769- 226 1.02
  82  0.801  0.051  0.769- 227 1.02
  83  0.801  0.551  0.769- 228 1.02
  84  0.079  0.171  0.743- 213 1.02
  85  0.079  0.671  0.743- 214 1.02
  86  0.579  0.171  0.743- 215 1.02
  87  0.579  0.671  0.743- 216 1.02
  88  0.171  0.421  0.743- 217 1.02
  89  0.171  0.921  0.743- 218 1.02
  90  0.671  0.421  0.743- 219 1.02
  91  0.671  0.921  0.743- 220 1.02
  92  0.051  0.199  0.769- 213 1.02
  93  0.051  0.699  0.769- 214 1.02
  94  0.551  0.199  0.769- 215 1.02
  95  0.551  0.699  0.769- 216 1.02
  96  0.199  0.449  0.769- 217 1.02
  97  0.199  0.949  0.769- 218 1.02
  98  0.699  0.449  0.769- 219 1.02
  99  0.699  0.949  0.769- 220 1.02
 100  0.421  0.329  0.743- 221 1.02
 101  0.421  0.829  0.743- 222 1.02
 102  0.921  0.329  0.743- 223 1.02
 103  0.921  0.829  0.743- 224 1.02
 104  0.329  0.079  0.743- 225 1.02
 105  0.329  0.579  0.743- 226 1.02
 106  0.829  0.079  0.743- 227 1.02
 107  0.829  0.579  0.743- 228 1.02
 108  0.000  0.250  0.726- 161 1.09
 109  0.000  0.750  0.726- 162 1.09
 110  0.500  0.250  0.726- 159 1.09
 111  0.500  0.750  0.726- 160 1.09
 112  0.250  0.000  0.726- 163 1.09
 113  0.250  0.500  0.726- 164 1.09
 114  0.750  0.000  0.726- 165 1.09
 115  0.750  0.500  0.726- 166 1.09
 116  0.801  0.507  0.513- 173 1.09
 117  0.878  0.499  0.531- 173 1.10
 118  0.757  0.618  0.532- 174 1.09
 119  0.751  0.617  0.560- 174 1.10
 120  0.686  0.437  0.548- 175 1.10
 121  0.665  0.529  0.555- 175 1.10
 122  0.794  0.419  0.565- 176 1.10
 123  0.862  0.490  0.568- 176 1.10
 124  0.860  0.373  0.537- 177 1.10
 125  0.766  0.374  0.530- 177 1.10
 126  0.790  0.384  0.493- 178 1.10
 127  0.883  0.410  0.497- 178 1.10
 128  0.895  0.613  0.533- 179 1.10
 129  0.893  0.605  0.561- 179 1.09
 130  0.858  0.686  0.549- 179 1.10
 131  0.602  0.501  0.522- 180 1.10
 132  0.684  0.475  0.509- 180 1.10
 133  0.669  0.569  0.516- 180 1.10
 134  0.702  0.494  0.586- 181 1.09
 135  0.769  0.566  0.589- 181 1.09
 136  0.784  0.477  0.600- 181 1.10
 137  0.825  0.258  0.511- 182 1.10
 138  0.851  0.275  0.484- 182 1.10
 139  0.926  0.157  0.499- 168 1.10
 140  0.977  0.385  0.515- 169 1.09
 141  0.057  0.124  0.505- 170 1.09
 142  0.107  0.351  0.521- 171 1.09
 143  0.150  0.221  0.515- 172 1.09
 144  0.996  0.239  0.558-  31 1.09 189 1.31 183 1.31
 145  0.022  0.778  0.560-  32 1.10 184 1.31 190 1.32
 146  0.519  0.275  0.558-  29 1.09 185 1.31 187 1.31
 147  0.488  0.769  0.555-  30 1.09 186 1.31 188 1.32
 148  0.238  0.509  0.556-  33 1.09 195 1.31 191 1.31
 149  0.271  0.991  0.557-  34 1.09 194 1.31 192 1.31
 150  0.781  0.994  0.561-  35 1.09 196 1.31 193 1.31
 151  0.007  0.244  0.649-  68 1.09 207 1.31 197 1.31
 152  0.022  0.770  0.656-  69 1.09 198 1.31 208 1.32
 153  0.504  0.252  0.647-  70 1.09 199 1.31 205 1.32
 154  0.494  0.753  0.648-  71 1.09 206 1.31 200 1.31
 155  0.254  0.499  0.649-  73 1.09 201 1.31 210 1.31
 156  0.252  0.999  0.647-  72 1.09 202 1.32 209 1.32
 157  0.742  0.515  0.651-  75 1.09 212 1.31 203 1.32
 158  0.747  1.000  0.649-  74 1.09 204 1.31 211 1.32
 159  0.500  0.250  0.743- 110 1.09 221 1.31 215 1.31
 160  0.500  0.750  0.743- 111 1.09 222 1.31 216 1.31
 161  1.000  0.250  0.743- 108 1.09 223 1.31 213 1.31
 162  1.000  0.750  0.743- 109 1.09 224 1.31 214 1.31
 163  0.250  0.000  0.743- 112 1.09 225 1.31 218 1.31
 164  0.250  0.500  0.743- 113 1.09 226 1.31 217 1.31
 165  0.750  0.000  0.743- 114 1.09 227 1.31 220 1.31
 166  0.750  0.500  0.743- 115 1.09 228 1.31 219 1.31
 167  0.942  0.274  0.506- 169 1.40 168 1.40 182 1.52
 168  0.966  0.201  0.504- 139 1.10 170 1.40 167 1.40
 169  0.993  0.327  0.512- 140 1.09 171 1.40 167 1.40
 170  0.040  0.181  0.507- 141 1.09 172 1.40 168 1.40
 171  0.068  0.309  0.516- 142 1.09 169 1.40 172 1.40
 172  0.092  0.236  0.513- 143 1.09 170 1.40 171 1.40
 173  0.821  0.481  0.528- 116 1.09 117 1.10 229 1.52 177 1.52
 174  0.784  0.597  0.546- 118 1.09 119 1.10 179 1.51 229 1.53
 175  0.693  0.496  0.543- 121 1.10 120 1.10 180 1.52 229 1.53
 176  0.802  0.479  0.567- 123 1.10 122 1.10 181 1.51 229 1.52
 177  0.820  0.397  0.526- 125 1.10 124 1.10 173 1.52 178 1.53
 178  0.839  0.374  0.503- 126 1.10 127 1.10 182 1.53 177 1.53
 179  0.863  0.626  0.547- 129 1.09 128 1.10 130 1.10 174 1.51
 180  0.662  0.511  0.521- 132 1.10 131 1.10 133 1.10 175 1.52
 181  0.761  0.507  0.587- 134 1.09 135 1.09 136 1.10 176 1.51
 182  0.861  0.292  0.501- 138 1.10 137 1.10 167 1.52 178 1.53
 183  0.058  0.257  0.568-   8 1.02  15 1.03 144 1.31
 184  0.030  0.713  0.570-   9 1.02  16 1.03 145 1.31
 185  0.528  0.205  0.563-  10 1.02  17 1.02 146 1.31
 186  0.550  0.745  0.563-  11 1.02  18 1.03 147 1.31
 187  0.456  0.310  0.556-   1 1.02  22 1.03 146 1.31
 188  0.423  0.738  0.559-  23 1.03   2 1.03 147 1.32
 189  0.930  0.260  0.565-  24 1.02   3 1.03 144 1.31
 190  0.964  0.821  0.562-   4 1.02  25 1.03 145 1.32
 191  0.258  0.443  0.562-  26 1.02  19 1.03 148 1.31
 192  0.203  0.010  0.563-  27 1.02  20 1.02 149 1.31
 193  0.712  0.986  0.567-  28 1.02  21 1.03 150 1.31
 194  0.327  0.037  0.557-   5 1.03  12 1.03 149 1.31
 195  0.277  0.569  0.559-  13 1.02   6 1.03 148 1.31
 196  0.817  0.057  0.560-  14 1.03   7 1.03 150 1.31
 197  0.056  0.198  0.657-  52 1.02  44 1.02 151 1.31
 198  0.051  0.704  0.656-  53 1.02  45 1.02 152 1.31
 199  0.546  0.202  0.656-  54 1.02  46 1.02 153 1.31
 200  0.540  0.713  0.659-  47 1.02  55 1.02 154 1.31
 201  0.215  0.451  0.660-  48 1.02  56 1.02 155 1.31
 202  0.196  0.960  0.654-  49 1.02  57 1.02 156 1.32
 203  0.689  0.473  0.659-  58 1.03  50 1.03 157 1.32
 204  0.705  0.951  0.659-  59 1.02  51 1.02 158 1.31
 205  0.462  0.300  0.657-  36 1.02  60 1.02 153 1.32
 206  0.446  0.801  0.655-  61 1.02  37 1.02 154 1.31
 207  0.960  0.284  0.660-  38 1.02  62 1.03 151 1.31
 208  0.950  0.784  0.657-  63 1.02  39 1.03 152 1.32
 209  0.298  0.038  0.659-  64 1.01  40 1.02 156 1.32
 210  0.295  0.553  0.657-  41 1.02  65 1.02 155 1.31
 211  0.791  0.048  0.658-  42 1.02  66 1.02 158 1.32
 212  0.813  0.506  0.654-  67 1.02  43 1.02 157 1.31
 213  0.046  0.204  0.753-  92 1.02  84 1.02 161 1.31
 214  0.046  0.704  0.753-  93 1.02  85 1.02 162 1.31
 215  0.546  0.204  0.753-  94 1.02  86 1.02 159 1.31
 216  0.546  0.704  0.753-  95 1.02  87 1.02 160 1.31
 217  0.204  0.454  0.753-  96 1.02  88 1.02 164 1.31
 218  0.204  0.954  0.753-  97 1.02  89 1.02 163 1.31
 219  0.704  0.454  0.753-  98 1.02  90 1.02 166 1.31
 220  0.704  0.954  0.753-  99 1.02  91 1.02 165 1.31
 221  0.454  0.296  0.753-  76 1.02 100 1.02 159 1.31
 222  0.454  0.796  0.753-  77 1.02 101 1.02 160 1.31
 223  0.954  0.296  0.753-  78 1.02 102 1.02 161 1.31
 224  0.954  0.796  0.753-  79 1.02 103 1.02 162 1.31
 225  0.296  0.046  0.753-  80 1.02 104 1.02 163 1.31
 226  0.296  0.546  0.753-  81 1.02 105 1.02 164 1.31
 227  0.796  0.046  0.753-  82 1.02 106 1.02 165 1.31
 228  0.796  0.546  0.753-  83 1.02 107 1.02 166 1.31
 229  0.775  0.513  0.546- 173 1.52 176 1.52 174 1.53 175 1.53
 230  0.515  0.984  0.553- 304 3.16
 231  0.475  0.510  0.553- 305 3.15
 232  0.005  0.013  0.552- 302 3.27
 233  0.029  0.484  0.554- 303 3.13
 234  0.259  0.237  0.554- 306 3.23
 235  0.229  0.764  0.551- 307 3.28
 236  0.733  0.233  0.554- 308 3.24
 237  0.737  0.794  0.554- 309 3.21
 238  0.995  0.987  0.654- 310 3.16 302 3.17
 239  0.010  0.504  0.655- 311 3.12 303 3.22
 240  0.497  0.004  0.655- 312 3.13 304 3.20
 241  0.496  0.507  0.654- 313 3.17 305 3.20
 242  0.262  0.242  0.655- 306 3.10 314 3.13
 243  0.245  0.754  0.654- 307 3.16 315 3.20
 244  0.746  0.273  0.655- 308 3.11 316 3.13
 245  0.752  0.734  0.654- 309 3.17 317 3.19
 246  0.135  0.117  0.608- 302 3.21 306 3.21
 247  0.146  0.609  0.606- 303 3.14 307 3.17
 248  0.636  0.115  0.608- 308 3.20 304 3.29
 249  0.620  0.632  0.606- 305 3.20 309 3.30
 250  0.368  0.384  0.607- 305 3.20 306 3.20
 251  0.365  0.884  0.604- 304 3.16 307 3.21
 252  0.888  0.368  0.611- 303 3.29 308 3.31
 253  0.862  0.891  0.607- 309 3.14 302 3.20
 254  0.126  0.367  0.612- 303 3.23 306 3.23
 255  0.115  0.873  0.605- 307 3.15 302 3.24
 256  0.611  0.364  0.603- 305 3.17 308 3.19
 257  0.618  0.865  0.612- 309 3.16 304 3.17
 258  0.394  0.136  0.604- 306 3.19 304 3.24
 259  0.380  0.635  0.607- 305 3.26 307 3.30
 260  0.881  0.136  0.612- 302 3.17 308 3.24
 261  0.902  0.646  0.609- 303 3.30 309 3.38
 262  0.000  0.000  0.755- 310 3.13 318 3.27
 263  0.000  0.500  0.755- 311 3.13 319 3.27
 264  0.500  0.000  0.755- 312 3.13 320 3.27
 265  0.500  0.500  0.755- 313 3.13 321 3.27
 266  0.250  0.250  0.755- 314 3.13 322 3.27
 267  0.250  0.750  0.755- 315 3.13 323 3.27
 268  0.750  0.250  0.755- 316 3.13 324 3.27
 269  0.750  0.750  0.755- 317 3.13 325 3.27
 270  0.136  0.114  0.705- 310 3.20 314 3.20
 271  0.136  0.614  0.705- 311 3.20 315 3.20
 272  0.636  0.114  0.705- 312 3.20 316 3.20
 273  0.636  0.614  0.705- 313 3.20 317 3.20
 274  0.364  0.386  0.705- 313 3.20 314 3.20
 275  0.364  0.886  0.705- 312 3.20 315 3.20
 276  0.864  0.386  0.705- 311 3.20 316 3.20
 277  0.864  0.886  0.705- 310 3.20 317 3.20
 278  0.114  0.364  0.705- 314 3.21 311 3.21
 279  0.114  0.864  0.705- 315 3.21 310 3.21
 280  0.614  0.364  0.705- 316 3.21 313 3.21
 281  0.614  0.864  0.705- 317 3.21 312 3.21
 282  0.386  0.136  0.705- 314 3.21 312 3.21
 283  0.386  0.636  0.705- 315 3.21 313 3.21
 284  0.886  0.136  0.705- 316 3.21 310 3.21
 285  0.886  0.636  0.705- 317 3.21 311 3.21
 286  0.135  0.115  0.801- 318 3.22 322 3.22
 287  0.135  0.615  0.801- 319 3.22 323 3.22
 288  0.635  0.115  0.801- 320 3.22 324 3.22
 289  0.635  0.615  0.801- 321 3.22 325 3.22
 290  0.365  0.385  0.801- 321 3.22 322 3.22
 291  0.365  0.885  0.801- 320 3.22 323 3.22
 292  0.865  0.385  0.801- 319 3.22 324 3.22
 293  0.865  0.885  0.801- 318 3.22 325 3.22
 294  0.115  0.365  0.801- 319 3.23 322 3.23
 295  0.115  0.865  0.801- 318 3.23 323 3.23
 296  0.615  0.365  0.801- 321 3.23 324 3.23
 297  0.615  0.865  0.801- 320 3.23 325 3.23
 298  0.385  0.135  0.801- 320 3.23 322 3.23
 299  0.385  0.635  0.801- 321 3.23 323 3.23
 300  0.885  0.135  0.801- 318 3.23 324 3.23
 301  0.885  0.635  0.801- 319 3.23 325 3.23
 302  0.996  0.007  0.604- 260 3.17 238 3.17 253 3.20 246 3.21 255 3.24 232 3.27
 303  0.011  0.501  0.603- 233 3.13 247 3.14 239 3.22 254 3.23 252 3.29 261 3.30
 304  0.502  0.993  0.604- 251 3.16 230 3.16 257 3.17 240 3.20 258 3.24 248 3.29
 305  0.500  0.501  0.603- 231 3.15 256 3.17 250 3.20 249 3.20 241 3.20 259 3.26
 306  0.256  0.246  0.605- 242 3.10 258 3.19 250 3.20 246 3.21 234 3.23 254 3.23
 307  0.243  0.755  0.603- 255 3.15 243 3.16 247 3.17 251 3.21 235 3.28 259 3.30
 308  0.747  0.253  0.606- 244 3.11 256 3.19 248 3.20 236 3.24 260 3.24 252 3.31
 309  0.752  0.757  0.604- 253 3.14 257 3.16 245 3.17 237 3.21 249 3.30 261 3.38
 310  0.000  0.000  0.705- 262 3.13 238 3.16 270 3.20 277 3.20 279 3.21 284 3.21
 311  0.000  0.500  0.705- 239 3.12 263 3.13 271 3.20 276 3.20 278 3.21 285 3.21
 312  0.500  0.000  0.705- 240 3.13 264 3.13 272 3.20 275 3.20 281 3.21 282 3.21
 313  0.500  0.500  0.705- 265 3.13 241 3.17 273 3.20 274 3.20 280 3.21 283 3.21
 314  0.250  0.250  0.705- 242 3.13 266 3.13 270 3.20 274 3.20 282 3.21 278 3.21
 315  0.250  0.750  0.705- 267 3.13 243 3.20 271 3.20 275 3.20 283 3.21 279 3.21
 316  0.750  0.250  0.705- 268 3.13 244 3.13 272 3.20 276 3.20 284 3.21 280 3.21
 317  0.750  0.750  0.705- 269 3.13 245 3.19 273 3.20 277 3.20 285 3.21 281 3.21
 318  0.000  0.000  0.807- 286 3.22 293 3.22 300 3.23 295 3.23 262 3.27
 319  0.000  0.500  0.807- 287 3.22 292 3.22 301 3.23 294 3.23 263 3.27
 320  0.500  0.000  0.807- 288 3.22 291 3.22 298 3.23 297 3.23 264 3.27
 321  0.500  0.500  0.807- 289 3.22 290 3.22 299 3.23 296 3.23 265 3.27
 322  0.250  0.250  0.807- 290 3.22 286 3.22 294 3.23 298 3.23 266 3.27
 323  0.250  0.750  0.807- 291 3.22 287 3.22 299 3.23 295 3.23 267 3.27
 324  0.750  0.250  0.807- 292 3.22 288 3.22 296 3.23 300 3.23 268 3.27
 325  0.750  0.750  0.807- 293 3.22 289 3.22 297 3.23 301 3.23 269 3.27
 

IMPORTANT INFORMATION: All symmetrisations will be switched off!
NOSYMM: (Re-)initialisation of all symmetry stuff for point group C_1.


----------------------------------------------------------------------------------------

                                     Primitive cell                                     

  volume of cell :   20385.2105

  direct lattice vectors                    reciprocal lattice vectors
    18.060800552  0.000000000  0.000000000     0.055368531  0.000015077 -0.000000000
    -0.004918649 18.062799454  0.000000000     0.000000000  0.055362404  0.000000000
     0.000000000  0.000000000 62.487499237     0.000000000 -0.000000000  0.016003201

  length of vectors
    18.060800552 18.062800123 62.487499237     0.055368533  0.055362404  0.016003201

  position of ions in fractional coordinates (direct lattice)
     0.406015690  0.285049306  0.558930824
     0.417533590  0.697433525  0.570497896
     0.923221375  0.292584700  0.578492048
     0.923519703  0.812553636  0.572961157
     0.321772621  0.090962364  0.562076350
     0.326714777  0.568057295  0.566866981
     0.792320724  0.106935847  0.563395462
     0.107667487  0.240813332  0.561496278
     0.079107986  0.685725581  0.568424971
     0.580009861  0.185068989  0.564899669
     0.599079425  0.772307901  0.559786097
     0.380296715  0.018339708  0.554580283
     0.256809207  0.619978714  0.554762143
     0.872022130  0.056128083  0.556212323
     0.061134906  0.290893537  0.581086073
     0.992254075  0.693491648  0.580516440
     0.485476998  0.172876270  0.569118286
     0.553873573  0.702131623  0.573565709
     0.303760738  0.433326322  0.571568239
     0.189637554  0.062071395  0.568182979
     0.680693801  0.028160321  0.573414067
     0.456790902  0.366031162  0.553498463
     0.374303193  0.759955139  0.553433875
     0.882997365  0.244652622  0.557092199
     0.967602161  0.874010531  0.555758925
     0.225577408  0.397660338  0.559483791
     0.160602770  0.973310576  0.562071589
     0.689192917  0.934378382  0.566808132
     0.569538938  0.306325540  0.554812752
     0.488294261  0.817494181  0.544768323
     0.998739141  0.204301648  0.544289407
     0.067935444  0.796055832  0.549870662
     0.184227574  0.514052214  0.547991746
     0.280289446  0.933537618  0.553111545
     0.810011786  0.943777277  0.556199504
     0.455689679  0.301833274  0.673079448
     0.439622023  0.814433287  0.670765082
     0.955272445  0.283703598  0.676146285
     0.911208438  0.743870741  0.660074039
     0.294659386  0.041570179  0.675121666
     0.301418562  0.562375576  0.672493577
     0.798206222  0.052509566  0.674514306
     0.833519201  0.465589625  0.663964161
     0.090160800  0.170036982  0.647068570
     0.107838133  0.699305045  0.655519051
     0.575833313  0.166850007  0.646378856
     0.574681113  0.677651123  0.651530705
     0.185119316  0.412148767  0.651674838
     0.163638771  0.932626105  0.643298284
     0.634328722  0.485447475  0.655919766
     0.672594427  0.917077519  0.649578410
     0.062533941  0.188173784  0.673327117
     0.022059095  0.655409193  0.657750699
     0.549413440  0.194034382  0.672034134
     0.544664950  0.716088326  0.675414327
     0.211882671  0.450720631  0.676016864
     0.182727243  0.954303575  0.669950893
     0.698683228  0.428731655  0.668747405
     0.701123986  0.945825802  0.675006836
     0.432398918  0.337555566  0.648147215
     0.414306000  0.829180952  0.644172666
     0.924116172  0.317091994  0.651462210
     0.933245782  0.837888191  0.656835355
     0.341817839  0.063584900  0.651881605
     0.322293608  0.586550007  0.646165496
     0.821877389  0.082260359  0.648789434
     0.850436181  0.540979993  0.647616592
     0.005841336  0.249298688  0.631764972
     0.058126653  0.817150996  0.653376106
     0.505655269  0.255968886  0.629317461
     0.494976727  0.743496775  0.630415520
     0.261527293  0.998503652  0.629737039
     0.251903092  0.494220447  0.631211455
     0.746253089  0.000008657  0.631571390
     0.724696447  0.561062074  0.640801996
     0.448745018  0.301283966  0.768889017
     0.448745007  0.801283913  0.768889017
     0.948744965  0.301283966  0.768889017
     0.948745007  0.801283913  0.768889017
     0.301275995  0.051294496  0.768872961
     0.301276011  0.551294499  0.768872961
     0.801275943  0.051294496  0.768872961
     0.801275984  0.551294499  0.768872961
     0.078771004  0.171180501  0.743441971
     0.078771006  0.671180448  0.743441971
     0.578771004  0.171180501  0.743441971
     0.578770992  0.671180448  0.743441971
     0.171199499  0.421174482  0.743421032
     0.171199501  0.921174508  0.743421032
     0.671199512  0.421174482  0.743421032
     0.671199501  0.921174508  0.743421032
     0.051256000  0.198714991  0.768889017
     0.051256002  0.698714925  0.768889017
     0.551256027  0.198714991  0.768889017
     0.551256016  0.698714925  0.768889017
     0.198723491  0.448703970  0.768872046
     0.198723493  0.948703970  0.768872046
     0.698723518  0.448703970  0.768872046
     0.698723507  0.948703970  0.768872046
     0.421231519  0.328817467  0.743441971
     0.421231508  0.828817440  0.743441971
     0.921231466  0.328817467  0.743441971
     0.921231508  0.828817440  0.743441971
     0.328800503  0.078824997  0.743421032
     0.328800492  0.578824964  0.743421032
     0.828800477  0.078824997  0.743421032
     0.828800519  0.578824964  0.743421032
     0.000003500  0.250001478  0.725821992
     0.000003500  0.750001452  0.725821992
     0.500003506  0.250001478  0.725821992
     0.500003495  0.750001452  0.725821992
     0.250000502  0.000000000  0.725803983
     0.250000517  0.500000000  0.725803983
     0.750000502  0.000000000  0.725803983
     0.750000490  0.500000000  0.725803983
     0.800637417  0.506648392  0.513326854
     0.878381582  0.499373133  0.530694952
     0.756658130  0.617534603  0.531739838
     0.751151475  0.616814970  0.559844459
     0.685824512  0.437080555  0.547807566
     0.664509974  0.528729395  0.555416083
     0.793692653  0.419050298  0.565165652
     0.861522803  0.489755609  0.568037565
     0.859903388  0.373095019  0.537419930
     0.765891346  0.373769616  0.530259623
     0.790143705  0.383878343  0.493027445
     0.882852651  0.409728204  0.496877763
     0.895255684  0.613342940  0.533035263
     0.892567423  0.605469694  0.561382425
     0.858131792  0.686092103  0.548649593
     0.601882386  0.501213819  0.522431214
     0.684353913  0.474621887  0.508822565
     0.668735398  0.569367417  0.516152187
     0.702220168  0.494264322  0.586010703
     0.769444064  0.566069989  0.589484115
     0.784195369  0.477464621  0.600351401
     0.824882163  0.257878922  0.511040905
     0.850728934  0.274613814  0.484350813
     0.926198386  0.157442868  0.499463760
     0.977041265  0.384809087  0.514700053
     0.057331469  0.123771213  0.505412093
     0.106981088  0.351113145  0.520691852
     0.149606797  0.221377507  0.515460764
     0.995795612  0.239413348  0.558419186
     0.022147005  0.777628800  0.560092494
     0.519251265  0.274895965  0.558194409
     0.487586480  0.768624205  0.555085450
     0.237999130  0.509068586  0.555886392
     0.270720857  0.991299458  0.557418558
     0.780834584  0.993913582  0.560976033
     0.007043766  0.243635659  0.649143203
     0.021541535  0.769686970  0.655619352
     0.504462386  0.252097943  0.646783539
     0.493642780  0.752523281  0.647660912
     0.253773705  0.499146261  0.648638342
     0.252129898  0.998986143  0.647031636
     0.741901532  0.514916407  0.650959973
     0.747463698  0.999555231  0.649083377
     0.499988984  0.249994984  0.743277021
     0.499989025  0.749994958  0.743277021
     0.999988984  0.249994984  0.743277021
     0.999989025  0.749994958  0.743277021
     0.250000502  0.000001000  0.743255960
     0.250000517  0.500001003  0.743255960
     0.750000502  0.000001000  0.743255960
     0.750000491  0.500001003  0.743255960
     0.941648131  0.274000912  0.506039233
     0.965921694  0.200653168  0.503928276
     0.993499089  0.327469040  0.512288987
     0.040185152  0.181345312  0.507242843
     0.067709914  0.308789397  0.515553801
     0.091616772  0.235691638  0.512936761
     0.821223878  0.481037599  0.527971812
     0.783945440  0.597060287  0.546193779
     0.693331538  0.495630568  0.543299707
     0.801760851  0.479063282  0.567068316
     0.820053331  0.397092130  0.526099855
     0.838853800  0.373741738  0.503125564
     0.862522897  0.625653622  0.547353679
     0.661724300  0.511386933  0.521206115
     0.761112089  0.506941578  0.586562998
     0.861440603  0.292236182  0.500943884
     0.058199590  0.256892054  0.567887266
     0.029993736  0.713326689  0.569557217
     0.527650903  0.204779454  0.563225262
     0.550481877  0.745107686  0.562881260
     0.455794264  0.309910451  0.556357738
     0.422884387  0.738158346  0.559127457
     0.930086114  0.260257485  0.564988798
     0.963975055  0.821161457  0.561801393
     0.258138310  0.442613279  0.562120366
     0.202910323  0.010461541  0.562560761
     0.711650099  0.986310367  0.566836091
     0.327023544  0.036890893  0.557289932
     0.277360011  0.569304957  0.558762699
     0.817046901  0.056595831  0.560295049
     0.055675404  0.197785844  0.657307251
     0.051355684  0.703739366  0.656431221
     0.545730630  0.201693111  0.655912074
     0.539981996  0.713110113  0.659200635
     0.215172511  0.450990480  0.659703360
     0.195814426  0.959814645  0.654134924
     0.689003508  0.472990332  0.658858342
     0.705294626  0.950883558  0.658733867
     0.461774218  0.299845519  0.656857698
     0.446032042  0.801001815  0.654963520
     0.959692611  0.283902514  0.659913363
     0.950327500  0.784041768  0.657239732
     0.298480506  0.037853557  0.658834045
     0.294697110  0.552744852  0.656566319
     0.791206633  0.048034631  0.658400670
     0.812782172  0.506230604  0.654384608
     0.045862501  0.204119496  0.752725994
     0.045862500  0.704119456  0.752725994
     0.545862507  0.204119496  0.752725994
     0.545862496  0.704119456  0.752725994
     0.204119002  0.454101003  0.752704994
     0.204118991  0.954100951  0.752704994
     0.704118976  0.454101003  0.752704994
     0.704118964  0.954100951  0.752704994
     0.454140018  0.295888490  0.752726971
     0.454140007  0.795888516  0.752726971
     0.954140018  0.295888490  0.752726971
     0.954140060  0.795888516  0.752726971
     0.295882492  0.045900498  0.752704994
     0.295882481  0.545900528  0.752704994
     0.795882439  0.045900498  0.752704994
     0.795882481  0.545900528  0.752704994
     0.775492632  0.513046260  0.546076812
     0.515245806  0.984282084  0.553337603
     0.475161867  0.509813615  0.553136025
     0.005022930  0.012672064  0.551720336
     0.029324983  0.483970037  0.553923352
     0.259391793  0.236919052  0.553621656
     0.228897136  0.764194214  0.550699563
     0.733133466  0.233253440  0.554318329
     0.737107791  0.794223963  0.553776534
     0.994942705  0.987221226  0.654381128
     0.009756133  0.504443771  0.654956256
     0.496769983  0.003788127  0.654801989
     0.495600064  0.506918928  0.654172530
     0.262167037  0.242426354  0.654918345
     0.245487976  0.753889052  0.653620112
     0.745900016  0.272898179  0.655119008
     0.751965772  0.734360713  0.654055380
     0.135185371  0.116535644  0.608046116
     0.146431874  0.608705454  0.605860620
     0.635961866  0.114861957  0.607606331
     0.619526074  0.631570027  0.606267013
     0.368071105  0.383994656  0.607432590
     0.364740102  0.884146423  0.604391455
     0.888200279  0.368241775  0.610688429
     0.862007272  0.891286573  0.607035599
     0.126001147  0.367003775  0.611659876
     0.114970345  0.873263127  0.605464301
     0.610528604  0.364355231  0.602554112
     0.618108806  0.864741789  0.612356854
     0.394284735  0.136385547  0.604084630
     0.379785771  0.634943642  0.606768578
     0.881375561  0.136477917  0.612294341
     0.901687555  0.645829420  0.609318099
     0.000000000  0.000000000  0.754927972
     0.000000000  0.500000000  0.754927972
     0.500000000  0.000000000  0.754927972
     0.499999989  0.500000000  0.754927972
     0.250000496  0.250000000  0.754939022
     0.250000511  0.749999974  0.754939022
     0.750000470  0.250000000  0.754939022
     0.750000458  0.749999974  0.754939022
     0.135790500  0.114209997  0.704782994
     0.135790502  0.614209984  0.704782994
     0.635790447  0.114209997  0.704782994
     0.635790488  0.614209984  0.704782994
     0.364209516  0.385789989  0.704782994
     0.364209505  0.885789963  0.704782994
     0.864209542  0.385789989  0.704782994
     0.864209531  0.885789963  0.704782994
     0.114217990  0.364218986  0.704780979
     0.114217992  0.864218986  0.704780979
     0.614218004  0.364218986  0.704780979
     0.614217992  0.864218986  0.704780979
     0.385782012  0.135781489  0.704782017
     0.385782001  0.635781489  0.704782017
     0.885781985  0.135781489  0.704782017
     0.885782027  0.635781489  0.704782017
     0.134667000  0.115332001  0.801256025
     0.134666989  0.615331988  0.801256025
     0.634666987  0.115332001  0.801256025
     0.634666976  0.615331988  0.801256025
     0.365333002  0.384667985  0.801256025
     0.365332990  0.884667959  0.801256025
     0.865332949  0.384667985  0.801256025
     0.865332938  0.884667959  0.801256025
     0.115328503  0.365337004  0.801264999
     0.115328505  0.865336978  0.801264999
     0.615328503  0.365337004  0.801264999
     0.615328492  0.865336978  0.801264999
     0.384671513  0.134662996  0.801264999
     0.384671501  0.634662970  0.801264999
     0.884671486  0.134662996  0.801264999
     0.884671528  0.634662970  0.801264999
     0.995769526  0.006906412  0.603970838
     0.010658901  0.500587480  0.603480689
     0.501715101  0.992786761  0.603673415
     0.500082009  0.501029608  0.602948356
     0.256412817  0.246475753  0.605271391
     0.242514103  0.754942683  0.602998354
     0.746985165  0.252866651  0.605663376
     0.752473489  0.756894034  0.603750335
     0.000000500  0.000000500  0.704828963
     0.000000500  0.500000475  0.704828963
     0.500000475  0.000000500  0.704828963
     0.500000464  0.500000475  0.704828963
     0.249999994  0.249999472  0.704824995
     0.250000010  0.749999498  0.704824995
     0.749999994  0.249999472  0.704824995
     0.749999983  0.749999498  0.704824995
     0.000000000  0.000000000  0.807317968
     0.000000000  0.500000000  0.807317968
     0.500000000  0.000000000  0.807317968
     0.499999989  0.500000000  0.807317968
     0.249999994  0.250000000  0.807317968
     0.250000010  0.749999974  0.807317968
     0.749999994  0.250000000  0.807317968
     0.749999983  0.749999974  0.807317968

  ion indices of the primitive-cell ions
   primitive index   ion index
                 1           1
                 2           2
                 3           3
                 4           4
                 5           5
                 6           6
                 7           7
                 8           8
                 9           9
                10          10
                11          11
                12          12
                13          13
                14          14
                15          15
                16          16
                17          17
                18          18
                19          19
                20          20
                21          21
                22          22
                23          23
                24          24
                25          25
                26          26
                27          27
                28          28
                29          29
                30          30
                31          31
                32          32
                33          33
                34          34
                35          35
                36          36
                37          37
                38          38
                39          39
                40          40
                41          41
                42          42
                43          43
                44          44
                45          45
                46          46
                47          47
                48          48
                49          49
                50          50
                51          51
                52          52
                53          53
                54          54
                55          55
                56          56
                57          57
                58          58
                59          59
                60          60
                61          61
                62          62
                63          63
                64          64
                65          65
                66          66
                67          67
                68          68
                69          69
                70          70
                71          71
                72          72
                73          73
                74          74
                75          75
                76          76
                77          77
                78          78
                79          79
                80          80
                81          81
                82          82
                83          83
                84          84
                85          85
                86          86
                87          87
                88          88
                89          89
                90          90
                91          91
                92          92
                93          93
                94          94
                95          95
                96          96
                97          97
                98          98
                99          99
               100         100
               101         101
               102         102
               103         103
               104         104
               105         105
               106         106
               107         107
               108         108
               109         109
               110         110
               111         111
               112         112
               113         113
               114         114
               115         115
               116         116
               117         117
               118         118
               119         119
               120         120
               121         121
               122         122
               123         123
               124         124
               125         125
               126         126
               127         127
               128         128
               129         129
               130         130
               131         131
               132         132
               133         133
               134         134
               135         135
               136         136
               137         137
               138         138
               139         139
               140         140
               141         141
               142         142
               143         143
               144         144
               145         145
               146         146
               147         147
               148         148
               149         149
               150         150
               151         151
               152         152
               153         153
               154         154
               155         155
               156         156
               157         157
               158         158
               159         159
               160         160
               161         161
               162         162
               163         163
               164         164
               165         165
               166         166
               167         167
               168         168
               169         169
               170         170
               171         171
               172         172
               173         173
               174         174
               175         175
               176         176
               177         177
               178         178
               179         179
               180         180
               181         181
               182         182
               183         183
               184         184
               185         185
               186         186
               187         187
               188         188
               189         189
               190         190
               191         191
               192         192
               193         193
               194         194
               195         195
               196         196
               197         197
               198         198
               199         199
               200         200
               201         201
               202         202
               203         203
               204         204
               205         205
               206         206
               207         207
               208         208
               209         209
               210         210
               211         211
               212         212
               213         213
               214         214
               215         215
               216         216
               217         217
               218         218
               219         219
               220         220
               221         221
               222         222
               223         223
               224         224
               225         225
               226         226
               227         227
               228         228
               229         229
               230         230
               231         231
               232         232
               233         233
               234         234
               235         235
               236         236
               237         237
               238         238
               239         239
               240         240
               241         241
               242         242
               243         243
               244         244
               245         245
               246         246
               247         247
               248         248
               249         249
               250         250
               251         251
               252         252
               253         253
               254         254
               255         255
               256         256
               257         257
               258         258
               259         259
               260         260
               261         261
               262         262
               263         263
               264         264
               265         265
               266         266
               267         267
               268         268
               269         269
               270         270
               271         271
               272         272
               273         273
               274         274
               275         275
               276         276
               277         277
               278         278
               279         279
               280         280
               281         281
               282         282
               283         283
               284         284
               285         285
               286         286
               287         287
               288         288
               289         289
               290         290
               291         291
               292         292
               293         293
               294         294
               295         295
               296         296
               297         297
               298         298
               299         299
               300         300
               301         301
               302         302
               303         303
               304         304
               305         305
               306         306
               307         307
               308         308
               309         309
               310         310
               311         311
               312         312
               313         313
               314         314
               315         315
               316         316
               317         317
               318         318
               319         319
               320         320
               321         321
               322         322
               323         323
               324         324
               325         325

----------------------------------------------------------------------------------------

 
 
 KPOINTS: Automatic Mesh                          

Automatic generation of k-mesh.
 Grid dimensions read from file:
 generate k-points for:    3    3    1

 Generating k-lattice:

  Cartesian coordinates                     Fractional coordinates (reciprocal lattice)
     0.018456177  0.000005026 -0.000000000     0.333333333  0.000000000  0.000000000
     0.000000000  0.018454135  0.000000000     0.000000000  0.333333333  0.000000000
     0.000000000 -0.000000000  0.016003201     0.000000000  0.000000000  1.000000000

  Length of vectors
     0.018456178  0.018454135  0.016003201

  Shift w.r.t. Gamma in fractional coordinates (k-lattice)
     0.000000000  0.000000000  0.000000000

 
 Subroutine IBZKPT returns following result:
 ===========================================
 
 Found      5 irreducible k-points:
 
 Following reciprocal coordinates:
            Coordinates               Weight
  0.000000  0.000000  0.000000      1.000000
  0.333333  0.000000  0.000000      2.000000
  0.000000  0.333333  0.000000      2.000000
  0.333333  0.333333  0.000000      2.000000
 -0.333333  0.333333  0.000000      2.000000
 
 Following cartesian coordinates:
            Coordinates               Weight
  0.000000  0.000000  0.000000      1.000000
  0.018456  0.000005  0.000000      2.000000
  0.000000  0.018454  0.000000      2.000000
  0.018456  0.018459  0.000000      2.000000
 -0.018456  0.018449  0.000000      2.000000
 


--------------------------------------------------------------------------------------------------------




 Dimension of arrays:
   k-points           NKPTS =      5   k-points in BZ     NKDIM =      5   number of bands    NBANDS=    732
   number of dos      NEDOS =    301   number of ions     NIONS =    325
   non local maximal  LDIM  =      5   non local SUM 2l+1 LMDIM =     13
   total plane-waves  NPLWV = ******
   max r-space proj   IRMAX =   3336   max aug-charges    IRDMAX=  19845
   dimension x,y,z NGX =   100 NGY =  100 NGZ =  350
   dimension x,y,z NGXF=   200 NGYF=  200 NGZF=  700
   support grid    NGXF=   200 NGYF=  200 NGZF=  700
   ions per type =             143  39  47  72  24
   NGX,Y,Z   is equivalent  to a cutoff of   9.20,  9.20,  9.31 a.u.
   NGXF,Y,Z  is equivalent  to a cutoff of  18.41, 18.41, 18.62 a.u.

 SYSTEM =  PSC                                     
 POSCAR =   H  C  N  I Pb                          

 Startparameter for this run:
   NWRITE =      2    write-flag & timer
   PREC   = normal    normal or accurate (medium, high low for compatibility)
   ISTART =      0    job   : 0-new  1-cont  2-samecut
   ICHARG =      1    charge: 1-file 2-atom 10-const
   ISPIN  =      1    spin polarized calculation?
   LNONCOLLINEAR =      F non collinear calculations
   LSORBIT =      F    spin-orbit coupling
   INIWAV =      1    electr: 0-lowe 1-rand  2-diag
   LASPH  =      F    aspherical Exc in radial PAW
 Electronic Relaxation 1
   ENCUT  =  500.0 eV  36.75 Ry    6.06 a.u.  32.93 32.93113.93*2*pi/ulx,y,z
   ENINI  =  500.0     initial cutoff
   ENAUG  =  644.9 eV  augmentation charge cutoff
   NELM   =    600;   NELMIN=  2; NELMDL=  0     # of ELM steps 
   EDIFF  = 0.1E-03   stopping-criterion for ELM
   LREAL  =      T    real-space projection
   NLSPLINE    = F    spline interpolate recip. space projectors
   LCOMPAT=      F    compatible to vasp.4.4
   GGA_COMPAT  = F    GGA compatible to vasp.4.4-vasp.4.6
   LMAXPAW     = -100 max onsite density
   LMAXMIX     =    2 max onsite mixed and CHGCAR
   VOSKOWN=      0    Vosko Wilk Nusair interpolation
   ROPT   =   -0.00050  -0.00050  -0.00050  -0.00050
   ROPT   =   -0.00050
 Ionic relaxation
   EDIFFG = 0.1E-02   stopping-criterion for IOM
   NSW    =      0    number of steps for IOM
   NBLOCK =      1;   KBLOCK =      1    inner block; outer block 
   IBRION =     -1    ionic relax: 0-MD 1-quasi-New 2-CG
   NFREE  =      0    steps in history (QN), initial steepest desc. (CG)
   ISIF   =      2    stress and relaxation
   IWAVPR =     10    prediction:  0-non 1-charg 2-wave 3-comb
   ISYM   =      0    0-nonsym 1-usesym 2-fastsym
   LCORR  =      T    Harris-Foulkes like correction to forces

   POTIM  = 0.5000    time-step for ionic-motion
   TEIN   =    0.0    initial temperature
   TEBEG  =    0.0;   TEEND  =   0.0 temperature during run
   SMASS  =  -3.00    Nose mass-parameter (am)
   estimated Nose-frequenzy (Omega)   =  0.10E-29 period in steps = 0.13E+47 mass=  -0.745E-26a.u.
   SCALEE = 1.0000    scale energy and forces
   NPACO  =    256;   APACO  = 16.0  distance and # of slots for P.C.
   PSTRESS=    0.0 pullay stress

  Mass of Ions in am
   POMASS =   1.00 12.01 14.00126.90207.20
  Ionic Valenz
   ZVAL   =   1.00  4.00  5.00  7.00  4.00
  Atomic Wigner-Seitz radii
   RWIGS  =  -1.00 -1.00 -1.00 -1.00 -1.00
  virtual crystal weights 
   VCA    =   1.00  1.00  1.00  1.00  1.00
   NELECT =    1134.0000    total number of electrons
   NUPDOWN=      -1.0000    fix difference up-down

 DOS related values:
   EMIN   =  10.00;   EMAX   =-10.00  energy-range for DOS
   EFERMI =   0.00
   ISMEAR =     0;   SIGMA  =   0.05  broadening in eV -4-tet -1-fermi 0-gaus

 Electronic relaxation 2 (details)
   IALGO  =     38    algorithm
   LDIAG  =      T    sub-space diagonalisation (order eigenvalues)
   LSUBROT=      F    optimize rotation matrix (better conditioning)
   TURBO    =      0    0=normal 1=particle mesh
   IRESTART =      0    0=no restart 2=restart with 2 vectors
   NREBOOT  =      0    no. of reboots
   NMIN     =      0    reboot dimension
   EREF     =   0.00    reference energy to select bands
   IMIX   =      4    mixing-type and parameters
     AMIX     =   0.40;   BMIX     =  0.01
     AMIX_MAG =   1.60;   BMIX_MAG =  0.01
     AMIN     =   0.01
     WC   =   100.;   INIMIX=   1;  MIXPRE=   1;  MAXMIX= -45

 Intra band minimization:
   WEIMIN = 0.0000     energy-eigenvalue tresh-hold
   EBREAK =  0.34E-07  absolut break condition
   DEPER  =   0.30     relativ break condition  

   TIME   =   0.40     timestep for ELM

  volume/ion in A,a.u.               =      62.72       423.28
  Fermi-wavevector in a.u.,A,eV,Ry     =   0.624944  1.180972  5.313816  0.390554
  Thomas-Fermi vector in A             =   1.685677
 
 Write flags
   LWAVE        =      F    write WAVECAR
   LDOWNSAMPLE  =      F    k-point downsampling of WAVECAR
   LCHARG       =      T    write CHGCAR
   LVTOT        =      T    write LOCPOT, total local potential
   LVHAR        =      F    write LOCPOT, Hartree potential only
   LELF         =      F    write electronic localiz. function (ELF)
   LORBIT       =      0    0 simple, 1 ext, 2 COOP (PROOUT), +10 PAW based schemes


 Dipole corrections
   LMONO  =      F    monopole corrections only (constant potential shift)
   LDIPOL =      T    correct potential (dipole corrections)
   IDIPOL =      3    1-x, 2-y, 3-z, 4-all directions 
   EPSILON=  1.0000000 bulk dielectric constant

 Exchange correlation treatment:
   GGA     =    --    GGA type
   LEXCH   =     8    internal setting for exchange type
   VOSKOWN=      0    Vosko Wilk Nusair interpolation
   LHFCALC =     F    Hartree Fock is set to
   LHFONE  =     F    Hartree Fock one center treatment
   AEXX    =    0.0000 exact exchange contribution

 Linear response parameters
   LEPSILON=     F    determine dielectric tensor
   LRPA    =     F    only Hartree local field effects (RPA)
   LNABLA  =     F    use nabla operator in PAW spheres
   LVEL    =     F    velocity operator in full k-point grid
   LINTERFAST=   F  fast interpolation
   KINTER  =     0    interpolate to denser k-point grid
   CSHIFT  =0.1000    complex shift for real part using Kramers Kronig
   OMEGAMAX=  -1.0    maximum frequency
   DEG_THRESHOLD= 0.2000000E-02 threshold for treating states as degnerate
   RTIME   =   -0.100 relaxation time in fs
  (WPLASMAI=    0.000 imaginary part of plasma frequency in eV, 0.658/RTIME)
   DFIELD  = 0.0000000 0.0000000 0.0000000 field for delta impulse in time
 
 Orbital magnetization related:
   ORBITALMAG=     F  switch on orbital magnetization
   LCHIMAG   =     F  perturbation theory with respect to B field
   DQ        =  0.001000  dq finite difference perturbation B field
   LLRAUG    =     F  two centre corrections for induced B field



--------------------------------------------------------------------------------------------------------


 Static calculation
 charge density and potential will be updated during run
 non-spin polarized calculation
 Variant of blocked Davidson
 Davidson routine will perform the subspace rotation
 perform sub-space diagonalisation
    after iterative eigenvector-optimisation
 modified Broyden-mixing scheme, WC =      100.0
 initial mixing is a Kerker type mixing with AMIX =  0.4000 and BMIX =      0.0100
 Hartree-type preconditioning will be used
 using additional bands           165
 real space projection scheme for non local part
[...]
     13.54561      0.00000     45.35368         0.006350     -0.007376      0.012136
     13.54315      9.03140     45.35368        -0.000809      0.012425     -0.009561
     14.45766      9.15149     32.07651        -0.047576      0.156195     -0.165912
     15.86182      9.02008     33.16180        -0.015511      0.042537     -0.003228
     13.66281     11.15440     33.22709        -0.041753     -0.032741     -0.081327
     13.56336     11.14141     34.98328         0.035572     -0.025564     -0.060238
     12.38439      7.89490     34.23112         0.038820      0.143311     -0.078062
     11.99898      9.55033     34.70656        -0.020130      0.013007     -0.023063
     14.33266      7.56922     35.31579         0.038929      0.086607      0.042638
     15.55738      8.84636     35.49525         0.006146     -0.028344     -0.045684
     15.52871      6.73914     33.58203         0.040326     -0.013928     -0.008642
     13.83077      6.75133     33.13460        -0.049658     -0.028964      0.048299
     14.26874      6.93392     30.80805        -0.069774      0.037195     -0.068954
     15.94301      7.40084     31.04865         0.097134      0.018055     -0.136474
     16.16602     11.07869     33.30804         0.005400     -0.015953     -0.028416
     16.11750     10.93648     35.07938         0.020284     -0.022026      0.054477
     15.49517     12.39274     34.28374         0.022373      0.028384      0.020971
     10.86801      9.05332     32.64542        -0.002256      0.011791     -0.059608
     12.35765      8.57300     31.79505        -0.036424      0.031299      0.021805
     12.07510     10.28437     32.25306        -0.003765     -0.127829      0.041000
     12.68023      8.92780     36.61834        -0.163739     -0.007300      0.051396
     13.89399     10.22481     36.83539        -0.001686     -0.011558     -0.029711
     14.16085      8.62435     37.51446        -0.013889     -0.005958      0.050800
     14.89676      4.65802     31.93367        -0.008129      0.006328     -0.027257
     15.36349      4.96029     30.26587         0.017681     -0.048394      0.000761
     16.72711      2.84386     31.21024         0.055648      0.088291      0.013683
     17.64425      6.95073     32.16232        -0.014100      0.049284      0.022494
      1.03484      2.23565     31.58194        -0.001202      0.016675      0.017474
      1.93044      6.34209     32.53673        -0.039253      0.043220     -0.023630
      2.70093      3.99870     32.20985        -0.001756      0.001888      0.020249
     17.98369      4.32448     34.89422         0.038001     -0.085495      0.006154
      0.39617     14.04615     34.99878         0.087099      0.074940     -0.007875
      9.37674      4.96539     34.88017        -0.064597      0.051286     -0.075263
      8.80242     13.88350     34.68590        -0.367967      0.109697     -0.036525
      4.29595      9.19520     34.73595        -0.046215      0.032016     -0.005862
      4.88456     17.90564     34.83169         0.012943     -0.007306      0.090266
     14.09761     17.95286     35.05399         0.014739     -0.007738      0.046836
      0.12602      4.40074     40.56334         0.150031     -0.080040     -0.104161
      0.38527     13.90270     40.96801        -0.273077      0.124134      0.060200
      9.10975      4.55359     40.41589        -0.246081      0.389014     -0.010391
      8.91188     13.59268     40.47071         0.128958     -0.085079      0.067630
      4.58090      9.01598     40.53179         0.110449      0.098761     -0.044995
      4.54875     18.04449     40.43139         0.052934     -0.007383      0.056245
     13.39680      9.30083     40.67686        -0.637084     -0.021596      0.061534
     13.49488     18.05477     40.55960         0.064996      0.092269     -0.090194
      9.02897      4.51561     46.44552         0.008721      0.003717      0.024862
      9.02651     13.54701     46.44552         0.028274     -0.012612      0.041396
     18.05937      4.51561     46.44552         0.015380      0.003013      0.035907
     18.05691     13.54701     46.44552         0.013422     -0.002314     -0.015266
      4.51521      0.00002     46.44421         0.002992      0.001313      0.054869
      4.51275      9.03142     46.44421        -0.005453     -0.003000      0.030151
     13.54561      0.00002     46.44421        -0.008147     -0.010591      0.031544
     13.54315      9.03142     46.44421         0.014107      0.021563      0.017466
     17.00557      4.94922     31.62113        -0.150645      0.078145     -0.007391
     17.44433      3.62436     31.48922         0.123062     -0.302248     -0.014193
     17.94178      5.91501     32.01166         0.083528      0.031418     -0.078803
      0.72488      3.27560     31.69634        -0.193278      0.017254     -0.077436
      1.22138      5.57760     32.21567         0.109341     -0.205588      0.056352
      1.65351      4.25725     32.05214        -0.020343      0.115330     -0.109347
     14.82959      8.68889     32.99164         0.044033     -0.078996      0.148084
     14.15575     10.78458     34.13028         0.014854     -0.060209      0.128878
     12.51968      8.95248     33.94944        -0.019784     -0.052897     -0.025793
     14.47809      8.65322     35.43468        -0.044687     -0.008396     -0.008320
     14.80887      7.17260     32.87466        -0.000141     -0.050536     -0.034587
     15.14853      6.75082     31.43906         0.019965     -0.072942      0.116091
     15.57478     11.30106     34.20276         0.029546      0.033940     -0.057516
     11.94876      9.23708     32.56887         0.040781     -0.056899      0.098499
     13.74380      9.15678     36.65285         0.168091     -0.008519     -0.070777
     15.55687      5.27860     31.30273         0.055324      0.125203      0.025896
      1.04987      4.64019     35.48586        -0.018314      0.137078      0.118463
      0.53820     12.88468     35.59021         0.008075     -0.033809     -0.053730
      9.52879      3.69889     35.19454        -0.112703      0.040870     -0.003202
      9.93848     13.45873     35.17304        -0.004484     -0.110898      0.105362
      8.23048      5.59785     34.76540         0.301953      0.103483     -0.078969
      7.63400     13.33321     34.93848         0.065092     -0.028701      0.008028
     16.79682      4.70098     35.30474        -0.070537      0.166070      0.102526
     17.40612     14.83247     35.10556         0.098747     -0.048958     -0.076032
      4.66001      7.99483     35.12550         0.170893     -0.034612      0.106478
      3.66467      0.18896     35.15302        -0.208200      0.103169     -0.008699
     12.84812     17.81553     35.42017        -0.313033     -0.050256      0.120293
      5.90613      0.66635     34.82365         0.223737      0.234994     -0.007712
      5.00654     10.28324     34.91568         0.200843     -0.304295      0.126079
     14.75624      1.02228     35.01144        -0.020023      0.401209     -0.020034
      1.00457      3.57257     41.07349         0.094618     -0.083095     -0.086875
      0.92406     12.71150     41.01875         0.200406     -0.146235     -0.062280
      9.85534      3.64314     40.98631         0.170271     -0.209617     -0.130729
      9.74900     12.88076     41.19180        -0.028801      0.025796     -0.061786
      3.88397      8.14615     41.22321         0.014595      0.043031      0.092034
      3.53184     17.33694     40.87526         0.316364      0.244656      0.095263
     12.44163      8.54353     41.17041         0.198679      0.006151      0.021165
     12.73351     17.17562     41.16263        -0.046976     -0.047079      0.156523
      8.33854      5.41605     41.04539         0.073241     -0.050432     -0.105727
      8.05176     14.46834     40.92703        -0.061983      0.087660      0.013942
     17.33142      5.12807     41.23634        -0.252513      0.250636     -0.040382
     17.15982     14.16199     41.06927        -0.043467     -0.199511      0.078360
      5.39061      0.68374     41.16889        -0.631235     -0.402844      0.144383
      5.31975      9.98412     41.02719        -0.105131     -0.133309     -0.265148
     14.28959      0.86764     41.14181        -0.072916     -0.037995     -0.231924
     14.67701      9.14394     40.89086         0.292238     -0.047706     -0.013142
      0.82731      3.68697     47.03596         0.019510     -0.024579     -0.094060
      0.82485     12.71837     47.03596         0.027829     -0.019788     -0.054123
      9.85771      3.68697     47.03596         0.025523     -0.024441     -0.081036
      9.85525     12.71837     47.03596         0.006416     -0.010298     -0.080264
      3.68432      8.20234     47.03465        -0.007870     -0.015439     -0.066157
      3.68186     17.23373     47.03465        -0.012525     -0.010708     -0.072201
     12.71472      8.20234     47.03465        -0.021859     -0.029302     -0.051233
     12.71226     17.23373     47.03465        -0.013032     -0.005640     -0.073646
      8.20068      5.34457     47.03603        -0.021088      0.019138     -0.082272
      8.19822     14.37597     47.03603        -0.030791      0.028464     -0.085696
     17.23108      5.34457     47.03603        -0.028764      0.020282     -0.105493
     17.22862     14.37597     47.03603        -0.022726      0.031593     -0.055834
      5.34365      0.82909     47.03465         0.005497      0.008520     -0.071457
      5.34119      9.86049     47.03465         0.019059      0.014958     -0.058851
     14.37405      0.82909     47.03465         0.017878      0.022780     -0.064691
     14.37159      9.86049     47.03465         0.002614     -0.000582     -0.053372
     14.00349      9.26705     34.12297        -0.034446      0.005176     -0.120466
      9.30091     17.77889     34.57668        -0.012616      0.003801     -0.012348
      8.57930      9.20866     34.56409        -0.024394     -0.007096     -0.018874
      0.09066      0.22889     34.47562         0.012297      0.013374      0.005292
      0.52725      8.74185     34.61329        -0.055341      0.013678     -0.007762
      4.68366      4.27942     34.59443        -0.009953     -0.001446      0.022004
      4.13031     13.80349     34.41184         0.006008     -0.001020      0.018965
     13.23983      4.21321     34.63797        -0.016483      0.024186     -0.016868
     13.30885     14.34591     34.60411        -0.013769      0.020248     -0.037784
     17.96461     17.83198     40.89064         0.012385     -0.005031     -0.003496
      0.17372      9.11167     40.92658        -0.008709      0.008294     -0.028025
      8.97204      0.06842     40.91694         0.011412     -0.011313     -0.044455
      8.94844      9.15637     40.87761        -0.004469     -0.011976     -0.020639
      4.73375      4.37890     40.92421        -0.008690      0.006682      0.013754
      4.43000     13.61735     40.84309        -0.016733      0.021268      0.001974
     13.47021      4.92931     40.93675        -0.005051     -0.033022      0.008467
     13.57749     13.26461     40.87029         0.008438     -0.006661      0.043858
      2.44098      2.10496     37.99528         0.010451      0.016568     -0.002068
      2.64168     10.99492     37.85872         0.012851     -0.004042     -0.017657
     11.48542      2.07473     37.96780         0.018306      0.007571      0.025690
     11.18603     11.40792     37.88411        -0.050596      0.053358      0.023728
      6.64577      6.93602     37.95694        -0.000219      0.007917      0.013274
      6.58315     15.97016     37.76691         0.000891     -0.007077      0.017770
     16.03980      6.65148     38.16039         0.036337     -0.045276     -0.007555
     15.56416     16.09913     37.93214        -0.021517     -0.010200     -0.002805
      2.27388      6.62912     38.22110         0.002612     -0.003876     -0.029565
      2.07216     15.77358     37.83395        -0.008511      0.001750     -0.005115
     11.02484      6.58128     37.65210         0.000218      0.007071     -0.007517
     11.15929     15.61966     38.26465         0.006597      0.009358     -0.014943
      7.12043      2.46350     37.74774         0.016875     -0.005935     -0.004452
      6.85611     11.46886     37.91545        -0.005593      0.008627     -0.004016
     15.91768      2.46517     38.26074        -0.010102     -0.007712     -0.020505
     16.28202     11.66549     38.07476        -0.010103     -0.005590     -0.008687
      0.00000      0.00000     47.17356         0.002058      0.006828      0.381941
     -0.00246      9.03140     47.17356         0.000566     -0.009270      0.456155
      9.03040      0.00000     47.17356         0.001401     -0.001477      0.451095
      9.02794      9.03140     47.17356        -0.003883      0.000804      0.396939
      4.51398      4.51570     47.17425        -0.001864     -0.003991      0.410078
      4.51152     13.54710     47.17425         0.003807      0.005754      0.340230
     13.54438      4.51570     47.17425         0.004961      0.002662      0.389067
     13.54192     13.54710     47.17425        -0.005114      0.002206      0.397337
      2.45192      2.06295     44.04013         0.013931     -0.031178     -0.042725
      2.44946     11.09435     44.04013         0.082920     -0.017260     -0.013081
     11.48232      2.06295     44.04013         0.011446      0.031922     -0.091222
     11.47986     11.09435     44.04013        -0.083749      0.037957     -0.003651
      6.57602      6.96845     44.04013         0.009100     -0.016665     -0.062754
      6.57356     15.99985     44.04013         0.025968     -0.017291     -0.073499
     15.60642      6.96845     44.04013         0.006420     -0.008973     -0.093246
     15.60396     15.99985     44.04013        -0.047079      0.050282     -0.040654
      2.06108      6.57881     44.04000         0.026558     -0.054457     -0.049137
      2.05862     15.61021     44.04000         0.062490      0.086074     -0.058625
     11.09148      6.57881     44.04000        -0.035093     -0.014141     -0.023136
     11.08902     15.61021     44.04000        -0.028941     -0.007937     -0.054643
      6.96686      2.45259     44.04007         0.012742     -0.011013      0.000155
      6.96440     11.48399     44.04007        -0.034013      0.015498     -0.061088
     15.99726      2.45259     44.04007         0.003160      0.023736     -0.077781
     15.99481     11.48399     44.04007         0.009051     -0.018456     -0.065337
      2.43163      2.08322     50.06849         0.007541     -0.012047      0.020307
      2.42917     11.11462     50.06849         0.020316     -0.002840      0.025839
     11.46203      2.08322     50.06849         0.014684     -0.006263      0.021734
     11.45957     11.11462     50.06849         0.006356     -0.012664      0.024317
      6.59631      6.94818     50.06849        -0.011271      0.009186      0.023005
      6.59385     15.97958     50.06849        -0.015353      0.006250      0.022166
     15.62671      6.94818     50.06849        -0.015258      0.001803      0.021336
     15.62425     15.97958     50.06849        -0.005876      0.018500      0.025467
      2.08113      6.59901     50.06905        -0.004897     -0.017119      0.023309
      2.07867     15.63041     50.06905        -0.008318     -0.008292      0.022845
     11.11153      6.59901     50.06905        -0.009675     -0.012354      0.023689
     11.10907     15.63041     50.06905        -0.010752     -0.008736      0.023389
      6.94681      2.43239     50.06905         0.007523      0.011559      0.022159
      6.94435     11.46379     50.06905         0.006644      0.014850      0.023471
     15.97721      2.43239     50.06905         0.011956      0.009825      0.021272
     15.97475     11.46379     50.06905         0.007927      0.012126      0.026610
     17.98436      0.12475     37.74063         0.019087      0.018537      0.000405
      0.19005      9.04201     37.71000        -0.005228     -0.025807     -0.009194
      9.05649     17.93251     37.72204         0.008223      0.009106      0.007504
      9.02942      9.05000     37.67673        -0.004539      0.005807     -0.002531
      4.62981      4.45204     37.82190        -0.018324      0.010346      0.017607
      4.37629     13.63638     37.67986         0.008728      0.010621     -0.014482
     13.48991      4.56748     37.84639        -0.004232     -0.003964     -0.004958
     13.58655     13.67163     37.72685         0.026475     -0.008085      0.039400
      0.00001      0.00001     44.04300        -0.059549     -0.115069      0.124682
     -0.00245      9.03141     44.04300         0.029462      0.151271      0.169762
      9.03041      0.00001     44.04300        -0.016644      0.012759      0.087070
      9.02795      9.03141     44.04300         0.054793      0.035231      0.140589
      4.51397      4.51569     44.04275         0.037969      0.036568      0.138088
      4.51151     13.54709     44.04275        -0.087195     -0.043593      0.131020
     13.54437      4.51569     44.04275        -0.060995     -0.020304      0.171179
     13.54191     13.54709     44.04275         0.095624     -0.079287      0.091033
      0.00000      0.00000     50.44728        -0.003795     -0.004929     -0.623436
     -0.00246      9.03140     50.44728        -0.002794      0.005501     -0.648168
      9.03040      0.00000     50.44728         0.002920     -0.001808     -0.640640
      9.02794      9.03140     50.44728         0.003926      0.001807     -0.630571
      4.51397      4.51570     50.44728         0.000798      0.005233     -0.629436
      4.51151     13.54710     50.44728        -0.001860     -0.004965     -0.615753
     13.54437      4.51570     50.44728        -0.001148      0.005388     -0.622449
     13.54191     13.54710     50.44728         0.002443     -0.004732     -0.635830
 -----------------------------------------------------------------------------------
    total drift:                               -0.024078     -0.067224      0.365318


--------------------------------------------------------------------------------------------------------



  FREE ENERGIE OF THE ION-ELECTRON SYSTEM (eV)
  ---------------------------------------------------
  free  energy   TOTEN  =     -1576.52182347 eV

  energy  without entropy=    -1576.52182347  energy(sigma->0) =    -1576.52182347
 


--------------------------------------------------------------------------------------------------------


    POTLOK:  cpu time    0.5010: real time    0.5009


--------------------------------------------------------------------------------------------------------


     LOOP+:  cpu time  264.0726: real time  264.6300
 vacuum level on the upper side and lower side of the slab         2.337         1.495
    4ORBIT:  cpu time    0.0000: real time    0.0000

 total amount of memory used by VASP MPI-rank0  8653584. kBytes
=======================================================================

   base      :      30000. kBytes
   nonlr-proj:      53622. kBytes
   fftplans  :     249280. kBytes
   grid      :     701440. kBytes
   one-center:       2636. kBytes
   wavefun   :    7616606. kBytes
 
  
  
 General timing and accounting informations for this job:
 ========================================================
  
                  Total CPU time used (sec):      476.174
                            User time (sec):      388.859
                          System time (sec):       87.316
                         Elapsed time (sec):      478.329
  
                   Maximum memory used (kb):    10307096.
                   Average memory used (kb):          N/A
  
                          Minor page faults:      3542396
                          Major page faults:           14
                 Voluntary context switches:        10638
