 vasp.6.2.1 16May21 (build Nov 15 2021 14:57:28) complex                         
 executed on             LinuxPGI date 2023.07.30  18:54:18
 running on    4 total cores
 distrk:  each k-point on    4 cores,    1 groups
 distr:  one band on NCORE=   1 cores,    4 groups


--------------------------------------------------------------------------------------------------------


 INCAR:
   SYSTEM = PSC
   ISTART = 1
   ICHARG = 1
   PREC = Normal
   ENCUT = 500
   GGA_COMPAT = F
   NELM = 600
   ISYM = 0
   LREAL = Auto
   ISMEAR = 0
   SIGMA = 0.05
   AMIN = 0.01
   BMIX = 0.01
   LVTOT = T
   LWAVE = F
   LDIPOL = T
   IDIPOL = 3
   LVDW = T
   IVDW = 12

 POTCAR:    PAW_PBE H 15Jun2001                   
 POTCAR:    PAW_PBE C 08Apr2002                   
 POTCAR:    PAW_PBE N 08Apr2002                   
 POTCAR:    PAW_PBE I 08Apr2002                   
 POTCAR:    PAW_PBE Pb 08Apr2002                  
 WARNING: For LVTOT=.TRUE., VASP.5.x writes the TOTAL local potential to the
     file LOCPOT. If you want only the Hartree contributions, use LVHAR=.TRUE.
     instead. 

 POTCAR:    PAW_PBE H 15Jun2001                   
   SHA256 =  030f79b5d3ab3cf0e668861823c8fb652ff669f3e15e46930bd03bfd63a607b6 H/POTCAR              
   COPYR  = (c) Copyright 15Jun2001 Georg Kresse                                                    
   COPYR  = This file is part of the software VASP. Any use, copying, and all other rights are regul
   COPYR  = If you do not have a valid VASP license, you may not use, copy or distribute this file. 
   VRHFIN =H: ultrasoft test                                                                        
   LEXCH  = PE                                                                                      
   EATOM  =    12.4884 eV,    0.9179 Ry                                                             
                                                                                                    
   TITEL  = PAW_PBE H 15Jun2001                                                                     
   LULTRA =        F    use ultrasoft PP ?                                                          
   IUNSCR =        0    unscreen: 0-lin 1-nonlin 2-no                                               
   RPACOR =    0.000    partial core radius                                                         
   POMASS =    1.000; ZVAL   =    1.000    mass and valenz                                          
   RCORE  =    1.100    outmost cutoff radius                                                       
   RWIGS  =    0.700; RWIGS  =    0.370    wigner-seitz radius (au A)                               
   ENMAX  =  250.000; ENMIN  =  200.000 eV                                                          
   RCLOC  =    0.701    cutoff for local pot                                                        
   LCOR   =        T    correct aug charges                                                         
   LPAW   =        T    paw PP                                                                      
   EAUG   =  400.000                                                                                
   RMAX   =    1.123    core radius for proj-oper                                                   
   RAUG   =    1.200    factor for augmentation sphere                                              
   RDEP   =    1.112    radius for radial grids                                                     
   RDEPT  =    0.926    core radius for aug-charge                                                  
                                                                                                    
   Atomic configuration                                                                             
    2 entries                                                                                       
     n  l   j            E        occ.                                                              
     1  0  0.50        -6.4927   1.0000                                                             
     2  1  0.50        -3.4015   0.0000                                                             
   Description                                                                                      
     l       E           TYP  RCUT    TYP  RCUT                                                     
     0     -6.4927494     23  1.100                                                                 
     0      6.8029130     23  1.100                                                                 
     1     -4.0817478     23  1.100                                                                 
  local pseudopotential read in
  atomic valenz-charges read in
  non local Contribution for L=            0  read in
    real space projection operators read in
  non local Contribution for L=            0  read in
    real space projection operators read in
  non local Contribution for L=            1  read in
    real space projection operators read in
    PAW grid and wavefunctions read in
 
   number of l-projection  operators is LMAX  =            3
   number of lm-projection operators is LMMAX =            5
 
 POTCAR:    PAW_PBE C 08Apr2002                   
   SHA256 =  253f7b50bb8d59471dbedb8285d89021f4a42ed1a2c5d38a03a736e69125dd95 C/POTCAR              
   COPYR  = (c) Copyright 08Apr2002 Georg Kresse                                                    
   COPYR  = This file is part of the software VASP. Any use, copying, and all other rights are regul
   COPYR  = If you do not have a valid VASP license, you may not use, copy or distribute this file. 
   VRHFIN =C: s2p2                                                                                  
   LEXCH  = PE                                                                                      
   EATOM  =   147.1560 eV,   10.8157 Ry                                                             
                                                                                                    
   TITEL  = PAW_PBE C 08Apr2002                                                                     
   LULTRA =        F    use ultrasoft PP ?                                                          
   IUNSCR =        1    unscreen: 0-lin 1-nonlin 2-no                                               
   RPACOR =    1.200    partial core radius                                                         
   POMASS =   12.011; ZVAL   =    4.000    mass and valenz                                          
   RCORE  =    1.500    outmost cutoff radius                                                       
   RWIGS  =    1.630; RWIGS  =    0.863    wigner-seitz radius (au A)                               
   ENMAX  =  400.000; ENMIN  =  300.000 eV                                                          
   ICORE  =        2    local potential                                                             
   LCOR   =        T    correct aug charges                                                         
   LPAW   =        T    paw PP                                                                      
   EAUG   =  644.873                                                                                
   DEXC   =    0.000                                                                                
   RMAX   =    1.529    core radius for proj-oper                                                   
   RAUG   =    1.300    factor for augmentation sphere                                              
   RDEP   =    1.501    radius for radial grids                                                     
   RDEPT  =    1.300    core radius for aug-charge                                                  
                                                                                                    
   Atomic configuration                                                                             
    4 entries                                                                                       
     n  l   j            E        occ.                                                              
     1  0  0.50      -273.3789   2.0000                                                             
     2  0  0.50       -13.7508   2.0000                                                             
     2  1  0.50        -5.2854   2.0000                                                             
     3  2  1.50        -5.4423   0.0000                                                             
   Description                                                                                      
     l       E           TYP  RCUT    TYP  RCUT                                                     
     0    -13.7508458     23  1.200                                                                 
     0     -8.2022199     23  1.200                                                                 
     1     -5.2854383     23  1.500                                                                 
     1     34.0145650     23  1.500                                                                 
     2     -5.4423304      7  1.500                                                                 
  local pseudopotential read in
  partial core-charges read in
  partial kinetic energy density read in
  atomic valenz-charges read in
  non local Contribution for L=            0  read in
    real space projection operators read in
  non local Contribution for L=            0  read in
    real space projection operators read in
  non local Contribution for L=            1  read in
    real space projection operators read in
  non local Contribution for L=            1  read in
    real space projection operators read in
    PAW grid and wavefunctions read in
 
   number of l-projection  operators is LMAX  =            4
   number of lm-projection operators is LMMAX =            8
 
 POTCAR:    PAW_PBE N 08Apr2002                   
   SHA256 =  e053789ff3a61a86a1b75d8a110fcc91f86041011e7b0817c7c99e4e8a6349d7 N/POTCAR              
   COPYR  = (c) Copyright 08Apr2002 Georg Kresse                                                    
   COPYR  = This file is part of the software VASP. Any use, copying, and all other rights are regul
   COPYR  = If you do not have a valid VASP license, you may not use, copy or distribute this file. 
   VRHFIN =N: s2p3                                                                                  
   LEXCH  = PE                                                                                      
   EATOM  =   264.5486 eV,   19.4438 Ry                                                             
                                                                                                    
   TITEL  = PAW_PBE N 08Apr2002                                                                     
   LULTRA =        F    use ultrasoft PP ?                                                          
   IUNSCR =        1    unscreen: 0-lin 1-nonlin 2-no                                               
   RPACOR =    1.200    partial core radius                                                         
   POMASS =   14.001; ZVAL   =    5.000    mass and valenz                                          
   RCORE  =    1.500    outmost cutoff radius                                                       
   RWIGS  =    1.400; RWIGS  =    0.741    wigner-seitz radius (au A)                               
   ENMAX  =  400.000; ENMIN  =  300.000 eV                                                          
   ICORE  =        2    local potential                                                             
   LCOR   =        T    correct aug charges                                                         
   LPAW   =        T    paw PP                                                                      
   EAUG   =  627.112                                                                                
   DEXC   =    0.000                                                                                
   RMAX   =    1.529    core radius for proj-oper                                                   
   RAUG   =    1.300    factor for augmentation sphere                                              
   RDEP   =    1.514    radius for radial grids                                                     
   RDEPT  =    1.338    core radius for aug-charge                                                  
                                                                                                    
   Atomic configuration                                                                             
    4 entries                                                                                       
     n  l   j            E        occ.                                                              
     1  0  0.50      -384.7179   2.0000                                                             
     2  0  0.50       -18.5828   2.0000                                                             
     2  1  0.50        -7.0898   3.0000                                                             
     3  2  1.50        -6.8029   0.0000                                                             
   Description                                                                                      
     l       E           TYP  RCUT    TYP  RCUT                                                     
     0    -18.5828119     23  1.200                                                                 
     0    -13.5018863     23  1.200                                                                 
     1     -7.0897853     23  1.500                                                                 
     1      9.5240782     23  1.500                                                                 
     2     -6.8029130      7  1.500                                                                 
  local pseudopotential read in
  partial core-charges read in
  partial kinetic energy density read in
  atomic valenz-charges read in
  non local Contribution for L=            0  read in
    real space projection operators read in
  non local Contribution for L=            0  read in
    real space projection operators read in
  non local Contribution for L=            1  read in
    real space projection operators read in
  non local Contribution for L=            1  read in
    real space projection operators read in
    PAW grid and wavefunctions read in
 
   number of l-projection  operators is LMAX  =            4
   number of lm-projection operators is LMMAX =            8
 
 POTCAR:    PAW_PBE I 08Apr2002                   
   SHA256 =  e40f3f59b681c1fc3e3091736183c4589116986673d2b852a5012aec72758799 I/POTCAR              
   COPYR  = (c) Copyright 08Apr2002 Georg Kresse                                                    
   COPYR  = This file is part of the software VASP. Any use, copying, and all other rights are regul
   COPYR  = If you do not have a valid VASP license, you may not use, copy or distribute this file. 
   VRHFIN =I : s2p5                                                                                 
   LEXCH  = PE                                                                                      
   EATOM  =   315.8678 eV,   23.2156 Ry                                                             
                                                                                                    
   TITEL  = PAW_PBE I 08Apr2002                                                                     
   LULTRA =        F    use ultrasoft PP ?                                                          
   IUNSCR =        1    unscreen: 0-lin 1-nonlin 2-no                                               
   RPACOR =    2.200    partial core radius                                                         
   POMASS =  126.904; ZVAL   =    7.000    mass and valenz                                          
   RCORE  =    2.300    outmost cutoff radius                                                       
   RWIGS  =    2.810; RWIGS  =    1.487    wigner-seitz radius (au A)                               
   ENMAX  =  175.647; ENMIN  =  131.735 eV                                                          
   ICORE  =        3    local potential                                                             
   LCOR   =        T    correct aug charges                                                         
   LPAW   =        T    paw PP                                                                      
   EAUG   =  370.139                                                                                
   DEXC   =    0.000                                                                                
   RMAX   =    2.359    core radius for proj-oper                                                   
   RAUG   =    1.300    factor for augmentation sphere                                              
   RDEP   =    2.392    radius for radial grids                                                     
   RDEPT  =    2.170    core radius for aug-charge                                                  
                                                                                                    
   Atomic configuration                                                                             
   13 entries                                                                                       
     n  l   j            E        occ.                                                              
     1  0  0.50    -32976.3739   2.0000                                                             
     2  0  0.50     -5094.5933   2.0000                                                             
     2  1  1.50     -4572.0131   6.0000                                                             
     3  0  0.50     -1028.2813   2.0000                                                             
     3  1  1.50      -859.0250   6.0000                                                             
     3  2  2.50      -605.7620  10.0000                                                             
     4  0  0.50      -180.5540   2.0000                                                             
     4  1  1.50      -127.5306   6.0000                                                             
     4  2  2.50       -50.2720  10.0000                                                             
     5  0  0.50       -17.4058   2.0000                                                             
     5  1  0.50        -7.0851   5.0000                                                             
     5  2  1.50        -7.0750   0.0000                                                             
     4  3  2.50        -7.0750   0.0000                                                             
   Description                                                                                      
     l       E           TYP  RCUT    TYP  RCUT                                                     
     0    -17.4058016     23  2.300                                                                 
     0    -18.7663842     23  2.300                                                                 
     1     -7.0850686     23  2.300                                                                 
     1     -4.2150896     23  2.300                                                                 
     2     -7.0750295     23  2.300                                                                 
     3     -1.3605826     23  2.300                                                                 
  local pseudopotential read in
  partial core-charges read in
  partial kinetic energy density read in
  atomic valenz-charges read in
  non local Contribution for L=            0  read in
    real space projection operators read in
  non local Contribution for L=            0  read in
    real space projection operators read in
  non local Contribution for L=            1  read in
    real space projection operators read in
  non local Contribution for L=            1  read in
    real space projection operators read in
  non local Contribution for L=            2  read in
    real space projection operators read in
    PAW grid and wavefunctions read in
 
   number of l-projection  operators is LMAX  =            5
   number of lm-projection operators is LMMAX =           13
 
 POTCAR:    PAW_PBE Pb 08Apr2002                  
   SHA256 =  797118a27cf1bcd06b9881c67a26cdde129e3cd1a551dd4a281f9681ce847303 Pb/POTCAR             
   COPYR  = (c) Copyright 08Apr2002 Georg Kresse                                                    
   COPYR  = This file is part of the software VASP. Any use, copying, and all other rights are regul
   COPYR  = If you do not have a valid VASP license, you may not use, copy or distribute this file. 
   VRHFIN =Pb:                                                                                      
   LEXCH  = PE                                                                                      
   EATOM  =    96.9868 eV,    7.1283 Ry                                                             
                                                                                                    
   TITEL  = PAW_PBE Pb 08Apr2002                                                                    
   LULTRA =        F    use ultrasoft PP ?                                                          
   IUNSCR =        1    unscreen: 0-lin 1-nonlin 2-no                                               
   RPACOR =    2.200    partial core radius                                                         
   POMASS =  207.200; ZVAL   =    4.000    mass and valenz                                          
   RCORE  =    3.100    outmost cutoff radius                                                       
   RWIGS  =    3.260; RWIGS  =    1.725    wigner-seitz radius (au A)                               
   ENMAX  =   97.973; ENMIN  =   73.480 eV                                                          
   ICORE  =        3    local potential                                                             
   LCOR   =        T    correct aug charges                                                         
   LPAW   =        T    paw PP                                                                      
   EAUG   =  234.873                                                                                
   DEXC   =    0.000                                                                                
   RMAX   =    3.158    core radius for proj-oper                                                   
   RAUG   =    1.300    factor for augmentation sphere                                              
   RDEP   =    3.202    radius for radial grids                                                     
   RDEPT  =    2.659    core radius for aug-charge                                                  
                                                                                                    
   Atomic configuration                                                                             
   17 entries                                                                                       
     n  l   j            E        occ.                                                              
     1  0  0.50    -88091.8466   2.0000                                                             
     2  0  0.50    -15753.4197   2.0000                                                             
     2  1  1.50    -13508.1797   6.0000                                                             
     3  0  0.50     -3781.7194   2.0000                                                             
     3  1  1.50     -3138.2529   6.0000                                                             
     3  2  2.50     -2483.2977  10.0000                                                             
     4  0  0.50      -856.2895   2.0000                                                             
     4  1  1.50      -645.4943   6.0000                                                             
     4  2  2.50      -401.8768  10.0000                                                             
     4  3  3.50      -132.9059  14.0000                                                             
     5  0  0.50      -144.0950   2.0000                                                             
     5  1  1.50       -85.7879   6.0000                                                             
     5  2  2.50       -21.1769  10.0000                                                             
     6  0  0.50       -12.0372   2.0000                                                             
     6  1  1.50        -3.4971   2.0000                                                             
     6  2  2.50        -1.3606   0.0000                                                             
     5  3  2.50        -2.7212   0.0000                                                             
   Description                                                                                      
     l       E           TYP  RCUT    TYP  RCUT                                                     
     0    -12.0371566     23  3.100                                                                 
     0    -13.3977392     23  3.100                                                                 
     1     -3.4971341     23  3.100                                                                 
     1     -5.4423304     23  3.100                                                                 
     2     -1.3605826     23  3.100                                                                 
     3     -1.3605826     23  3.100                                                                 
  local pseudopotential read in
  partial core-charges read in
  partial kinetic energy density read in
  atomic valenz-charges read in
  non local Contribution for L=            0  read in
    real space projection operators read in
  non local Contribution for L=            0  read in
    real space projection operators read in
  non local Contribution for L=            1  read in
    real space projection operators read in
  non local Contribution for L=            1  read in
    real space projection operators read in
  non local Contribution for L=            2  read in
    real space projection operators read in
    PAW grid and wavefunctions read in
 
   number of l-projection  operators is LMAX  =            5
   number of lm-projection operators is LMMAX =           13
 
 Optimization of the real space projectors (new method)

 maximal supplied QI-value         = 34.20
 optimisation between [QCUT,QGAM] = [ 11.29, 22.57] = [ 35.68,142.71] Ry 
 Optimized for a Real-space Cutoff    1.16 Angstroem

   l    n(q)    QCUT    max X(q) W(low)/X(q) W(high)/X(q)  e(spline) 
   0      8    11.287    19.460    0.40E-03    0.73E-03    0.16E-06
   0      8    11.287    12.209    0.38E-03    0.70E-03    0.15E-06
   1      7    11.287     4.655    0.22E-03    0.25E-04    0.22E-06
 Optimization of the real space projectors (new method)

 maximal supplied QI-value         = 25.13
 optimisation between [QCUT,QGAM] = [ 11.31, 22.87] = [ 35.82,146.48] Ry 
 Optimized for a Real-space Cutoff    1.00 Angstroem

   l    n(q)    QCUT    max X(q) W(low)/X(q) W(high)/X(q)  e(spline) 
   0      7    11.310   115.676    0.43E-03    0.13E-02    0.19E-06
   0      7    11.310    87.132    0.43E-03    0.13E-02    0.18E-06
   1      6    11.310     4.429    0.42E-03    0.74E-03    0.11E-06
   1      6    11.310     2.733    0.34E-03    0.55E-03    0.92E-07
 Optimization of the real space projectors (new method)

 maximal supplied QI-value         = 25.13
 optimisation between [QCUT,QGAM] = [ 11.31, 22.87] = [ 35.82,146.48] Ry 
 Optimized for a Real-space Cutoff    1.27 Angstroem

   l    n(q)    QCUT    max X(q) W(low)/X(q) W(high)/X(q)  e(spline) 
   0      9    11.310    79.467    0.75E-04    0.16E-03    0.36E-06
   0      9    11.310    66.151    0.74E-04    0.16E-03    0.36E-06
   1      8    11.310    17.416    0.35E-03    0.12E-03    0.95E-06
   1      8    11.310    12.382    0.37E-03    0.13E-03    0.98E-06
 Optimization of the real space projectors (new method)

 maximal supplied QI-value         = 16.25
 optimisation between [QCUT,QGAM] = [ 11.38, 22.75] = [ 36.24,144.96] Ry 
 Optimized for a Real-space Cutoff    1.31 Angstroem

   l    n(q)    QCUT    max X(q) W(low)/X(q) W(high)/X(q)  e(spline) 
   0      9    11.376   194.483    0.24E-03    0.23E-03    0.67E-07
   0      9    11.376   190.334    0.23E-03    0.22E-03    0.65E-07
   1      8    11.376   116.687    0.25E-03    0.63E-04    0.16E-06
   1      8    11.376    88.696    0.25E-03    0.61E-04    0.16E-06
   2      8    11.376     4.877    0.17E-03    0.14E-03    0.29E-07
 Optimization of the real space projectors (new method)

 maximal supplied QI-value         = 12.09
 optimisation between [QCUT,QGAM] = [ 11.37, 22.86] = [ 36.19,146.31] Ry 
 Optimized for a Real-space Cutoff    1.66 Angstroem

   l    n(q)    QCUT    max X(q) W(low)/X(q) W(high)/X(q)  e(spline) 
   0     11    11.369   135.111    0.12E-03    0.69E-04    0.19E-05
   0     11    11.369   146.850    0.11E-03    0.65E-04    0.18E-05
   1     11    11.369   148.016    0.17E-03    0.32E-03    0.89E-06
   1     11    11.369   122.989    0.17E-03    0.32E-03    0.91E-06
   2     10    11.369     8.916    0.12E-03    0.45E-04    0.33E-06
  PAW_PBE H 15Jun2001                   :
 energy of atom  1       EATOM=  -12.4884
 kinetic energy error for atom=    0.0020 (will be added to EATOM!!)
  PAW_PBE C 08Apr2002                   :
 energy of atom  2       EATOM= -147.1560
 kinetic energy error for atom=    0.0076 (will be added to EATOM!!)
  PAW_PBE N 08Apr2002                   :
 energy of atom  3       EATOM= -264.5486
 kinetic energy error for atom=    0.0138 (will be added to EATOM!!)
  PAW_PBE I 08Apr2002                   :
 energy of atom  4       EATOM= -315.8678
 kinetic energy error for atom=    0.0009 (will be added to EATOM!!)
  PAW_PBE Pb 08Apr2002                  :
 energy of atom  5       EATOM=  -96.9868
 kinetic energy error for atom=    0.0000 (will be added to EATOM!!)
 
 
 POSCAR:  H  C  N  I Pb
  positions in cartesian coordinates
  No initial velocities read in
 exchange correlation table for  LEXCH =        8
   RHO(1)=    0.500       N(1)  =     2000
   RHO(2)=  100.500       N(2)  =     4000
 


--------------------------------------------------------------------------------------------------------


 ion  position               nearest neighbor table
   1  0.455  0.321  0.577- 187 1.05
   2  0.450  0.846  0.575- 188 1.04
   3  0.925  0.249  0.581- 189 1.02
   4  0.950  0.806  0.582- 190 1.01
   5  0.299  0.060  0.578- 194 1.01
   6  0.314  0.564  0.579- 195 1.01
   7  0.794  0.074  0.580- 196 1.00
   8  0.109  0.232  0.558- 183 1.05
   9  0.094  0.680  0.564- 184 1.02
  10  0.571  0.174  0.556- 185 1.02
  11  0.500  0.653  0.567- 186 1.03
  12  0.361  0.016  0.561- 194 1.05
  13  0.279  0.620  0.559- 195 1.04
  14  0.868  0.036  0.566- 196 1.04
  15  0.063  0.226  0.583- 183 1.03
  16  0.030  0.692  0.585- 184 1.04
  17  0.571  0.251  0.574- 185 1.05
  18  0.474  0.714  0.587- 186 1.02
  19  0.267  0.435  0.581- 191 1.02
  20  0.166  0.024  0.574- 192 1.01
  21  0.675  0.009  0.578- 193 1.02
  22  0.378  0.289  0.562- 187 1.03
  23  0.479  0.867  0.549- 188 1.00
  24  0.882  0.254  0.557- 189 1.02
  25  0.974  0.868  0.562- 190 1.03
  26  0.199  0.410  0.562- 191 1.03
  27  0.143  0.961  0.554- 192 1.03
  28  0.674  0.926  0.563- 193 1.04
  29  0.445  0.193  0.546- 146 1.09
  30  0.513  0.744  0.541- 147 1.11
  31  0.998  0.249  0.539- 144 1.10
  32  0.062  0.791  0.547- 145 1.10
  33  0.201  0.528  0.546- 148 1.10
  34  0.268  0.948  0.544- 149 1.10
  35  0.795  0.936  0.554- 150 1.11
  36  0.462  0.310  0.676- 205 1.04
  37  0.430  0.811  0.672- 206 1.04
  38  0.960  0.279  0.680- 207 1.02
  39  0.931  0.782  0.674- 208 1.01
  40  0.304  0.056  0.674- 209 1.04
  41  0.296  0.540  0.678- 210 1.03
  42  0.790  0.050  0.677- 211 1.04
  43  0.845  0.507  0.668- 212 1.04
  44  0.088  0.177  0.645- 197 1.00
  45  0.096  0.691  0.654- 198 1.00
  46  0.573  0.166  0.650- 199 1.00
  47  0.576  0.680  0.656- 200 1.02
  48  0.174  0.418  0.647- 201 1.01
  49  0.176  0.922  0.650- 202 1.00
  50  0.649  0.474  0.658- 203 1.03
  51  0.672  0.919  0.648- 204 1.01
  52  0.067  0.184  0.672- 197 1.03
  53  0.039  0.689  0.676- 198 1.01
  54  0.564  0.209  0.675- 199 1.02
  55  0.533  0.712  0.679- 200 1.02
  56  0.198  0.435  0.673- 201 1.03
  57  0.201  0.954  0.675- 202 1.03
  58  0.720  0.445  0.675- 203 1.02
  59  0.690  0.946  0.674- 204 1.03
  60  0.416  0.322  0.652- 205 1.01
  61  0.419  0.832  0.645- 206 1.02
  62  0.925  0.321  0.657- 207 1.02
  63  0.928  0.836  0.651- 208 1.03
  64  0.332  0.078  0.648- 209 1.01
  65  0.324  0.580  0.654- 210 1.02
  66  0.828  0.076  0.653- 211 1.01
  67  0.851  0.564  0.646- 212 1.04
  68  0.001  0.262  0.634- 151 1.07
  69  0.033  0.781  0.636- 152 1.08
  70  0.481  0.234  0.634- 153 1.08
  71  0.510  0.752  0.633- 154 1.08
  72  0.253  0.996  0.632- 156 1.08
  73  0.251  0.508  0.633- 155 1.08
  74  0.756  0.997  0.632- 158 1.08
  75  0.725  0.550  0.638- 157 1.10
  76  0.449  0.301  0.769- 221 1.02
  77  0.449  0.801  0.769- 222 1.02
  78  0.949  0.301  0.769- 223 1.02
  79  0.949  0.801  0.769- 224 1.02
  80  0.301  0.051  0.769- 225 1.02
  81  0.301  0.551  0.769- 226 1.02
  82  0.801  0.051  0.769- 227 1.02
  83  0.801  0.551  0.769- 228 1.02
  84  0.079  0.171  0.743- 213 1.02
  85  0.079  0.671  0.743- 214 1.02
  86  0.579  0.171  0.743- 215 1.02
  87  0.579  0.671  0.743- 216 1.02
  88  0.171  0.421  0.743- 217 1.02
  89  0.171  0.921  0.743- 218 1.02
  90  0.671  0.421  0.743- 219 1.02
  91  0.671  0.921  0.743- 220 1.02
  92  0.051  0.199  0.769- 213 1.02
  93  0.051  0.699  0.769- 214 1.02
  94  0.551  0.199  0.769- 215 1.02
  95  0.551  0.699  0.769- 216 1.02
  96  0.199  0.449  0.769- 217 1.02
  97  0.199  0.949  0.769- 218 1.02
  98  0.699  0.449  0.769- 219 1.02
  99  0.699  0.949  0.769- 220 1.02
 100  0.421  0.329  0.743- 221 1.02
 101  0.421  0.829  0.743- 222 1.02
 102  0.921  0.329  0.743- 223 1.02
 103  0.921  0.829  0.743- 224 1.02
 104  0.329  0.079  0.743- 225 1.02
 105  0.329  0.579  0.743- 226 1.02
 106  0.829  0.079  0.743- 227 1.02
 107  0.829  0.579  0.743- 228 1.02
 108  0.000  0.250  0.726- 161 1.09
 109  0.000  0.750  0.726- 162 1.09
 110  0.500  0.250  0.726- 159 1.09
 111  0.500  0.750  0.726- 160 1.09
 112  0.250  0.000  0.726- 163 1.09
 113  0.250  0.500  0.726- 164 1.09
 114  0.750  0.000  0.726- 165 1.09
 115  0.750  0.500  0.726- 166 1.09
 116  0.717  0.439  0.542- 173 1.10
 117  0.737  0.498  0.521- 173 1.08
 118  0.654  0.548  0.562- 174 1.09
 119  0.700  0.635  0.560- 174 1.11
 120  0.842  0.505  0.573- 175 1.10
 121  0.776  0.568  0.583- 175 1.10
 122  0.865  0.558  0.535- 176 1.09
 123  0.793  0.623  0.528- 176 1.11
 124  0.866  0.469  0.520- 177 1.10
 125  0.865  0.431  0.546- 177 1.10
 126  0.876  0.334  0.520- 178 1.10
 127  0.788  0.325  0.532- 178 1.10
 128  0.635  0.548  0.522- 179 1.10
 129  0.691  0.630  0.519- 179 1.11
 130  0.606  0.633  0.533- 179 1.09
 131  0.753  0.447  0.599- 180 1.10
 132  0.742  0.404  0.574- 180 1.09
 133  0.678  0.471  0.583- 180 1.08
 134  0.828  0.684  0.565- 181 1.09
 135  0.889  0.688  0.544- 181 1.10
 136  0.908  0.623  0.565- 181 1.11
 137  0.821  0.392  0.487- 182 1.12
 138  0.786  0.301  0.492- 182 1.12
 139  0.662  0.320  0.523- 168 1.09
 140  0.735  0.464  0.472- 169 1.10
 141  0.538  0.377  0.521- 170 1.09
 142  0.611  0.522  0.471- 171 1.10
 143  0.510  0.478  0.495- 172 1.12
 144  0.995  0.244  0.556-  31 1.10 189 1.30 183 1.31
 145  0.032  0.773  0.562-  32 1.10 190 1.31 184 1.31
 146  0.473  0.230  0.558-  29 1.09 187 1.32 185 1.33
 147  0.494  0.760  0.557-  30 1.11 188 1.30 186 1.31
 148  0.238  0.515  0.559-  33 1.10 191 1.30 195 1.32
 149  0.253  0.987  0.556-  34 1.10 194 1.30 192 1.32
 150  0.771  0.980  0.564-  35 1.11 193 1.30 196 1.32
 151  0.006  0.250  0.651-  68 1.07 207 1.30 197 1.33
 152  0.012  0.764  0.652-  69 1.08 208 1.31 198 1.33
 153  0.494  0.244  0.650-  70 1.08 205 1.29 199 1.34
 154  0.497  0.757  0.650-  71 1.08 206 1.29 200 1.32
 155  0.249  0.499  0.650-  73 1.08 210 1.31 201 1.31
 156  0.254  0.000  0.649-  72 1.08 209 1.29 202 1.32
 157  0.750  0.519  0.651-  75 1.10 212 1.29 203 1.31
 158  0.751  0.998  0.650-  74 1.08 211 1.29 204 1.32
 159  0.500  0.250  0.743- 110 1.09 221 1.31 215 1.31
 160  0.500  0.750  0.743- 111 1.09 222 1.31 216 1.31
 161  1.000  0.250  0.743- 108 1.09 223 1.31 213 1.31
 162  1.000  0.750  0.743- 109 1.09 224 1.31 214 1.31
 163  0.250  0.000  0.743- 112 1.09 225 1.31 218 1.31
 164  0.250  0.500  0.743- 113 1.09 226 1.31 217 1.31
 165  0.750  0.000  0.743- 114 1.09 227 1.31 220 1.31
 166  0.750  0.500  0.743- 115 1.09 228 1.31 219 1.31
 167  0.708  0.389  0.497- 169 1.40 168 1.41 182 1.52
 168  0.650  0.363  0.511- 139 1.09 170 1.39 167 1.41
 169  0.691  0.445  0.483- 140 1.10 171 1.39 167 1.40
 170  0.581  0.395  0.510- 141 1.09 168 1.39 172 1.39
 171  0.620  0.477  0.482- 142 1.10 172 1.37 169 1.39
 172  0.566  0.452  0.495- 143 1.12 171 1.37 170 1.39
 173  0.759  0.476  0.535- 117 1.08 116 1.10 177 1.50 229 1.54
 174  0.690  0.582  0.552- 118 1.09 119 1.11 179 1.52 229 1.53
 175  0.783  0.518  0.573- 120 1.10 121 1.10 229 1.51 180 1.52
 176  0.823  0.594  0.541- 122 1.09 123 1.11 181 1.51 229 1.54
 177  0.831  0.437  0.531- 124 1.10 125 1.10 173 1.50 178 1.53
 178  0.821  0.360  0.521- 127 1.10 126 1.10 182 1.53 177 1.53
 179  0.654  0.598  0.530- 130 1.09 128 1.10 129 1.11 174 1.52
 180  0.736  0.456  0.582- 133 1.08 132 1.09 131 1.10 175 1.52
 181  0.864  0.650  0.555- 134 1.09 135 1.10 136 1.11 176 1.51
 182  0.786  0.359  0.499- 138 1.12 137 1.12 167 1.52 178 1.53
 183  0.058  0.232  0.566-  15 1.03   8 1.05 144 1.31
 184  0.053  0.712  0.571-   9 1.02  16 1.04 145 1.31
 185  0.542  0.216  0.563-  10 1.02  17 1.05 146 1.33
 186  0.493  0.707  0.571-  18 1.02  11 1.03 147 1.31
 187  0.434  0.286  0.566-  22 1.03   1 1.05 146 1.32
 188  0.473  0.828  0.560-  23 1.00   2 1.04 147 1.30
 189  0.931  0.252  0.565-   3 1.02  24 1.02 144 1.30
 190  0.978  0.816  0.568-   4 1.01  25 1.03 145 1.31
 191  0.235  0.450  0.568-  19 1.02  26 1.03 148 1.30
 192  0.183  0.990  0.562-  20 1.01  27 1.03 149 1.32
 193  0.701  0.974  0.568-  21 1.02  28 1.04 150 1.30
 194  0.306  0.025  0.565-   5 1.01  12 1.05 149 1.30
 195  0.281  0.569  0.566-   6 1.01  13 1.04 148 1.32
 196  0.813  0.034  0.571-   7 1.00  14 1.04 150 1.32
 197  0.057  0.201  0.656-  44 1.00  52 1.03 151 1.33
 198  0.051  0.710  0.661-  45 1.00  53 1.01 152 1.33
 199  0.548  0.203  0.659-  46 1.00  54 1.02 153 1.34
 200  0.538  0.714  0.663-  47 1.02  55 1.02 154 1.32
 201  0.205  0.448  0.657-  48 1.01  56 1.03 155 1.31
 202  0.208  0.956  0.659-  49 1.00  57 1.03 156 1.32
 203  0.705  0.475  0.662-  58 1.02  50 1.03 157 1.31
 204  0.701  0.952  0.657-  51 1.01  59 1.03 158 1.32
 205  0.456  0.294  0.660-  60 1.01  36 1.04 153 1.29
 206  0.447  0.802  0.657-  61 1.02  37 1.04 154 1.29
 207  0.961  0.285  0.663-  38 1.02  62 1.02 151 1.30
 208  0.953  0.796  0.660-  39 1.01  63 1.03 152 1.31
 209  0.299  0.047  0.658-  64 1.01  40 1.04 156 1.29
 210  0.292  0.542  0.661-  65 1.02  41 1.03 155 1.31
 211  0.791  0.044  0.660-  66 1.01  42 1.04 158 1.29
 212  0.819  0.530  0.655-  43 1.04  67 1.04 157 1.29
 213  0.046  0.204  0.753-  92 1.02  84 1.02 161 1.31
 214  0.046  0.704  0.753-  93 1.02  85 1.02 162 1.31
 215  0.546  0.204  0.753-  94 1.02  86 1.02 159 1.31
 216  0.546  0.704  0.753-  95 1.02  87 1.02 160 1.31
 217  0.204  0.454  0.753-  96 1.02  88 1.02 164 1.31
 218  0.204  0.954  0.753-  97 1.02  89 1.02 163 1.31
 219  0.704  0.454  0.753-  98 1.02  90 1.02 166 1.31
 220  0.704  0.954  0.753-  99 1.02  91 1.02 165 1.31
 221  0.454  0.296  0.753-  76 1.02 100 1.02 159 1.31
 222  0.454  0.796  0.753-  77 1.02 101 1.02 160 1.31
 223  0.954  0.296  0.753-  78 1.02 102 1.02 161 1.31
 224  0.954  0.796  0.753-  79 1.02 103 1.02 162 1.31
 225  0.296  0.046  0.753-  80 1.02 104 1.02 163 1.31
 226  0.296  0.546  0.753-  81 1.02 105 1.02 164 1.31
 227  0.796  0.046  0.753-  82 1.02 106 1.02 165 1.31
 228  0.796  0.546  0.753-  83 1.02 107 1.02 166 1.31
 229  0.764  0.542  0.551- 175 1.51 174 1.53 176 1.54 173 1.54
 230  0.500  0.018  0.552- 304 3.24
 231  0.482  0.516  0.556- 305 3.11
 232  0.994  0.003  0.553- 302 3.31
 233  0.035  0.504  0.553- 303 3.22
 234  0.247  0.245  0.552- 306 3.28
 235  0.253  0.762  0.552- 307 3.23
 236  0.745  0.213  0.557- 308 3.17
 237  0.708  0.791  0.548- 309 3.47
 238  0.007  0.999  0.655- 302 3.10 310 3.12
 239  0.013  0.490  0.655- 311 3.11 303 3.20
 240  0.500  0.005  0.655- 312 3.14 304 3.17
 241  0.508  0.493  0.656- 313 3.08 305 3.17
 242  0.253  0.246  0.655- 314 3.13 306 3.15
 243  0.247  0.756  0.655- 315 3.14 307 3.18
 244  0.743  0.256  0.656- 316 3.06 308 3.10
 245  0.748  0.752  0.653- 309 3.18 317 3.24
 246  0.142  0.110  0.607- 306 3.25 302 3.28
 247  0.143  0.611  0.611- 303 3.14 307 3.26
 248  0.646  0.107  0.610- 304 3.16 308 3.29
 249  0.621  0.629  0.615- 305 3.24 309 3.25
 250  0.357  0.394  0.611- 306 3.23 305 3.24
 251  0.369  0.886  0.608- 307 3.23 304 3.29
 252  0.884  0.371  0.614- 308 3.24 303 3.35
 253  0.864  0.884  0.610- 302 3.22 309 3.24
 254  0.114  0.356  0.609- 306 3.07 303 3.35
 255  0.123  0.876  0.609- 307 3.13 302 3.32
 256  0.586  0.342  0.606- 308 3.24 305 3.30
 257  0.612  0.863  0.611- 309 3.05 304 3.30
 258  0.386  0.133  0.608- 304 3.11 306 3.30
 259  0.381  0.633  0.613- 305 3.22 307 3.34
 260  0.889  0.142  0.613- 302 3.14 308 3.38
 261  0.914  0.652  0.617- 303 3.22 309 3.79
 262  0.000  0.000  0.755- 310 3.13 318 3.27
 263  0.000  0.500  0.755- 311 3.13 319 3.27
 264  0.500  0.000  0.755- 312 3.13 320 3.27
 265  0.500  0.500  0.755- 313 3.13 321 3.27
 266  0.250  0.250  0.755- 314 3.13 322 3.27
 267  0.250  0.750  0.755- 315 3.13 323 3.27
 268  0.750  0.250  0.755- 316 3.13 324 3.27
 269  0.750  0.750  0.755- 317 3.13 325 3.27
 270  0.136  0.114  0.705- 310 3.20 314 3.20
 271  0.136  0.614  0.705- 311 3.20 315 3.20
 272  0.636  0.114  0.705- 312 3.20 316 3.20
 273  0.636  0.614  0.705- 313 3.20 317 3.20
 274  0.364  0.386  0.705- 313 3.20 314 3.20
 275  0.364  0.886  0.705- 312 3.20 315 3.20
 276  0.864  0.386  0.705- 311 3.20 316 3.20
 277  0.864  0.886  0.705- 310 3.20 317 3.20
 278  0.114  0.364  0.705- 314 3.21 311 3.21
 279  0.114  0.864  0.705- 315 3.21 310 3.21
 280  0.614  0.364  0.705- 316 3.21 313 3.21
 281  0.614  0.864  0.705- 317 3.21 312 3.21
 282  0.386  0.136  0.705- 314 3.21 312 3.21
 283  0.386  0.636  0.705- 315 3.21 313 3.21
 284  0.886  0.136  0.705- 316 3.21 310 3.21
 285  0.886  0.636  0.705- 317 3.21 311 3.21
 286  0.135  0.115  0.801- 318 3.22 322 3.22
 287  0.135  0.615  0.801- 319 3.22 323 3.22
 288  0.635  0.115  0.801- 320 3.22 324 3.22
 289  0.635  0.615  0.801- 321 3.22 325 3.22
 290  0.365  0.385  0.801- 321 3.22 322 3.22
 291  0.365  0.885  0.801- 320 3.22 323 3.22
 292  0.865  0.385  0.801- 319 3.22 324 3.22
 293  0.865  0.885  0.801- 318 3.22 325 3.22
 294  0.115  0.365  0.801- 319 3.23 322 3.23
 295  0.115  0.865  0.801- 318 3.23 323 3.23
 296  0.615  0.365  0.801- 321 3.23 324 3.23
 297  0.615  0.865  0.801- 320 3.23 325 3.23
 298  0.385  0.135  0.801- 320 3.23 322 3.23
 299  0.385  0.635  0.801- 321 3.23 323 3.23
 300  0.885  0.135  0.801- 318 3.23 324 3.23
 301  0.885  0.635  0.801- 319 3.23 325 3.23
 302  0.993  0.005  0.606- 238 3.10 260 3.14 253 3.22 246 3.28 232 3.31 255 3.32
 303  0.007  0.506  0.604- 247 3.14 239 3.20 233 3.22 261 3.22 252 3.35 254 3.35
 304  0.503  0.008  0.604- 258 3.11 248 3.16 240 3.17 230 3.24 251 3.29 257 3.30
 305  0.499  0.503  0.605- 231 3.11 241 3.17 259 3.22 249 3.24 250 3.24 256 3.30
 306  0.249  0.254  0.605- 254 3.07 242 3.15 250 3.23 246 3.25 234 3.28 258 3.30
 307  0.247  0.756  0.604- 255 3.13 243 3.18 251 3.23 235 3.23 247 3.26 259 3.34
 308  0.745  0.259  0.606- 244 3.10 236 3.17 256 3.24 252 3.24 248 3.29 260 3.38
 309  0.740  0.757  0.602- 257 3.05 245 3.18 253 3.24 249 3.25 237 3.47 261 3.79
 310  0.000  0.000  0.705- 238 3.12 262 3.13 270 3.20 277 3.20 279 3.21 284 3.21
 311  0.000  0.500  0.705- 239 3.11 263 3.13 271 3.20 276 3.20 278 3.21 285 3.21
 312  0.500  0.000  0.705- 264 3.13 240 3.14 272 3.20 275 3.20 281 3.21 282 3.21
 313  0.500  0.500  0.705- 241 3.08 265 3.13 273 3.20 274 3.20 280 3.21 283 3.21
 314  0.250  0.250  0.705- 242 3.13 266 3.13 270 3.20 274 3.20 282 3.21 278 3.21
 315  0.250  0.750  0.705- 267 3.13 243 3.14 271 3.20 275 3.20 283 3.21 279 3.21
 316  0.750  0.250  0.705- 244 3.06 268 3.13 272 3.20 276 3.20 284 3.21 280 3.21
 317  0.750  0.750  0.705- 269 3.13 273 3.20 277 3.20 285 3.21 281 3.21 245 3.24
 318  0.000  0.000  0.807- 286 3.22 293 3.22 300 3.23 295 3.23 262 3.27
 319  0.000  0.500  0.807- 287 3.22 292 3.22 301 3.23 294 3.23 263 3.27
 320  0.500  0.000  0.807- 288 3.22 291 3.22 298 3.23 297 3.23 264 3.27
 321  0.500  0.500  0.807- 289 3.22 290 3.22 299 3.23 296 3.23 265 3.27
 322  0.250  0.250  0.807- 290 3.22 286 3.22 294 3.23 298 3.23 266 3.27
 323  0.250  0.750  0.807- 291 3.22 287 3.22 299 3.23 295 3.23 267 3.27
 324  0.750  0.250  0.807- 292 3.22 288 3.22 296 3.23 300 3.23 268 3.27
 325  0.750  0.750  0.807- 293 3.22 289 3.22 297 3.23 301 3.23 269 3.27
 

IMPORTANT INFORMATION: All symmetrisations will be switched off!
NOSYMM: (Re-)initialisation of all symmetry stuff for point group C_1.


----------------------------------------------------------------------------------------

                                     Primitive cell                                     

  volume of cell :   20385.2105

  direct lattice vectors                    reciprocal lattice vectors
    18.060800552  0.000000000  0.000000000     0.055368531  0.000015077 -0.000000000
    -0.004918649 18.062799454  0.000000000     0.000000000  0.055362404  0.000000000
     0.000000000  0.000000000 62.487499237     0.000000000 -0.000000000  0.016003201

  length of vectors
    18.060800552 18.062800123 62.487499237     0.055368533  0.055362404  0.016003201

  position of ions in fractional coordinates (direct lattice)
     0.454665906  0.321351185  0.577365724
     0.449620021  0.845708376  0.574666576
     0.924796780  0.249388339  0.581219461
     0.949793523  0.806117121  0.582148663
     0.298609275  0.059889002  0.577908924
     0.313828147  0.563875717  0.578945630
     0.793875998  0.074163560  0.580319990
     0.108575373  0.231824180  0.558155827
     0.094121423  0.679968625  0.564424232
     0.570729882  0.173555975  0.556235644
     0.500261200  0.652560546  0.566513700
     0.360551284  0.015550253  0.560765847
     0.279050482  0.620462130  0.558528766
     0.868480837  0.035877930  0.566355466
     0.062847397  0.225623961  0.582602428
     0.029670801  0.691653655  0.584776447
     0.570604977  0.250829558  0.573873143
     0.474359586  0.714040461  0.586537969
     0.266712780  0.434733724  0.580516196
     0.166283730  0.023619696  0.574382950
     0.674716084  0.009211853  0.578316781
     0.377975784  0.288507925  0.562449167
     0.478967399  0.867468104  0.549163550
     0.881964532  0.253783140  0.556652536
     0.973512341  0.867749727  0.561771907
     0.199129467  0.410297416  0.561778439
     0.142730540  0.961344937  0.554105274
     0.674342299  0.925879965  0.563237532
     0.445003774  0.193456538  0.546395968
     0.513398805  0.743800415  0.540981128
     0.997691323  0.248564721  0.538803324
     0.062178344  0.790886620  0.547332557
     0.201092657  0.527673124  0.545545517
     0.267871886  0.948223131  0.543578205
     0.795026237  0.936183826  0.553552734
     0.461946087  0.309515313  0.676077484
     0.430288008  0.810708673  0.672436925
     0.960373233  0.279335539  0.679537283
     0.931359282  0.781850505  0.674260410
     0.304281807  0.056419447  0.674078794
     0.296068941  0.539930427  0.677697315
     0.790421142  0.050414421  0.676973416
     0.845195046  0.507390042  0.668470067
     0.088035198  0.177181831  0.645031968
     0.095913483  0.690586138  0.653709546
     0.573465364  0.165587402  0.649844760
     0.576296193  0.679893230  0.656159743
     0.173720996  0.417525025  0.646947329
     0.175859929  0.921578529  0.650362808
     0.649159497  0.474399661  0.658008929
     0.672004278  0.919340738  0.647553530
     0.067187332  0.183954416  0.672001962
     0.039072253  0.689390640  0.675819315
     0.563781281  0.208562515  0.674611127
     0.533278450  0.712417777  0.679127716
     0.197896603  0.435040954  0.673230724
     0.201077909  0.953995395  0.675212443
     0.719909185  0.445360133  0.674714846
     0.689935584  0.946342467  0.673584432
     0.416250988  0.322048643  0.651965972
     0.418758702  0.831666140  0.645416994
     0.924640544  0.321332125  0.656827785
     0.927978100  0.835511608  0.650856559
     0.331909074  0.078434498  0.648352151
     0.323965358  0.579918140  0.653749654
     0.828022156  0.075927868  0.652603124
     0.850655699  0.564489543  0.645601052
     0.001417295  0.262124121  0.633789607
     0.032747165  0.781262919  0.636473189
     0.481298514  0.233827879  0.633660920
     0.509687753  0.752068535  0.633444873
     0.252606230  0.995657230  0.631607714
     0.250763304  0.507516017  0.632789346
     0.755924333  0.996944752  0.632403039
     0.724855072  0.550022180  0.637721974
     0.448745018  0.301283966  0.768889017
     0.448745007  0.801283913  0.768889017
     0.948744965  0.301283966  0.768889017
     0.948745007  0.801283913  0.768889017
     0.301275995  0.051294496  0.768872961
     0.301276011  0.551294499  0.768872961
     0.801275943  0.051294496  0.768872961
     0.801275984  0.551294499  0.768872961
     0.078771004  0.171180501  0.743441971
     0.078771006  0.671180448  0.743441971
     0.578771004  0.171180501  0.743441971
     0.578770992  0.671180448  0.743441971
     0.171199499  0.421174482  0.743421032
     0.171199501  0.921174508  0.743421032
     0.671199512  0.421174482  0.743421032
     0.671199501  0.921174508  0.743421032
     0.051256000  0.198714991  0.768889017
     0.051256002  0.698714925  0.768889017
     0.551256027  0.198714991  0.768889017
     0.551256016  0.698714925  0.768889017
     0.198723491  0.448703970  0.768872046
     0.198723493  0.948703970  0.768872046
     0.698723518  0.448703970  0.768872046
     0.698723507  0.948703970  0.768872046
     0.421231519  0.328817467  0.743441971
     0.421231508  0.828817440  0.743441971
     0.921231466  0.328817467  0.743441971
     0.921231508  0.828817440  0.743441971
     0.328800503  0.078824997  0.743421032
     0.328800492  0.578824964  0.743421032
     0.828800477  0.078824997  0.743421032
     0.828800519  0.578824964  0.743421032
     0.000003500  0.250001478  0.725821992
     0.000003500  0.750001452  0.725821992
     0.500003506  0.250001478  0.725821992
     0.500003495  0.750001452  0.725821992
     0.250000502  0.000000000  0.725803983
     0.250000517  0.500000000  0.725803983
     0.750000502  0.000000000  0.725803983
     0.750000490  0.500000000  0.725803983
     0.717170989  0.438710869  0.542013866
     0.736511910  0.497599500  0.520731289
     0.653609328  0.548357574  0.561729968
     0.699900503  0.634621735  0.560227226
     0.842118440  0.504645036  0.573112676
     0.776479583  0.568498103  0.582763105
     0.865249804  0.557500289  0.534558823
     0.792816299  0.622928469  0.528086581
     0.865832269  0.468657805  0.519852329
     0.864541652  0.431457943  0.545613829
     0.875898289  0.334199453  0.519625965
     0.787857401  0.324682456  0.531616584
     0.635193832  0.547599030  0.521657255
     0.691331855  0.630144859  0.519348444
     0.606236139  0.632848629  0.533031479
     0.753411373  0.447010166  0.598830345
     0.741825920  0.404216018  0.573566014
     0.677748045  0.471378313  0.582683744
     0.827646044  0.683993342  0.564990935
     0.889417589  0.688466046  0.543530588
     0.907908784  0.623415158  0.564508355
     0.821290883  0.392033502  0.487463435
     0.785505896  0.301010765  0.492046566
     0.662364547  0.319838373  0.522527363
     0.734741756  0.463981724  0.471989728
     0.538343903  0.376827685  0.521060761
     0.610500321  0.522058722  0.470532345
     0.509662411  0.478116091  0.494857522
     0.995276862  0.244423586  0.556357616
     0.032054548  0.773414593  0.561818669
     0.472528250  0.229885738  0.557851506
     0.493592650  0.759818604  0.557071138
     0.237744075  0.515126278  0.559134844
     0.252977290  0.987062992  0.556439481
     0.770542330  0.979963389  0.563685376
     0.005964268  0.249707105  0.650530444
     0.012110249  0.763680122  0.651915181
     0.494411772  0.244194893  0.650219896
     0.497375617  0.756579676  0.650332162
     0.248802601  0.499169175  0.649901656
     0.254478814  0.000452725  0.648847734
     0.749766425  0.519241753  0.650998677
     0.750891114  0.998358077  0.649607652
     0.499988984  0.249994984  0.743277021
     0.499989025  0.749994958  0.743277021
     0.999988984  0.249994984  0.743277021
     0.999989025  0.749994958  0.743277021
     0.250000502  0.000001000  0.743255960
     0.250000517  0.500001003  0.743255960
     0.750000502  0.000001000  0.743255960
     0.750000491  0.500001003  0.743255960
     0.707569595  0.388616039  0.497467419
     0.650369076  0.363330903  0.510958704
     0.690877438  0.445405486  0.482914002
     0.580791730  0.395464139  0.510015400
     0.620367550  0.476647946  0.481960503
     0.566019963  0.451977638  0.495458015
     0.759378387  0.475522457  0.535296641
     0.689500479  0.582094092  0.551628643
     0.782927112  0.518105019  0.573100711
     0.822886386  0.594228482  0.541115676
     0.831304918  0.436825569  0.530939202
     0.820725959  0.360119377  0.520974929
     0.654430442  0.597675803  0.529965741
     0.735649128  0.456404673  0.582267034
     0.863537795  0.649746006  0.554981548
     0.785987879  0.358569342  0.498646122
     0.057800058  0.231999204  0.566331596
     0.053201569  0.711535316  0.570804353
     0.542210841  0.216197076  0.563171235
     0.493355406  0.706701053  0.571288459
     0.434000239  0.285983509  0.565535844
     0.473369032  0.827808529  0.560326611
     0.930538042  0.251856367  0.565036049
     0.977930678  0.815593094  0.568463553
     0.234853585  0.449501268  0.567784645
     0.182842584  0.990432529  0.562267490
     0.700554205  0.974211285  0.568029567
     0.305743411  0.024531902  0.565480474
     0.281045624  0.568837011  0.565947547
     0.813092365  0.033815322  0.570875290
     0.057134551  0.200694944  0.656448070
     0.051449718  0.710394991  0.661349319
     0.548055848  0.203294519  0.659046490
     0.538058206  0.713890463  0.662897663
     0.204825649  0.447521037  0.657231979
     0.207792529  0.955991201  0.658883433
     0.704781983  0.475257571  0.661587343
     0.701453868  0.951903048  0.657466829
     0.456130662  0.294349410  0.660045591
     0.446615236  0.801893463  0.656610578
     0.961206810  0.284743449  0.663347277
     0.953301904  0.795580811  0.659967939
     0.298766821  0.047114617  0.657686477
     0.292114352  0.541578877  0.661295719
     0.791238320  0.043592331  0.660476586
     0.818893346  0.530109844  0.655270650
     0.045862501  0.204119496  0.752725994
     0.045862500  0.704119456  0.752725994
     0.545862507  0.204119496  0.752725994
     0.545862496  0.704119456  0.752725994
     0.204119002  0.454101003  0.752704994
     0.204118991  0.954100951  0.752704994
     0.704118976  0.454101003  0.752704994
     0.704118964  0.954100951  0.752704994
     0.454140018  0.295888490  0.752726971
     0.454140007  0.795888516  0.752726971
     0.954140018  0.295888490  0.752726971
     0.954140060  0.795888516  0.752726971
     0.295882492  0.045900498  0.752704994
     0.295882481  0.545900528  0.752704994
     0.795882439  0.045900498  0.752704994
     0.795882481  0.545900528  0.752704994
     0.764110997  0.542362342  0.550639920
     0.500309656  0.018286161  0.552133627
     0.482327171  0.515709323  0.555631824
     0.993766938  0.003376839  0.552606866
     0.034679647  0.504164155  0.553459148
     0.246926671  0.245450448  0.552034059
     0.253385912  0.762046192  0.552141685
     0.744879962  0.213394864  0.557477652
     0.708313431  0.790520891  0.548334283
     0.007327173  0.998699708  0.655010527
     0.012635307  0.489995522  0.655264240
     0.500100936  0.004755956  0.654582218
     0.507602210  0.492784191  0.655597619
     0.252917616  0.245593398  0.654834832
     0.247342009  0.755517281  0.654674339
     0.743353397  0.255803629  0.655988750
     0.748257727  0.752313147  0.653035950
     0.141596046  0.109731941  0.607111115
     0.143058355  0.611010813  0.611324726
     0.645995500  0.107335750  0.609887671
     0.620763637  0.629460706  0.614958143
     0.357333668  0.394293218  0.610884697
     0.369416385  0.885507231  0.608148248
     0.884271495  0.370611151  0.613509001
     0.863861209  0.883548595  0.610270377
     0.113855026  0.355811216  0.609413394
     0.122887490  0.875902696  0.609041493
     0.586199261  0.342434021  0.605610082
     0.611773328  0.862791284  0.610785617
     0.385659832  0.133095591  0.608019988
     0.381245587  0.633327927  0.613267375
     0.888608450  0.141777645  0.613270061
     0.913722139  0.651728982  0.617290824
     0.000000000  0.000000000  0.754927972
     0.000000000  0.500000000  0.754927972
     0.500000000  0.000000000  0.754927972
     0.499999989  0.500000000  0.754927972
     0.250000496  0.250000000  0.754939022
     0.250000511  0.749999974  0.754939022
     0.750000470  0.250000000  0.754939022
     0.750000458  0.749999974  0.754939022
     0.135790500  0.114209997  0.704782994
     0.135790502  0.614209984  0.704782994
     0.635790447  0.114209997  0.704782994
     0.635790488  0.614209984  0.704782994
     0.364209516  0.385789989  0.704782994
     0.364209505  0.885789963  0.704782994
     0.864209542  0.385789989  0.704782994
     0.864209531  0.885789963  0.704782994
     0.114217990  0.364218986  0.704780979
     0.114217992  0.864218986  0.704780979
     0.614218004  0.364218986  0.704780979
     0.614217992  0.864218986  0.704780979
     0.385782012  0.135781489  0.704782017
     0.385782001  0.635781489  0.704782017
     0.885781985  0.135781489  0.704782017
     0.885782027  0.635781489  0.704782017
     0.134667000  0.115332001  0.801256025
     0.134666989  0.615331988  0.801256025
     0.634666987  0.115332001  0.801256025
     0.634666976  0.615331988  0.801256025
     0.365333002  0.384667985  0.801256025
     0.365332990  0.884667959  0.801256025
     0.865332949  0.384667985  0.801256025
     0.865332938  0.884667959  0.801256025
     0.115328503  0.365337004  0.801264999
     0.115328505  0.865336978  0.801264999
     0.615328503  0.365337004  0.801264999
     0.615328492  0.865336978  0.801264999
     0.384671513  0.134662996  0.801264999
     0.384671501  0.634662970  0.801264999
     0.884671486  0.134662996  0.801264999
     0.884671528  0.634662970  0.801264999
     0.993151113  0.005327198  0.605632486
     0.006594565  0.506306686  0.604263621
     0.503427581  0.008133648  0.603914614
     0.498770018  0.502647541  0.605024210
     0.248934898  0.253698822  0.604544989
     0.246863563  0.756414103  0.603806010
     0.745356007  0.259423836  0.606437823
     0.739847066  0.756748946  0.602195031
     0.000000500  0.000000500  0.704828963
     0.000000500  0.500000475  0.704828963
     0.500000475  0.000000500  0.704828963
     0.500000464  0.500000475  0.704828963
     0.249999994  0.249999472  0.704824995
     0.250000010  0.749999498  0.704824995
     0.749999994  0.249999472  0.704824995
     0.749999983  0.749999498  0.704824995
     0.000000000  0.000000000  0.807317968
     0.000000000  0.500000000  0.807317968
     0.500000000  0.000000000  0.807317968
     0.499999989  0.500000000  0.807317968
     0.249999994  0.250000000  0.807317968
     0.250000010  0.749999974  0.807317968
     0.749999994  0.250000000  0.807317968
     0.749999983  0.749999974  0.807317968

  ion indices of the primitive-cell ions
   primitive index   ion index
                 1           1
                 2           2
                 3           3
                 4           4
                 5           5
                 6           6
                 7           7
                 8           8
                 9           9
                10          10
                11          11
                12          12
                13          13
                14          14
                15          15
                16          16
                17          17
                18          18
                19          19
                20          20
                21          21
                22          22
                23          23
                24          24
                25          25
                26          26
                27          27
                28          28
                29          29
                30          30
                31          31
                32          32
                33          33
                34          34
                35          35
                36          36
                37          37
                38          38
                39          39
                40          40
                41          41
                42          42
                43          43
                44          44
                45          45
                46          46
                47          47
                48          48
                49          49
                50          50
                51          51
                52          52
                53          53
                54          54
                55          55
                56          56
                57          57
                58          58
                59          59
                60          60
                61          61
                62          62
                63          63
                64          64
                65          65
                66          66
                67          67
                68          68
                69          69
                70          70
                71          71
                72          72
                73          73
                74          74
                75          75
                76          76
                77          77
                78          78
                79          79
                80          80
                81          81
                82          82
                83          83
                84          84
                85          85
                86          86
                87          87
                88          88
                89          89
                90          90
                91          91
                92          92
                93          93
                94          94
                95          95
                96          96
                97          97
                98          98
                99          99
               100         100
               101         101
               102         102
               103         103
               104         104
               105         105
               106         106
               107         107
               108         108
               109         109
               110         110
               111         111
               112         112
               113         113
               114         114
               115         115
               116         116
               117         117
               118         118
               119         119
               120         120
               121         121
               122         122
               123         123
               124         124
               125         125
               126         126
               127         127
               128         128
               129         129
               130         130
               131         131
               132         132
               133         133
               134         134
               135         135
               136         136
               137         137
               138         138
               139         139
               140         140
               141         141
               142         142
               143         143
               144         144
               145         145
               146         146
               147         147
               148         148
               149         149
               150         150
               151         151
               152         152
               153         153
               154         154
               155         155
               156         156
               157         157
               158         158
               159         159
               160         160
               161         161
               162         162
               163         163
               164         164
               165         165
               166         166
               167         167
               168         168
               169         169
               170         170
               171         171
               172         172
               173         173
               174         174
               175         175
               176         176
               177         177
               178         178
               179         179
               180         180
               181         181
               182         182
               183         183
               184         184
               185         185
               186         186
               187         187
               188         188
               189         189
               190         190
               191         191
               192         192
               193         193
               194         194
               195         195
               196         196
               197         197
               198         198
               199         199
               200         200
               201         201
               202         202
               203         203
               204         204
               205         205
               206         206
               207         207
               208         208
               209         209
               210         210
               211         211
               212         212
               213         213
               214         214
               215         215
               216         216
               217         217
               218         218
               219         219
               220         220
               221         221
               222         222
               223         223
               224         224
               225         225
               226         226
               227         227
               228         228
               229         229
               230         230
               231         231
               232         232
               233         233
               234         234
               235         235
               236         236
               237         237
               238         238
               239         239
               240         240
               241         241
               242         242
               243         243
               244         244
               245         245
               246         246
               247         247
               248         248
               249         249
               250         250
               251         251
               252         252
               253         253
               254         254
               255         255
               256         256
               257         257
               258         258
               259         259
               260         260
               261         261
               262         262
               263         263
               264         264
               265         265
               266         266
               267         267
               268         268
               269         269
               270         270
               271         271
               272         272
               273         273
               274         274
               275         275
               276         276
               277         277
               278         278
               279         279
               280         280
               281         281
               282         282
               283         283
               284         284
               285         285
               286         286
               287         287
               288         288
               289         289
               290         290
               291         291
               292         292
               293         293
               294         294
               295         295
               296         296
               297         297
               298         298
               299         299
               300         300
               301         301
               302         302
               303         303
               304         304
               305         305
               306         306
               307         307
               308         308
               309         309
               310         310
               311         311
               312         312
               313         313
               314         314
               315         315
               316         316
               317         317
               318         318
               319         319
               320         320
               321         321
               322         322
               323         323
               324         324
               325         325

----------------------------------------------------------------------------------------

 
 
 KPOINTS: Automatic Mesh                          

Automatic generation of k-mesh.
 Grid dimensions read from file:
 generate k-points for:    3    3    1

 Generating k-lattice:

  Cartesian coordinates                     Fractional coordinates (reciprocal lattice)
     0.018456177  0.000005026 -0.000000000     0.333333333  0.000000000  0.000000000
     0.000000000  0.018454135  0.000000000     0.000000000  0.333333333  0.000000000
     0.000000000 -0.000000000  0.016003201     0.000000000  0.000000000  1.000000000

  Length of vectors
     0.018456178  0.018454135  0.016003201

  Shift w.r.t. Gamma in fractional coordinates (k-lattice)
     0.000000000  0.000000000  0.000000000

 
 Subroutine IBZKPT returns following result:
 ===========================================
 
 Found      5 irreducible k-points:
 
 Following reciprocal coordinates:
            Coordinates               Weight
  0.000000  0.000000  0.000000      1.000000
  0.333333  0.000000  0.000000      2.000000
  0.000000  0.333333  0.000000      2.000000
  0.333333  0.333333  0.000000      2.000000
 -0.333333  0.333333  0.000000      2.000000
 
 Following cartesian coordinates:
            Coordinates               Weight
  0.000000  0.000000  0.000000      1.000000
  0.018456  0.000005  0.000000      2.000000
  0.000000  0.018454  0.000000      2.000000
  0.018456  0.018459  0.000000      2.000000
 -0.018456  0.018449  0.000000      2.000000
 


--------------------------------------------------------------------------------------------------------




 Dimension of arrays:
   k-points           NKPTS =      5   k-points in BZ     NKDIM =      5   number of bands    NBANDS=    732
   number of dos      NEDOS =    301   number of ions     NIONS =    325
   non local maximal  LDIM  =      5   non local SUM 2l+1 LMDIM =     13
   total plane-waves  NPLWV = ******
   max r-space proj   IRMAX =   3336   max aug-charges    IRDMAX=  19845
   dimension x,y,z NGX =   100 NGY =  100 NGZ =  350
   dimension x,y,z NGXF=   200 NGYF=  200 NGZF=  700
   support grid    NGXF=   200 NGYF=  200 NGZF=  700
   ions per type =             143  39  47  72  24
   NGX,Y,Z   is equivalent  to a cutoff of   9.20,  9.20,  9.31 a.u.
   NGXF,Y,Z  is equivalent  to a cutoff of  18.41, 18.41, 18.62 a.u.

 SYSTEM =  PSC                                     
 POSCAR =   H  C  N  I Pb                          

 Startparameter for this run:
   NWRITE =      2    write-flag & timer
   PREC   = normal    normal or accurate (medium, high low for compatibility)
   ISTART =      0    job   : 0-new  1-cont  2-samecut
   ICHARG =      1    charge: 1-file 2-atom 10-const
   ISPIN  =      1    spin polarized calculation?
   LNONCOLLINEAR =      F non collinear calculations
   LSORBIT =      F    spin-orbit coupling
   INIWAV =      1    electr: 0-lowe 1-rand  2-diag
   LASPH  =      F    aspherical Exc in radial PAW
 Electronic Relaxation 1
   ENCUT  =  500.0 eV  36.75 Ry    6.06 a.u.  32.93 32.93113.93*2*pi/ulx,y,z
   ENINI  =  500.0     initial cutoff
   ENAUG  =  644.9 eV  augmentation charge cutoff
   NELM   =    600;   NELMIN=  2; NELMDL=  0     # of ELM steps 
   EDIFF  = 0.1E-03   stopping-criterion for ELM
   LREAL  =      T    real-space projection
   NLSPLINE    = F    spline interpolate recip. space projectors
   LCOMPAT=      F    compatible to vasp.4.4
   GGA_COMPAT  = F    GGA compatible to vasp.4.4-vasp.4.6
   LMAXPAW     = -100 max onsite density
   LMAXMIX     =    2 max onsite mixed and CHGCAR
   VOSKOWN=      0    Vosko Wilk Nusair interpolation
   ROPT   =   -0.00050  -0.00050  -0.00050  -0.00050
   ROPT   =   -0.00050
 Ionic relaxation
   EDIFFG = 0.1E-02   stopping-criterion for IOM
   NSW    =      0    number of steps for IOM
   NBLOCK =      1;   KBLOCK =      1    inner block; outer block 
   IBRION =     -1    ionic relax: 0-MD 1-quasi-New 2-CG
   NFREE  =      0    steps in history (QN), initial steepest desc. (CG)
   ISIF   =      2    stress and relaxation
   IWAVPR =     10    prediction:  0-non 1-charg 2-wave 3-comb
   ISYM   =      0    0-nonsym 1-usesym 2-fastsym
   LCORR  =      T    Harris-Foulkes like correction to forces

   POTIM  = 0.5000    time-step for ionic-motion
   TEIN   =    0.0    initial temperature
   TEBEG  =    0.0;   TEEND  =   0.0 temperature during run
   SMASS  =  -3.00    Nose mass-parameter (am)
   estimated Nose-frequenzy (Omega)   =  0.10E-29 period in steps = 0.13E+47 mass=  -0.745E-26a.u.
   SCALEE = 1.0000    scale energy and forces
   NPACO  =    256;   APACO  = 16.0  distance and # of slots for P.C.
   PSTRESS=    0.0 pullay stress

  Mass of Ions in am
   POMASS =   1.00 12.01 14.00126.90207.20
  Ionic Valenz
   ZVAL   =   1.00  4.00  5.00  7.00  4.00
  Atomic Wigner-Seitz radii
   RWIGS  =  -1.00 -1.00 -1.00 -1.00 -1.00
  virtual crystal weights 
   VCA    =   1.00  1.00  1.00  1.00  1.00
   NELECT =    1134.0000    total number of electrons
   NUPDOWN=      -1.0000    fix difference up-down

 DOS related values:
   EMIN   =  10.00;   EMAX   =-10.00  energy-range for DOS
   EFERMI =   0.00
   ISMEAR =     0;   SIGMA  =   0.05  broadening in eV -4-tet -1-fermi 0-gaus

 Electronic relaxation 2 (details)
   IALGO  =     38    algorithm
   LDIAG  =      T    sub-space diagonalisation (order eigenvalues)
   LSUBROT=      F    optimize rotation matrix (better conditioning)
   TURBO    =      0    0=normal 1=particle mesh
   IRESTART =      0    0=no restart 2=restart with 2 vectors
   NREBOOT  =      0    no. of reboots
   NMIN     =      0    reboot dimension
   EREF     =   0.00    reference energy to select bands
   IMIX   =      4    mixing-type and parameters
     AMIX     =   0.40;   BMIX     =  0.01
     AMIX_MAG =   1.60;   BMIX_MAG =  0.01
     AMIN     =   0.01
     WC   =   100.;   INIMIX=   1;  MIXPRE=   1;  MAXMIX= -45

 Intra band minimization:
   WEIMIN = 0.0000     energy-eigenvalue tresh-hold
   EBREAK =  0.34E-07  absolut break condition
   DEPER  =   0.30     relativ break condition  

   TIME   =   0.40     timestep for ELM

  volume/ion in A,a.u.               =      62.72       423.28
  Fermi-wavevector in a.u.,A,eV,Ry     =   0.624944  1.180972  5.313816  0.390554
  Thomas-Fermi vector in A             =   1.685677
 
 Write flags
   LWAVE        =      F    write WAVECAR
   LDOWNSAMPLE  =      F    k-point downsampling of WAVECAR
   LCHARG       =      T    write CHGCAR
   LVTOT        =      T    write LOCPOT, total local potential
   LVHAR        =      F    write LOCPOT, Hartree potential only
   LELF         =      F    write electronic localiz. function (ELF)
   LORBIT       =      0    0 simple, 1 ext, 2 COOP (PROOUT), +10 PAW based schemes


 Dipole corrections
   LMONO  =      F    monopole corrections only (constant potential shift)
   LDIPOL =      T    correct potential (dipole corrections)
   IDIPOL =      3    1-x, 2-y, 3-z, 4-all directions 
   EPSILON=  1.0000000 bulk dielectric constant

 Exchange correlation treatment:
   GGA     =    --    GGA type
   LEXCH   =     8    internal setting for exchange type
   VOSKOWN=      0    Vosko Wilk Nusair interpolation
   LHFCALC =     F    Hartree Fock is set to
   LHFONE  =     F    Hartree Fock one center treatment
   AEXX    =    0.0000 exact exchange contribution

 Linear response parameters
   LEPSILON=     F    determine dielectric tensor
   LRPA    =     F    only Hartree local field effects (RPA)
   LNABLA  =     F    use nabla operator in PAW spheres
   LVEL    =     F    velocity operator in full k-point grid
   LINTERFAST=   F  fast interpolation
   KINTER  =     0    interpolate to denser k-point grid
   CSHIFT  =0.1000    complex shift for real part using Kramers Kronig
   OMEGAMAX=  -1.0    maximum frequency
   DEG_THRESHOLD= 0.2000000E-02 threshold for treating states as degnerate
   RTIME   =   -0.100 relaxation time in fs
  (WPLASMAI=    0.000 imaginary part of plasma frequency in eV, 0.658/RTIME)
   DFIELD  = 0.0000000 0.0000000 0.0000000 field for delta impulse in time
 
 Orbital magnetization related:
   ORBITALMAG=     F  switch on orbital magnetization
   LCHIMAG   =     F  perturbation theory with respect to B field
   DQ        =  0.001000  dq finite difference perturbation B field
   LLRAUG    =     F  two centre corrections for induced B field



--------------------------------------------------------------------------------------------------------


 Static calculation
 charge density and potential will be updated during run
 non-spin polarized calculation
 Variant of blocked Davidson
 Davidson routine will perform the subspace rotation
 perform sub-space diagonalisation
    after iterative eigenvector-optimisation
 modified Broyden-mixing scheme, WC =      100.0
 initial mixing is a Kerker type mixing with AMIX =  0.4000 and BMIX =      0.0100
 Hartree-type preconditioning will be used
 using additional bands           165
 real space projection scheme for non local part
[...]
     13.54561      0.00000     45.35368        -0.001728     -0.006954      0.012850
     13.54315      9.03140     45.35368        -0.004879      0.009675      0.004400
     12.95052      7.92435     33.86909         0.041507     -0.013831      0.057805
     13.29955      8.98804     32.53920        -0.191814      0.211407     -0.455580
     11.80201      9.90487     35.10110        -0.187112     -0.109168     -0.085080
     12.63764     11.46305     35.00720         0.037017     -0.187618     -0.157377
     15.20685      9.11530     35.81238         0.036253     -0.160922      0.040675
     14.02105     10.26867     36.41541         0.074977     -0.023349      0.100951
     15.62436     10.07002     33.40324        -0.041639      0.103555     -0.168558
     14.31583     11.25183     32.99881         0.348212     -0.219589      0.193446
     15.63532      8.46527     32.48427         0.065879      0.149221     -0.078422
     15.61219      7.79334     34.09404        -0.004530     -0.106690      0.032720
     15.81778      6.03658     32.47013        -0.047287      0.009146      0.094420
     14.22774      5.86467     33.21939         0.037341      0.005060      0.103306
     11.46942      9.89117     32.59706        -0.003658      0.150806      0.119263
     12.48291     11.38218     32.45279        -0.229283     -0.182871      0.171063
     10.94600     11.43102     33.30780        -0.092405      0.001711     -0.029145
     13.60501      8.07425     37.41941         0.014743      0.035452     -0.055966
     13.39598      7.30127     35.84071         0.023076     -0.125318     -0.012862
     12.23835      8.51441     36.41045        -0.508906      0.029499      0.011510
     14.94459     12.35483     35.30487        -0.081006     -0.008558      0.109592
     16.06021     12.43562     33.96387         0.025966     -0.107776      0.161444
     16.39449     11.26062     35.27472        -0.305453      0.155544     -0.082786
     14.83124      7.08122     30.46037        -0.322911     -0.349172      0.306574
     14.18538      5.43710     30.74676         0.146288      0.370109      0.342958
     11.96126      5.77718     32.65143        -0.060698     -0.113773      0.091889
     13.26774      8.38081     29.49346        -0.154273      0.061350      0.129630
      9.72107      6.80656     32.55978        -0.212317     -0.012409      0.070811
     11.02356      9.42984     29.40239        -0.073000     -0.283967      0.215954
      9.20256      8.63612     30.92241         0.834029     -0.443742      0.120113
     17.97429      4.41497     34.76540         0.622844     -0.075154     -1.078897
      0.57513     13.97003     35.10664         0.401914     -0.098833     -0.469446
      8.53311      4.15238     34.85875         0.544458      0.286780      0.468432
      8.91094     13.72445     34.80998         0.472335     -0.861627     -0.809492
      4.29131      9.30462     34.93894         0.138974      0.796284     -0.144817
      4.56412     17.82912     34.77051        -0.784173     -0.580504     -0.145667
     13.91179     17.70088     35.22329         1.092819      0.227831     -0.041644
      0.10649      4.51041     40.65002         1.036253     -1.058886      0.757344
      0.21496     13.79420     40.73655         0.638237     -1.105194      0.789318
      8.92827      4.41084     40.63062         1.394927     -1.162097      0.646065
      8.97928     13.66595     40.63763         1.065406     -1.049994      0.435216
      4.49112      9.01639     40.61073        -0.029675     -0.246316      0.020324
      4.59609      0.00818     40.54487        -1.431725     -1.311936      0.038893
     13.53883      9.37896     40.67928        -1.100093     -0.108301     -0.123092
     13.55678     18.03314     40.59236        -1.417526     -1.346422     -0.124136
      9.02897      4.51561     46.44552         0.014371      0.001100      0.039030
      9.02651     13.54701     46.44552         0.025183     -0.010476      0.052538
     18.05937      4.51561     46.44552         0.016003      0.000399      0.051696
     18.05691     13.54701     46.44552         0.022159     -0.003686      0.027132
      4.51521      0.00002     46.44421        -0.007731     -0.008868      0.062939
      4.51275      9.03142     46.44421        -0.000184      0.002190      0.053591
     13.54561      0.00002     46.44421        -0.001917     -0.002373      0.047119
     13.54315      9.03142     46.44421        -0.008805     -0.003359      0.031789
     12.77736      7.01949     31.08549        -0.030138      0.104003     -0.168175
     11.74440      6.56277     31.92853         0.605900      0.018691     -0.203138
     12.47561      8.04527     30.17609         0.451963     -0.267705     -0.107574
     10.48762      7.14319     31.86959        -0.173176     -0.170549      0.152498
     11.20199      8.60960     30.11651         0.755833      0.660530     -0.953498
     10.22055      8.16398     30.95993        -1.858909      0.359390      0.400906
     13.71264      8.58927     33.44935        -0.455585      0.569194      0.692677
     12.45007     10.51425     34.46989         0.235498      0.243441     -0.231862
     14.13774      9.35843     35.81163         0.338941      0.322232      0.176726
     14.85906     10.73343     33.81297        -0.157570      0.084994     -0.287091
     15.01188      7.89029     33.17706         0.465221     -0.464448     -0.029059
     14.82120      6.50476     32.55442         0.076713     -0.328886     -0.055273
     11.81660     10.79570     33.11623         0.187810      0.106050     -0.007666
     13.28417      8.24395     36.38441         0.402364      0.232620     -0.170827
     15.59299     11.73623     34.67941         0.055949     -0.068796      0.113622
     14.19381      6.47677     31.15915        -0.036851      0.185154     -0.726469
      1.04277      4.19056     35.38865         0.831704     -0.055049     -0.076464
      0.95736     12.85232     35.66814        -0.324731     -0.388967      0.527187
      9.79170      3.90512     35.19116        -0.068965      0.445629     -0.029483
      8.90692     12.76500     35.69839        -0.139395     -0.127367      0.243110
      7.83699      5.16566     35.33892         0.228391      0.348124      0.483282
      8.54535     14.95254     35.01341        -0.630882      0.563418      1.060262
     16.80502      4.54923     35.30769        -0.401163      0.134429      0.628069
     17.65820     14.73189     35.52187         0.194891      0.351675     -0.601756
      4.23943      8.11925     35.47944        -0.655609     -0.749557     -0.494467
      3.29741     17.88998     35.13469         0.243681     -0.688537     -1.055581
     12.64778     17.59698     35.49475        -0.854565     -0.929081     -0.276350
      5.52185      0.44311     35.33546         1.330328     -0.073063     -0.343591
      5.07311     10.27479     35.36465        -0.506442      0.407422     -0.961626
     14.68493      0.61080     35.67257         0.671270     -0.830243     -0.902022
      1.03091      3.62511     41.01980        -1.073347      0.854709      0.516065
      0.92573     12.83172     41.32607        -1.202760      1.287070     -0.569195
      9.89733      3.67207     41.18217        -1.329757      1.218762     -0.361379
      9.71425     12.89486     41.42282        -0.324107      0.255496     -0.087873
      3.69711      8.08348     41.06878         0.078738     -0.038404      0.744294
      3.74820     17.26788     41.17198         0.624949      0.700110      0.787944
     12.72659      8.58448     41.34094        -0.194060     -0.118227      0.076857
     12.66414     17.19403     41.08346         0.439457      0.560272      0.962340
      8.23664      5.31677     41.24460        -0.323028      0.827521      1.305031
      8.06228     14.48444     41.02995        -0.925004      0.733858      1.014862
     17.35876      5.14326     41.45091        -0.370939      0.303444      0.162092
     17.21348     14.37042     41.23975         0.248467      0.345046     -0.811968
      5.39574      0.85102     41.09718         0.770473      0.860133      1.418150
      5.27316      9.78243     41.32272         0.228002      0.223000      0.720225
     14.29018      0.78740     41.27153         0.807388      0.929648      1.344598
     14.78726      9.57527     40.94622         1.581148      0.243702      0.464452
      0.82731      3.68697     47.03596         0.016818     -0.020637     -0.099132
      0.82485     12.71837     47.03596         0.015692     -0.017731     -0.077662
      9.85771      3.68697     47.03596         0.016746     -0.023417     -0.092338
      9.85525     12.71837     47.03596         0.009536     -0.007632     -0.082038
      3.68432      8.20234     47.03465        -0.009099     -0.013676     -0.073095
      3.68186     17.23373     47.03465        -0.003382     -0.001243     -0.073608
     12.71472      8.20234     47.03465        -0.006979     -0.012629     -0.071101
     12.71226     17.23373     47.03465        -0.010449     -0.010070     -0.071504
      8.20068      5.34457     47.03603        -0.025060      0.017491     -0.094733
      8.19822     14.37597     47.03603        -0.026698      0.026604     -0.091603
     17.23108      5.34457     47.03603        -0.024298      0.021243     -0.109802
     17.22862     14.37597     47.03603        -0.026514      0.023703     -0.079554
      5.34365      0.82909     47.03465         0.011961      0.012490     -0.069218
      5.34119      9.86049     47.03465         0.009930      0.008722     -0.074320
     14.37405      0.82909     47.03465         0.013194      0.011820     -0.073880
     14.37159      9.86049     47.03465         0.015974      0.014969     -0.068010
     13.79779      9.79658     34.40811         0.098075     -0.182408     -0.367244
      9.03590      0.33030     34.50145        -0.027525     -0.008959      0.009552
      8.70868      9.31515     34.72004         0.004913     -0.052443      0.037184
     17.94821      0.06100     34.53102        -0.006328      0.005373     -0.013898
      0.62386      9.10662     34.58428        -0.149839      0.021844      0.107881
      4.45849      4.43352     34.49523        -0.015920      0.022155      0.100650
      4.57260     13.76469     34.50195        -0.054286     -0.025886      0.091481
     13.45208      3.85451     34.83538        -0.179786      0.017645     -0.005359
     12.78882     14.27902     34.26404        -0.045874      0.049036      0.329486
      0.12742     18.03931     40.92997        -0.064855     -0.006498     -0.037484
      0.22579      8.85069     40.94582        -0.014266      0.022765      0.072731
      9.03220      0.08591     40.90321        -0.007467     -0.053281     -0.007744
      9.16528      8.90106     40.96666        -0.070847     -0.011503     -0.025454
      4.56669      4.43610     40.91899         0.063237      0.006038     -0.052551
      4.46348     13.64676     40.90896         0.049269     -0.037075      0.010655
     13.42430      4.62053     40.99110         0.025961      0.012711     -0.058512
     13.51043     13.58888     40.80658         0.051448     -0.055375      0.111389
      2.55680      1.98207     37.93686        -0.021227      0.083246      0.016431
      2.58074     11.03657     38.20015         0.118453      0.051715     -0.018190
     11.66667      1.93878     38.11036        -0.013263      0.054035      0.020716
     11.20839     11.36982     38.42720         0.072703     -0.103175     -0.319568
      6.45179      7.12204     38.17266        -0.006498     -0.081837     -0.054685
      6.66760     15.99474     38.00166         0.048195     -0.028571     -0.114666
     15.96883      6.69427     38.33664        -0.011601     -0.010843     -0.113103
     15.59768     15.95936     38.13427         0.048721      0.040866      0.020254
      2.05456      6.42695     38.08072        -0.017065      0.106865     -0.032033
      2.21514     15.82125     38.05748        -0.079011      0.008858     -0.048253
     10.58554      6.18532     37.84306         0.065258      0.008065      0.004734
     11.04487     15.58443     38.16647        -0.039411      0.062167     -0.086749
      6.96467      2.40408     37.99365        -0.050379      0.081665     -0.003878
      6.88249     11.43968     38.32154         0.002229     -0.002492      0.023227
     16.04828      2.56090     38.32171        -0.058821      0.029897      0.041314
     16.49935     11.77205     38.57296        -0.164501     -0.098407     -0.463273
      0.00000      0.00000     47.17356        -0.000502      0.005063      0.406868
     -0.00246      9.03140     47.17356        -0.001282     -0.006347      0.470831
      9.03040      0.00000     47.17356        -0.000639     -0.000173      0.416059
      9.02794      9.03140     47.17356        -0.002723     -0.002329      0.488167
      4.51398      4.51570     47.17425        -0.000236     -0.002634      0.407859
      4.51152     13.54710     47.17425         0.003523      0.001068      0.432428
     13.54438      4.51570     47.17425         0.004641      0.000853      0.480663
     13.54192     13.54710     47.17425         0.000539      0.000941      0.330077
      2.45192      2.06295     44.04013         0.009589      0.004903     -0.028096
      2.44946     11.09435     44.04013         0.043151     -0.051580      0.050385
     11.48232      2.06295     44.04013         0.046904     -0.018196      0.008934
     11.47986     11.09435     44.04013        -0.011641      0.029673      0.043661
      6.57602      6.96845     44.04013        -0.028760      0.009954     -0.024132
      6.57356     15.99985     44.04013         0.014847     -0.000108     -0.037611
     15.60642      6.96845     44.04013        -0.052392      0.064212     -0.046835
     15.60396     15.99985     44.04013        -0.038136      0.031934      0.005204
      2.06108      6.57881     44.04000         0.057807     -0.047900      0.009200
      2.05862     15.61021     44.04000         0.017932      0.047148      0.021265
     11.09148      6.57881     44.04000        -0.021527     -0.047818      0.003491
     11.08902     15.61021     44.04000        -0.005658      0.026617     -0.016783
      6.96686      2.45259     44.04007        -0.029761     -0.021344     -0.011411
      6.96440     11.48399     44.04007         0.025743      0.019682     -0.020513
     15.99726      2.45259     44.04007         0.009180      0.016890     -0.025662
     15.99481     11.48399     44.04007         0.048234      0.031330     -0.097068
      2.43163      2.08322     50.06849         0.007901     -0.011539      0.020843
      2.42917     11.11462     50.06849         0.012283     -0.008653      0.023827
     11.46203      2.08322     50.06849         0.004587     -0.016622      0.022099
     11.45957     11.11462     50.06849         0.020930      0.000870      0.023688
      6.59631      6.94818     50.06849        -0.017535      0.002419      0.022801
      6.59385     15.97958     50.06849        -0.006677      0.013596      0.022531
     15.62671      6.94818     50.06849        -0.008750      0.008820      0.021335
     15.62425     15.97958     50.06849        -0.013573      0.008390      0.023397
      2.08113      6.59901     50.06905        -0.005650     -0.016261      0.022292
      2.07867     15.63041     50.06905        -0.014210     -0.005169      0.023441
     11.11153      6.59901     50.06905        -0.008570     -0.012154      0.023640
     11.10907     15.63041     50.06905        -0.006031     -0.014115      0.022654
      6.94681      2.43239     50.06905         0.010428      0.008368      0.022688
      6.94435     11.46379     50.06905         0.005862      0.013690      0.023854
     15.97721      2.43239     50.06905         0.016820      0.002824      0.022178
     15.97475     11.46379     50.06905         0.000659      0.018864      0.024062
     17.93708      0.09622     37.84446         0.064314     -0.074762     -0.030147
      0.11661      9.14532     37.75892        -0.033130     -0.006767     -0.020468
      9.09227      0.14692     37.73711        -0.000159     -0.056468      0.062346
      9.00571      9.07922     37.80645        -0.020894      0.044988     -0.066725
      4.49472      4.58251     37.77650         0.075512     -0.100782     -0.019584
      4.45483     13.66296     37.73033         0.049308     -0.061904     -0.088101
     13.46045      4.68592     37.89478         0.014086     -0.070747     -0.031402
     13.35851     13.66900     37.62966        -0.000446      0.018045      0.000201
      0.00001      0.00001     44.04300        -0.017234     -0.097401      0.179150
     -0.00245      9.03141     44.04300         0.088730      0.054986      0.081751
      9.03041      0.00001     44.04300         0.010374      0.014425      0.060056
      9.02795      9.03141     44.04300         0.054452      0.064474      0.234034
      4.51397      4.51569     44.04275         0.009455      0.015994      0.155471
      4.51151     13.54709     44.04275        -0.082298     -0.007205      0.076464
     13.54437      4.51569     44.04275        -0.040963     -0.015270      0.263402
     13.54191     13.54709     44.04275        -0.040248     -0.046613     -0.048429
      0.00000      0.00000     50.44728         0.000571      0.001250     -0.626672
     -0.00246      9.03140     50.44728         0.000549     -0.002330     -0.643789
      9.03040      0.00000     50.44728        -0.001323      0.003500     -0.628688
      9.02794      9.03140     50.44728        -0.000585     -0.003724     -0.650474
      4.51397      4.51570     50.44728         0.002367      0.008237     -0.625238
      4.51151     13.54710     50.44728         0.001383     -0.008795     -0.635837
     13.54437      4.51570     50.44728        -0.003622      0.008237     -0.644082
     13.54191     13.54710     50.44728        -0.000741     -0.009222     -0.610368
 -----------------------------------------------------------------------------------
    total drift:                                0.060909      0.119428      0.618995


--------------------------------------------------------------------------------------------------------



  FREE ENERGIE OF THE ION-ELECTRON SYSTEM (eV)
  ---------------------------------------------------
  free  energy   TOTEN  =     -1574.20926469 eV

  energy  without entropy=    -1574.20926469  energy(sigma->0) =    -1574.20926469
 


--------------------------------------------------------------------------------------------------------


    POTLOK:  cpu time    0.5016: real time    0.5014


--------------------------------------------------------------------------------------------------------


     LOOP+:  cpu time  285.1943: real time  285.6164
 vacuum level on the upper side and lower side of the slab         2.323         1.581
    4ORBIT:  cpu time    0.0000: real time    0.0000

 total amount of memory used by VASP MPI-rank0  8653580. kBytes
=======================================================================

   base      :      30000. kBytes
   nonlr-proj:      53618. kBytes
   fftplans  :     249280. kBytes
   grid      :     701440. kBytes
   one-center:       2636. kBytes
   wavefun   :    7616606. kBytes
 
  
  
 General timing and accounting informations for this job:
 ========================================================
  
                  Total CPU time used (sec):      497.414
                            User time (sec):      403.975
                          System time (sec):       93.439
                         Elapsed time (sec):      500.903
  
                   Maximum memory used (kb):    10307272.
                   Average memory used (kb):          N/A
  
                          Minor page faults:      3620898
                          Major page faults:           12
                 Voluntary context switches:        10986
