<?xml version="1.0" encoding="ISO-8859-1"?>
<modeling>
 <generator>
  <i name="program" type="string">vasp </i>
  <i name="version" type="string">6.2.1  </i>
  <i name="subversion" type="string">16May21 (build Nov 15 2021 14:57:28) complex                          parallel </i>
  <i name="platform" type="string">LinuxPGI </i>
  <i name="date" type="string">2023 07 30 </i>
  <i name="time" type="string">18:54:18 </i>
 </generator>
 <incar>
  <i type="string" name="SYSTEM">PSC</i>
  <i type="int" name="ISTART">     1</i>
  <i type="string" name="PREC">Normal</i>
  <i name="BMIX">      0.01000000</i>
  <i name="AMIN">      0.01000000</i>
  <i type="int" name="ICHARG">     1</i>
  <i type="int" name="NELM">   600</i>
  <i type="int" name="ISYM">     0</i>
  <i name="ENCUT">    500.00000000</i>
  <i type="string" name="LREAL">Auto</i>
  <i type="int" name="ISMEAR">     0</i>
  <i name="SIGMA">      0.05000000</i>
  <i type="logical" name="LWAVE"> F  </i>
  <i type="logical" name="LVTOT"> T  </i>
  <i type="logical" name="GGA_COMPAT"> F  </i>
  <i type="logical" name="LDIPOL"> T  </i>
  <i type="int" name="IDIPOL">     3</i>
  <i type="int" name="IVDW">    12</i>
 </incar>
 <primitive_cell>
  <structure name="primitive_cell" >
   <crystal>
    <varray name="basis" >
     <v>      18.06080055       0.00000000       0.00000000 </v>
     <v>      -0.00491865      18.06279945       0.00000000 </v>
     <v>       0.00000000       0.00000000      62.48749924 </v>
    </varray>
    <i name="volume">  20385.21054034 </i>
    <varray name="rec_basis" >
     <v>       0.05536853       0.00001508      -0.00000000 </v>
     <v>       0.00000000       0.05536240       0.00000000 </v>
     <v>       0.00000000      -0.00000000       0.01600320 </v>
    </varray>
   </crystal>
   <varray name="positions" >
    <v>       0.45466591       0.32135119       0.57736572 </v>
    <v>       0.44962002       0.84570838       0.57466658 </v>
    <v>       0.92479678       0.24938834       0.58121946 </v>
    <v>       0.94979352       0.80611712       0.58214866 </v>
    <v>       0.29860928       0.05988900       0.57790892 </v>
    <v>       0.31382815       0.56387572       0.57894563 </v>
    <v>       0.79387600       0.07416356       0.58031999 </v>
    <v>       0.10857537       0.23182418       0.55815583 </v>
    <v>       0.09412142       0.67996863       0.56442423 </v>
    <v>       0.57072988       0.17355597       0.55623564 </v>
    <v>       0.50026120       0.65256055       0.56651370 </v>
    <v>       0.36055128       0.01555025       0.56076585 </v>
    <v>       0.27905048       0.62046213       0.55852877 </v>
    <v>       0.86848084       0.03587793       0.56635547 </v>
    <v>       0.06284740       0.22562396       0.58260243 </v>
    <v>       0.02967080       0.69165365       0.58477645 </v>
    <v>       0.57060498       0.25082956       0.57387314 </v>
    <v>       0.47435959       0.71404046       0.58653797 </v>
    <v>       0.26671278       0.43473372       0.58051620 </v>
    <v>       0.16628373       0.02361970       0.57438295 </v>
    <v>       0.67471608       0.00921185       0.57831678 </v>
    <v>       0.37797578       0.28850793       0.56244917 </v>
    <v>       0.47896740       0.86746810       0.54916355 </v>
    <v>       0.88196453       0.25378314       0.55665254 </v>
    <v>       0.97351234       0.86774973       0.56177191 </v>
    <v>       0.19912947       0.41029742       0.56177844 </v>
    <v>       0.14273054       0.96134494       0.55410527 </v>
    <v>       0.67434230       0.92587996       0.56323753 </v>
    <v>       0.44500377       0.19345654       0.54639597 </v>
    <v>       0.51339881       0.74380041       0.54098113 </v>
    <v>       0.99769132       0.24856472       0.53880332 </v>
    <v>       0.06217834       0.79088662       0.54733256 </v>
    <v>       0.20109266       0.52767312       0.54554552 </v>
    <v>       0.26787189       0.94822313       0.54357820 </v>
    <v>       0.79502624       0.93618383       0.55355273 </v>
    <v>       0.46194609       0.30951531       0.67607748 </v>
    <v>       0.43028801       0.81070867       0.67243692 </v>
    <v>       0.96037323       0.27933554       0.67953728 </v>
    <v>       0.93135928       0.78185050       0.67426041 </v>
    <v>       0.30428181       0.05641945       0.67407879 </v>
    <v>       0.29606894       0.53993043       0.67769732 </v>
    <v>       0.79042114       0.05041442       0.67697342 </v>
    <v>       0.84519505       0.50739004       0.66847007 </v>
    <v>       0.08803520       0.17718183       0.64503197 </v>
    <v>       0.09591348       0.69058614       0.65370955 </v>
    <v>       0.57346536       0.16558740       0.64984476 </v>
    <v>       0.57629619       0.67989323       0.65615974 </v>
    <v>       0.17372100       0.41752503       0.64694733 </v>
    <v>       0.17585993       0.92157853       0.65036281 </v>
    <v>       0.64915950       0.47439966       0.65800893 </v>
    <v>       0.67200428       0.91934074       0.64755353 </v>
    <v>       0.06718733       0.18395442       0.67200196 </v>
    <v>       0.03907225       0.68939064       0.67581932 </v>
    <v>       0.56378128       0.20856251       0.67461113 </v>
    <v>       0.53327845       0.71241778       0.67912772 </v>
    <v>       0.19789660       0.43504095       0.67323072 </v>
    <v>       0.20107791       0.95399539       0.67521244 </v>
    <v>       0.71990919       0.44536013       0.67471485 </v>
    <v>       0.68993558       0.94634247       0.67358443 </v>
    <v>       0.41625099       0.32204864       0.65196597 </v>
    <v>       0.41875870       0.83166614       0.64541699 </v>
    <v>       0.92464054       0.32133213       0.65682778 </v>
    <v>       0.92797810       0.83551161       0.65085656 </v>
    <v>       0.33190907       0.07843450       0.64835215 </v>
    <v>       0.32396536       0.57991814       0.65374965 </v>
    <v>       0.82802216       0.07592787       0.65260312 </v>
    <v>       0.85065570       0.56448954       0.64560105 </v>
    <v>       0.00141730       0.26212412       0.63378961 </v>
    <v>       0.03274716       0.78126292       0.63647319 </v>
    <v>       0.48129851       0.23382788       0.63366092 </v>
    <v>       0.50968775       0.75206853       0.63344487 </v>
    <v>       0.25260623       0.99565723       0.63160771 </v>
    <v>       0.25076330       0.50751602       0.63278935 </v>
    <v>       0.75592433       0.99694475       0.63240304 </v>
    <v>       0.72485507       0.55002218       0.63772197 </v>
    <v>       0.44874502       0.30128397       0.76888902 </v>
    <v>       0.44874501       0.80128391       0.76888902 </v>
    <v>       0.94874497       0.30128397       0.76888902 </v>
    <v>       0.94874501       0.80128391       0.76888902 </v>
    <v>       0.30127600       0.05129450       0.76887296 </v>
    <v>       0.30127601       0.55129450       0.76887296 </v>
    <v>       0.80127594       0.05129450       0.76887296 </v>
    <v>       0.80127598       0.55129450       0.76887296 </v>
    <v>       0.07877100       0.17118050       0.74344197 </v>
    <v>       0.07877101       0.67118045       0.74344197 </v>
    <v>       0.57877100       0.17118050       0.74344197 </v>
    <v>       0.57877099       0.67118045       0.74344197 </v>
    <v>       0.17119950       0.42117448       0.74342103 </v>
    <v>       0.17119950       0.92117451       0.74342103 </v>
    <v>       0.67119951       0.42117448       0.74342103 </v>
    <v>       0.67119950       0.92117451       0.74342103 </v>
    <v>       0.05125600       0.19871499       0.76888902 </v>
    <v>       0.05125600       0.69871493       0.76888902 </v>
    <v>       0.55125603       0.19871499       0.76888902 </v>
    <v>       0.55125602       0.69871493       0.76888902 </v>
    <v>       0.19872349       0.44870397       0.76887205 </v>
    <v>       0.19872349       0.94870397       0.76887205 </v>
    <v>       0.69872352       0.44870397       0.76887205 </v>
    <v>       0.69872351       0.94870397       0.76887205 </v>
    <v>       0.42123152       0.32881747       0.74344197 </v>
    <v>       0.42123151       0.82881744       0.74344197 </v>
    <v>       0.92123147       0.32881747       0.74344197 </v>
    <v>       0.92123151       0.82881744       0.74344197 </v>
    <v>       0.32880050       0.07882500       0.74342103 </v>
    <v>       0.32880049       0.57882496       0.74342103 </v>
    <v>       0.82880048       0.07882500       0.74342103 </v>
    <v>       0.82880052       0.57882496       0.74342103 </v>
    <v>       0.00000350       0.25000148       0.72582199 </v>
    <v>       0.00000350       0.75000145       0.72582199 </v>
    <v>       0.50000351       0.25000148       0.72582199 </v>
    <v>       0.50000350       0.75000145       0.72582199 </v>
    <v>       0.25000050       0.00000000       0.72580398 </v>
    <v>       0.25000052       0.50000000       0.72580398 </v>
    <v>       0.75000050       0.00000000       0.72580398 </v>
    <v>       0.75000049       0.50000000       0.72580398 </v>
    <v>       0.71717099       0.43871087       0.54201387 </v>
    <v>       0.73651191       0.49759950       0.52073129 </v>
    <v>       0.65360933       0.54835757       0.56172997 </v>
    <v>       0.69990050       0.63462173       0.56022723 </v>
    <v>       0.84211844       0.50464504       0.57311268 </v>
    <v>       0.77647958       0.56849810       0.58276311 </v>
    <v>       0.86524980       0.55750029       0.53455882 </v>
    <v>       0.79281630       0.62292847       0.52808658 </v>
    <v>       0.86583227       0.46865781       0.51985233 </v>
    <v>       0.86454165       0.43145794       0.54561383 </v>
    <v>       0.87589829       0.33419945       0.51962597 </v>
    <v>       0.78785740       0.32468246       0.53161658 </v>
    <v>       0.63519383       0.54759903       0.52165726 </v>
    <v>       0.69133186       0.63014486       0.51934844 </v>
    <v>       0.60623614       0.63284863       0.53303148 </v>
    <v>       0.75341137       0.44701017       0.59883034 </v>
    <v>       0.74182592       0.40421602       0.57356601 </v>
    <v>       0.67774805       0.47137831       0.58268374 </v>
    <v>       0.82764604       0.68399334       0.56499093 </v>
    <v>       0.88941759       0.68846605       0.54353059 </v>
    <v>       0.90790878       0.62341516       0.56450836 </v>
    <v>       0.82129088       0.39203350       0.48746343 </v>
    <v>       0.78550590       0.30101076       0.49204657 </v>
    <v>       0.66236455       0.31983837       0.52252736 </v>
    <v>       0.73474176       0.46398172       0.47198973 </v>
    <v>       0.53834390       0.37682768       0.52106076 </v>
    <v>       0.61050032       0.52205872       0.47053234 </v>
    <v>       0.50966241       0.47811609       0.49485752 </v>
    <v>       0.99527686       0.24442359       0.55635762 </v>
    <v>       0.03205455       0.77341459       0.56181867 </v>
    <v>       0.47252825       0.22988574       0.55785151 </v>
    <v>       0.49359265       0.75981860       0.55707114 </v>
    <v>       0.23774408       0.51512628       0.55913484 </v>
    <v>       0.25297729       0.98706299       0.55643948 </v>
    <v>       0.77054233       0.97996339       0.56368538 </v>
    <v>       0.00596427       0.24970710       0.65053044 </v>
    <v>       0.01211025       0.76368012       0.65191518 </v>
    <v>       0.49441177       0.24419489       0.65021990 </v>
    <v>       0.49737562       0.75657968       0.65033216 </v>
    <v>       0.24880260       0.49916918       0.64990166 </v>
    <v>       0.25447881       0.00045273       0.64884773 </v>
    <v>       0.74976643       0.51924175       0.65099868 </v>
    <v>       0.75089111       0.99835808       0.64960765 </v>
    <v>       0.49998898       0.24999498       0.74327702 </v>
    <v>       0.49998903       0.74999496       0.74327702 </v>
    <v>       0.99998898       0.24999498       0.74327702 </v>
    <v>       0.99998903       0.74999496       0.74327702 </v>
    <v>       0.25000050       0.00000100       0.74325596 </v>
    <v>       0.25000052       0.50000100       0.74325596 </v>
    <v>       0.75000050       0.00000100       0.74325596 </v>
    <v>       0.75000049       0.50000100       0.74325596 </v>
    <v>       0.70756960       0.38861604       0.49746742 </v>
    <v>       0.65036908       0.36333090       0.51095870 </v>
    <v>       0.69087744       0.44540549       0.48291400 </v>
    <v>       0.58079173       0.39546414       0.51001540 </v>
    <v>       0.62036755       0.47664795       0.48196050 </v>
    <v>       0.56601996       0.45197764       0.49545801 </v>
    <v>       0.75937839       0.47552246       0.53529664 </v>
    <v>       0.68950048       0.58209409       0.55162864 </v>
    <v>       0.78292711       0.51810502       0.57310071 </v>
    <v>       0.82288639       0.59422848       0.54111568 </v>
    <v>       0.83130492       0.43682557       0.53093920 </v>
    <v>       0.82072596       0.36011938       0.52097493 </v>
    <v>       0.65443044       0.59767580       0.52996574 </v>
    <v>       0.73564913       0.45640467       0.58226703 </v>
    <v>       0.86353780       0.64974601       0.55498155 </v>
    <v>       0.78598788       0.35856934       0.49864612 </v>
    <v>       0.05780006       0.23199920       0.56633160 </v>
    <v>       0.05320157       0.71153532       0.57080435 </v>
    <v>       0.54221084       0.21619708       0.56317123 </v>
    <v>       0.49335541       0.70670105       0.57128846 </v>
    <v>       0.43400024       0.28598351       0.56553584 </v>
    <v>       0.47336903       0.82780853       0.56032661 </v>
    <v>       0.93053804       0.25185637       0.56503605 </v>
    <v>       0.97793068       0.81559309       0.56846355 </v>
    <v>       0.23485358       0.44950127       0.56778465 </v>
    <v>       0.18284258       0.99043253       0.56226749 </v>
    <v>       0.70055420       0.97421129       0.56802957 </v>
    <v>       0.30574341       0.02453190       0.56548047 </v>
    <v>       0.28104562       0.56883701       0.56594755 </v>
    <v>       0.81309236       0.03381532       0.57087529 </v>
    <v>       0.05713455       0.20069494       0.65644807 </v>
    <v>       0.05144972       0.71039499       0.66134932 </v>
    <v>       0.54805585       0.20329452       0.65904649 </v>
    <v>       0.53805821       0.71389046       0.66289766 </v>
    <v>       0.20482565       0.44752104       0.65723198 </v>
    <v>       0.20779253       0.95599120       0.65888343 </v>
    <v>       0.70478198       0.47525757       0.66158734 </v>
    <v>       0.70145387       0.95190305       0.65746683 </v>
    <v>       0.45613066       0.29434941       0.66004559 </v>
    <v>       0.44661524       0.80189346       0.65661058 </v>
    <v>       0.96120681       0.28474345       0.66334728 </v>
    <v>       0.95330190       0.79558081       0.65996794 </v>
    <v>       0.29876682       0.04711462       0.65768648 </v>
    <v>       0.29211435       0.54157888       0.66129572 </v>
    <v>       0.79123832       0.04359233       0.66047659 </v>
    <v>       0.81889335       0.53010984       0.65527065 </v>
    <v>       0.04586250       0.20411950       0.75272599 </v>
    <v>       0.04586250       0.70411946       0.75272599 </v>
    <v>       0.54586251       0.20411950       0.75272599 </v>
    <v>       0.54586250       0.70411946       0.75272599 </v>
    <v>       0.20411900       0.45410100       0.75270499 </v>
    <v>       0.20411899       0.95410095       0.75270499 </v>
    <v>       0.70411898       0.45410100       0.75270499 </v>
    <v>       0.70411896       0.95410095       0.75270499 </v>
    <v>       0.45414002       0.29588849       0.75272697 </v>
    <v>       0.45414001       0.79588852       0.75272697 </v>
    <v>       0.95414002       0.29588849       0.75272697 </v>
    <v>       0.95414006       0.79588852       0.75272697 </v>
    <v>       0.29588249       0.04590050       0.75270499 </v>
    <v>       0.29588248       0.54590053       0.75270499 </v>
    <v>       0.79588244       0.04590050       0.75270499 </v>
    <v>       0.79588248       0.54590053       0.75270499 </v>
    <v>       0.76411100       0.54236234       0.55063992 </v>
    <v>       0.50030966       0.01828616       0.55213363 </v>
    <v>       0.48232717       0.51570932       0.55563182 </v>
    <v>       0.99376694       0.00337684       0.55260687 </v>
    <v>       0.03467965       0.50416415       0.55345915 </v>
    <v>       0.24692667       0.24545045       0.55203406 </v>
    <v>       0.25338591       0.76204619       0.55214169 </v>
    <v>       0.74487996       0.21339486       0.55747765 </v>
    <v>       0.70831343       0.79052089       0.54833428 </v>
    <v>       0.00732717       0.99869971       0.65501053 </v>
    <v>       0.01263531       0.48999552       0.65526424 </v>
    <v>       0.50010094       0.00475596       0.65458222 </v>
    <v>       0.50760221       0.49278419       0.65559762 </v>
    <v>       0.25291762       0.24559340       0.65483483 </v>
    <v>       0.24734201       0.75551728       0.65467434 </v>
    <v>       0.74335340       0.25580363       0.65598875 </v>
    <v>       0.74825773       0.75231315       0.65303595 </v>
    <v>       0.14159605       0.10973194       0.60711111 </v>
    <v>       0.14305836       0.61101081       0.61132473 </v>
    <v>       0.64599550       0.10733575       0.60988767 </v>
    <v>       0.62076364       0.62946071       0.61495814 </v>
    <v>       0.35733367       0.39429322       0.61088470 </v>
    <v>       0.36941639       0.88550723       0.60814825 </v>
    <v>       0.88427150       0.37061115       0.61350900 </v>
    <v>       0.86386121       0.88354859       0.61027038 </v>
    <v>       0.11385503       0.35581122       0.60941339 </v>
    <v>       0.12288749       0.87590270       0.60904149 </v>
    <v>       0.58619926       0.34243402       0.60561008 </v>
    <v>       0.61177333       0.86279128       0.61078562 </v>
    <v>       0.38565983       0.13309559       0.60801999 </v>
    <v>       0.38124559       0.63332793       0.61326738 </v>
    <v>       0.88860845       0.14177764       0.61327006 </v>
    <v>       0.91372214       0.65172898       0.61729082 </v>
    <v>       0.00000000       0.00000000       0.75492797 </v>
    <v>       0.00000000       0.50000000       0.75492797 </v>
    <v>       0.50000000       0.00000000       0.75492797 </v>
    <v>       0.49999999       0.50000000       0.75492797 </v>
    <v>       0.25000050       0.25000000       0.75493902 </v>
    <v>       0.25000051       0.74999997       0.75493902 </v>
    <v>       0.75000047       0.25000000       0.75493902 </v>
    <v>       0.75000046       0.74999997       0.75493902 </v>
    <v>       0.13579050       0.11421000       0.70478299 </v>
    <v>       0.13579050       0.61420998       0.70478299 </v>
    <v>       0.63579045       0.11421000       0.70478299 </v>
    <v>       0.63579049       0.61420998       0.70478299 </v>
    <v>       0.36420952       0.38578999       0.70478299 </v>
    <v>       0.36420950       0.88578996       0.70478299 </v>
    <v>       0.86420954       0.38578999       0.70478299 </v>
    <v>       0.86420953       0.88578996       0.70478299 </v>
    <v>       0.11421799       0.36421899       0.70478098 </v>
    <v>       0.11421799       0.86421899       0.70478098 </v>
    <v>       0.61421800       0.36421899       0.70478098 </v>
    <v>       0.61421799       0.86421899       0.70478098 </v>
    <v>       0.38578201       0.13578149       0.70478202 </v>
    <v>       0.38578200       0.63578149       0.70478202 </v>
    <v>       0.88578199       0.13578149       0.70478202 </v>
    <v>       0.88578203       0.63578149       0.70478202 </v>
    <v>       0.13466700       0.11533200       0.80125603 </v>
    <v>       0.13466699       0.61533199       0.80125603 </v>
    <v>       0.63466699       0.11533200       0.80125603 </v>
    <v>       0.63466698       0.61533199       0.80125603 </v>
    <v>       0.36533300       0.38466799       0.80125603 </v>
    <v>       0.36533299       0.88466796       0.80125603 </v>
    <v>       0.86533295       0.38466799       0.80125603 </v>
    <v>       0.86533294       0.88466796       0.80125603 </v>
    <v>       0.11532850       0.36533700       0.80126500 </v>
    <v>       0.11532850       0.86533698       0.80126500 </v>
    <v>       0.61532850       0.36533700       0.80126500 </v>
    <v>       0.61532849       0.86533698       0.80126500 </v>
    <v>       0.38467151       0.13466300       0.80126500 </v>
    <v>       0.38467150       0.63466297       0.80126500 </v>
    <v>       0.88467149       0.13466300       0.80126500 </v>
    <v>       0.88467153       0.63466297       0.80126500 </v>
    <v>       0.99315111       0.00532720       0.60563249 </v>
    <v>       0.00659456       0.50630669       0.60426362 </v>
    <v>       0.50342758       0.00813365       0.60391461 </v>
    <v>       0.49877002       0.50264754       0.60502421 </v>
    <v>       0.24893490       0.25369882       0.60454499 </v>
    <v>       0.24686356       0.75641410       0.60380601 </v>
    <v>       0.74535601       0.25942384       0.60643782 </v>
    <v>       0.73984707       0.75674895       0.60219503 </v>
    <v>       0.00000050       0.00000050       0.70482896 </v>
    <v>       0.00000050       0.50000048       0.70482896 </v>
    <v>       0.50000048       0.00000050       0.70482896 </v>
    <v>       0.50000046       0.50000048       0.70482896 </v>
    <v>       0.24999999       0.24999947       0.70482499 </v>
    <v>       0.25000001       0.74999950       0.70482499 </v>
    <v>       0.74999999       0.24999947       0.70482499 </v>
    <v>       0.74999998       0.74999950       0.70482499 </v>
    <v>       0.00000000       0.00000000       0.80731797 </v>
    <v>       0.00000000       0.50000000       0.80731797 </v>
    <v>       0.50000000       0.00000000       0.80731797 </v>
    <v>       0.49999999       0.50000000       0.80731797 </v>
    <v>       0.24999999       0.25000000       0.80731797 </v>
    <v>       0.25000001       0.74999997       0.80731797 </v>
    <v>       0.74999999       0.25000000       0.80731797 </v>
    <v>       0.74999998       0.74999997       0.80731797 </v>
   </varray>
  </structure>
  <varray name="primitive_index" >
   <v type="int" >        1 </v>
   <v type="int" >        2 </v>
   <v type="int" >        3 </v>
   <v type="int" >        4 </v>
   <v type="int" >        5 </v>
   <v type="int" >        6 </v>
   <v type="int" >        7 </v>
   <v type="int" >        8 </v>
   <v type="int" >        9 </v>
   <v type="int" >       10 </v>
   <v type="int" >       11 </v>
   <v type="int" >       12 </v>
   <v type="int" >       13 </v>
   <v type="int" >       14 </v>
   <v type="int" >       15 </v>
   <v type="int" >       16 </v>
   <v type="int" >       17 </v>
   <v type="int" >       18 </v>
   <v type="int" >       19 </v>
   <v type="int" >       20 </v>
   <v type="int" >       21 </v>
   <v type="int" >       22 </v>
   <v type="int" >       23 </v>
   <v type="int" >       24 </v>
   <v type="int" >       25 </v>
   <v type="int" >       26 </v>
   <v type="int" >       27 </v>
   <v type="int" >       28 </v>
   <v type="int" >       29 </v>
   <v type="int" >       30 </v>
   <v type="int" >       31 </v>
   <v type="int" >       32 </v>
   <v type="int" >       33 </v>
   <v type="int" >       34 </v>
   <v type="int" >       35 </v>
   <v type="int" >       36 </v>
   <v type="int" >       37 </v>
   <v type="int" >       38 </v>
   <v type="int" >       39 </v>
   <v type="int" >       40 </v>
   <v type="int" >       41 </v>
   <v type="int" >       42 </v>
   <v type="int" >       43 </v>
   <v type="int" >       44 </v>
   <v type="int" >       45 </v>
   <v type="int" >       46 </v>
   <v type="int" >       47 </v>
   <v type="int" >       48 </v>
   <v type="int" >       49 </v>
   <v type="int" >       50 </v>
   <v type="int" >       51 </v>
   <v type="int" >       52 </v>
   <v type="int" >       53 </v>
   <v type="int" >       54 </v>
   <v type="int" >       55 </v>
   <v type="int" >       56 </v>
   <v type="int" >       57 </v>
   <v type="int" >       58 </v>
   <v type="int" >       59 </v>
   <v type="int" >       60 </v>
   <v type="int" >       61 </v>
   <v type="int" >       62 </v>
   <v type="int" >       63 </v>
   <v type="int" >       64 </v>
   <v type="int" >       65 </v>
   <v type="int" >       66 </v>
   <v type="int" >       67 </v>
   <v type="int" >       68 </v>
   <v type="int" >       69 </v>
   <v type="int" >       70 </v>
   <v type="int" >       71 </v>
   <v type="int" >       72 </v>
   <v type="int" >       73 </v>
   <v type="int" >       74 </v>
   <v type="int" >       75 </v>
   <v type="int" >       76 </v>
   <v type="int" >       77 </v>
   <v type="int" >       78 </v>
   <v type="int" >       79 </v>
   <v type="int" >       80 </v>
   <v type="int" >       81 </v>
   <v type="int" >       82 </v>
   <v type="int" >       83 </v>
   <v type="int" >       84 </v>
   <v type="int" >       85 </v>
   <v type="int" >       86 </v>
   <v type="int" >       87 </v>
   <v type="int" >       88 </v>
   <v type="int" >       89 </v>
   <v type="int" >       90 </v>
   <v type="int" >       91 </v>
   <v type="int" >       92 </v>
   <v type="int" >       93 </v>
   <v type="int" >       94 </v>
   <v type="int" >       95 </v>
   <v type="int" >       96 </v>
   <v type="int" >       97 </v>
   <v type="int" >       98 </v>
   <v type="int" >       99 </v>
   <v type="int" >      100 </v>
   <v type="int" >      101 </v>
   <v type="int" >      102 </v>
   <v type="int" >      103 </v>
   <v type="int" >      104 </v>
   <v type="int" >      105 </v>
   <v type="int" >      106 </v>
   <v type="int" >      107 </v>
   <v type="int" >      108 </v>
   <v type="int" >      109 </v>
   <v type="int" >      110 </v>
   <v type="int" >      111 </v>
   <v type="int" >      112 </v>
   <v type="int" >      113 </v>
   <v type="int" >      114 </v>
   <v type="int" >      115 </v>
   <v type="int" >      116 </v>
   <v type="int" >      117 </v>
   <v type="int" >      118 </v>
   <v type="int" >      119 </v>
   <v type="int" >      120 </v>
   <v type="int" >      121 </v>
   <v type="int" >      122 </v>
   <v type="int" >      123 </v>
   <v type="int" >      124 </v>
   <v type="int" >      125 </v>
   <v type="int" >      126 </v>
   <v type="int" >      127 </v>
   <v type="int" >      128 </v>
   <v type="int" >      129 </v>
   <v type="int" >      130 </v>
   <v type="int" >      131 </v>
   <v type="int" >      132 </v>
   <v type="int" >      133 </v>
   <v type="int" >      134 </v>
   <v type="int" >      135 </v>
   <v type="int" >      136 </v>
   <v type="int" >      137 </v>
   <v type="int" >      138 </v>
   <v type="int" >      139 </v>
   <v type="int" >      140 </v>
   <v type="int" >      141 </v>
   <v type="int" >      142 </v>
   <v type="int" >      143 </v>
   <v type="int" >      144 </v>
   <v type="int" >      145 </v>
   <v type="int" >      146 </v>
   <v type="int" >      147 </v>
   <v type="int" >      148 </v>
   <v type="int" >      149 </v>
   <v type="int" >      150 </v>
   <v type="int" >      151 </v>
   <v type="int" >      152 </v>
   <v type="int" >      153 </v>
   <v type="int" >      154 </v>
   <v type="int" >      155 </v>
   <v type="int" >      156 </v>
   <v type="int" >      157 </v>
   <v type="int" >      158 </v>
   <v type="int" >      159 </v>
   <v type="int" >      160 </v>
   <v type="int" >      161 </v>
   <v type="int" >      162 </v>
   <v type="int" >      163 </v>
   <v type="int" >      164 </v>
   <v type="int" >      165 </v>
   <v type="int" >      166 </v>
   <v type="int" >      167 </v>
   <v type="int" >      168 </v>
   <v type="int" >      169 </v>
   <v type="int" >      170 </v>
   <v type="int" >      171 </v>
   <v type="int" >      172 </v>
   <v type="int" >      173 </v>
   <v type="int" >      174 </v>
   <v type="int" >      175 </v>
   <v type="int" >      176 </v>
   <v type="int" >      177 </v>
   <v type="int" >      178 </v>
   <v type="int" >      179 </v>
   <v type="int" >      180 </v>
   <v type="int" >      181 </v>
   <v type="int" >      182 </v>
   <v type="int" >      183 </v>
   <v type="int" >      184 </v>
   <v type="int" >      185 </v>
   <v type="int" >      186 </v>
   <v type="int" >      187 </v>
   <v type="int" >      188 </v>
   <v type="int" >      189 </v>
   <v type="int" >      190 </v>
   <v type="int" >      191 </v>
   <v type="int" >      192 </v>
   <v type="int" >      193 </v>
   <v type="int" >      194 </v>
   <v type="int" >      195 </v>
   <v type="int" >      196 </v>
   <v type="int" >      197 </v>
   <v type="int" >      198 </v>
   <v type="int" >      199 </v>
   <v type="int" >      200 </v>
   <v type="int" >      201 </v>
   <v type="int" >      202 </v>
   <v type="int" >      203 </v>
   <v type="int" >      204 </v>
   <v type="int" >      205 </v>
   <v type="int" >      206 </v>
   <v type="int" >      207 </v>
   <v type="int" >      208 </v>
   <v type="int" >      209 </v>
   <v type="int" >      210 </v>
   <v type="int" >      211 </v>
   <v type="int" >      212 </v>
   <v type="int" >      213 </v>
   <v type="int" >      214 </v>
   <v type="int" >      215 </v>
   <v type="int" >      216 </v>
   <v type="int" >      217 </v>
   <v type="int" >      218 </v>
   <v type="int" >      219 </v>
   <v type="int" >      220 </v>
   <v type="int" >      221 </v>
   <v type="int" >      222 </v>
   <v type="int" >      223 </v>
   <v type="int" >      224 </v>
   <v type="int" >      225 </v>
   <v type="int" >      226 </v>
   <v type="int" >      227 </v>
   <v type="int" >      228 </v>
   <v type="int" >      229 </v>
   <v type="int" >      230 </v>
   <v type="int" >      231 </v>
   <v type="int" >      232 </v>
   <v type="int" >      233 </v>
   <v type="int" >      234 </v>
   <v type="int" >      235 </v>
   <v type="int" >      236 </v>
   <v type="int" >      237 </v>
   <v type="int" >      238 </v>
   <v type="int" >      239 </v>
   <v type="int" >      240 </v>
   <v type="int" >      241 </v>
   <v type="int" >      242 </v>
   <v type="int" >      243 </v>
   <v type="int" >      244 </v>
   <v type="int" >      245 </v>
   <v type="int" >      246 </v>
   <v type="int" >      247 </v>
   <v type="int" >      248 </v>
   <v type="int" >      249 </v>
   <v type="int" >      250 </v>
   <v type="int" >      251 </v>
   <v type="int" >      252 </v>
   <v type="int" >      253 </v>
   <v type="int" >      254 </v>
   <v type="int" >      255 </v>
   <v type="int" >      256 </v>
   <v type="int" >      257 </v>
   <v type="int" >      258 </v>
   <v type="int" >      259 </v>
   <v type="int" >      260 </v>
   <v type="int" >      261 </v>
   <v type="int" >      262 </v>
   <v type="int" >      263 </v>
   <v type="int" >      264 </v>
   <v type="int" >      265 </v>
   <v type="int" >      266 </v>
   <v type="int" >      267 </v>
   <v type="int" >      268 </v>
   <v type="int" >      269 </v>
   <v type="int" >      270 </v>
   <v type="int" >      271 </v>
   <v type="int" >      272 </v>
   <v type="int" >      273 </v>
   <v type="int" >      274 </v>
   <v type="int" >      275 </v>
   <v type="int" >      276 </v>
   <v type="int" >      277 </v>
   <v type="int" >      278 </v>
   <v type="int" >      279 </v>
   <v type="int" >      280 </v>
   <v type="int" >      281 </v>
   <v type="int" >      282 </v>
   <v type="int" >      283 </v>
   <v type="int" >      284 </v>
   <v type="int" >      285 </v>
   <v type="int" >      286 </v>
   <v type="int" >      287 </v>
   <v type="int" >      288 </v>
   <v type="int" >      289 </v>
   <v type="int" >      290 </v>
   <v type="int" >      291 </v>
   <v type="int" >      292 </v>
   <v type="int" >      293 </v>
   <v type="int" >      294 </v>
   <v type="int" >      295 </v>
   <v type="int" >      296 </v>
   <v type="int" >      297 </v>
   <v type="int" >      298 </v>
   <v type="int" >      299 </v>
   <v type="int" >      300 </v>
   <v type="int" >      301 </v>
   <v type="int" >      302 </v>
   <v type="int" >      303 </v>
   <v type="int" >      304 </v>
   <v type="int" >      305 </v>
   <v type="int" >      306 </v>
   <v type="int" >      307 </v>
   <v type="int" >      308 </v>
   <v type="int" >      309 </v>
   <v type="int" >      310 </v>
   <v type="int" >      311 </v>
   <v type="int" >      312 </v>
   <v type="int" >      313 </v>
   <v type="int" >      314 </v>
   <v type="int" >      315 </v>
   <v type="int" >      316 </v>
   <v type="int" >      317 </v>
   <v type="int" >      318 </v>
   <v type="int" >      319 </v>
   <v type="int" >      320 </v>
   <v type="int" >      321 </v>
   <v type="int" >      322 </v>
   <v type="int" >      323 </v>
   <v type="int" >      324 </v>
   <v type="int" >      325 </v>
  </varray>
 </primitive_cell>
 <kpoints>
  <generation param="Gamma">
   <v type="int" name="divisions">       3        3        1 </v>
   <v name="usershift">      0.00000000       0.00000000       0.00000000 </v>
   <v name="genvec1">      0.33333333       0.00000000       0.00000000 </v>
   <v name="genvec2">      0.00000000       0.33333333       0.00000000 </v>
   <v name="genvec3">      0.00000000       0.00000000       1.00000000 </v>
   <v name="shift">      0.00000000       0.00000000       0.00000000 </v>
  </generation>
  <varray name="kpointlist" >
   <v>       0.00000000       0.00000000       0.00000000 </v>
   <v>       0.33333333       0.00000000       0.00000000 </v>
   <v>       0.00000000       0.33333333       0.00000000 </v>
   <v>       0.33333333       0.33333333       0.00000000 </v>
   <v>      -0.33333333       0.33333333       0.00000000 </v>
  </varray>
  <varray name="weights" >
   <v>       0.11111111 </v>
   <v>       0.22222222 </v>
   <v>       0.22222222 </v>
   <v>       0.22222222 </v>
   <v>       0.22222222 </v>
  </varray>
 </kpoints>
 <parameters>
  <separator name="general" >
   <i type="string" name="SYSTEM">PSC</i>
   <i type="logical" name="LCOMPAT"> F  </i>
  </separator>
  <separator name="electronic" >
   <i type="string" name="PREC">normal</i>
   <i name="ENMAX">    500.00000000</i>
   <i name="ENAUG">    644.87300000</i>
   <i name="EDIFF">      0.00010000</i>
   <i type="int" name="IALGO">    38</i>
   <i type="int" name="IWAVPR">    10</i>
   <i type="int" name="NBANDS">   732</i>
   <i type="int" name="NBANDSLOW">    -1</i>
   <i type="int" name="NBANDSHIGH">    -1</i>
   <i name="NELECT">   1134.00000000</i>
   <i type="int" name="TURBO">     0</i>
   <i type="int" name="IRESTART">     0</i>
   <i type="int" name="NREBOOT">     0</i>
   <i type="int" name="NMIN">     0</i>
   <i name="EREF">      0.00000000</i>
   <separator name="electronic smearing" >
    <i type="int" name="ISMEAR">     0</i>
    <i name="SIGMA">      0.05000000</i>
    <i name="KSPACING">      0.50000000</i>
    <i type="logical" name="KGAMMA"> T  </i>
    <i type="logical" name="KBLOWUP"> T  </i>
   </separator>
   <separator name="electronic projectors" >
    <i type="logical" name="LREAL"> T  </i>
    <v name="ROPT">     -0.00050000     -0.00050000     -0.00050000     -0.00050000     -0.00050000</v>
    <i type="int" name="LMAXPAW">  -100</i>
    <i type="int" name="LMAXMIX">     2</i>
    <i type="logical" name="NLSPLINE"> F  </i>
   </separator>
   <separator name="electronic startup" >
    <i type="int" name="ISTART">     0</i>
    <i type="int" name="ICHARG">     1</i>
    <i type="int" name="INIWAV">     1</i>
   </separator>
   <separator name="electronic spin" >
    <i type="int" name="ISPIN">     1</i>
    <i type="logical" name="LNONCOLLINEAR"> F  </i>
    <v name="MAGMOM">      1.00000000      1.00000000      1.00000000      1.00000000      1.00000000      1.00000000      1.00000000      1.00000000      1.00000000      1.00000000      1.00000000      1.00000000      1.00000000      1.00000000      1.00000000      1.00000000      1.00000000      1.00000000      1.00000000      1.00000000
      1.00000000      1.00000000      1.00000000      1.00000000      1.00000000      1.00000000      1.00000000      1.00000000      1.00000000      1.00000000      1.00000000      1.00000000      1.00000000      1.00000000      1.00000000      1.00000000      1.00000000      1.00000000      1.00000000      1.00000000
      1.00000000      1.00000000      1.00000000      1.00000000      1.00000000      1.00000000      1.00000000      1.00000000      1.00000000      1.00000000      1.00000000      1.00000000      1.00000000      1.00000000      1.00000000      1.00000000      1.00000000      1.00000000      1.00000000      1.00000000
      1.00000000      1.00000000      1.00000000      1.00000000      1.00000000      1.00000000      1.00000000      1.00000000      1.00000000      1.00000000      1.00000000      1.00000000      1.00000000      1.00000000      1.00000000      1.00000000      1.00000000      1.00000000      1.00000000      1.00000000
      1.00000000      1.00000000      1.00000000      1.00000000      1.00000000      1.00000000      1.00000000      1.00000000      1.00000000      1.00000000      1.00000000      1.00000000      1.00000000      1.00000000      1.00000000      1.00000000      1.00000000      1.00000000      1.00000000      1.00000000
      1.00000000      1.00000000      1.00000000      1.00000000      1.00000000      1.00000000      1.00000000      1.00000000      1.00000000      1.00000000      1.00000000      1.00000000      1.00000000      1.00000000      1.00000000      1.00000000      1.00000000      1.00000000      1.00000000      1.00000000
      1.00000000      1.00000000      1.00000000      1.00000000      1.00000000      1.00000000      1.00000000      1.00000000      1.00000000      1.00000000      1.00000000      1.00000000      1.00000000      1.00000000      1.00000000      1.00000000      1.00000000      1.00000000      1.00000000      1.00000000
      1.00000000      1.00000000      1.00000000      1.00000000      1.00000000      1.00000000      1.00000000      1.00000000      1.00000000      1.00000000      1.00000000      1.00000000      1.00000000      1.00000000      1.00000000      1.00000000      1.00000000      1.00000000      1.00000000      1.00000000
      1.00000000      1.00000000      1.00000000      1.00000000      1.00000000      1.00000000      1.00000000      1.00000000      1.00000000      1.00000000      1.00000000      1.00000000      1.00000000      1.00000000      1.00000000      1.00000000      1.00000000      1.00000000      1.00000000      1.00000000
      1.00000000      1.00000000      1.00000000      1.00000000      1.00000000      1.00000000      1.00000000      1.00000000      1.00000000      1.00000000      1.00000000      1.00000000      1.00000000      1.00000000      1.00000000      1.00000000      1.00000000      1.00000000      1.00000000      1.00000000
      1.00000000      1.00000000      1.00000000      1.00000000      1.00000000      1.00000000      1.00000000      1.00000000      1.00000000      1.00000000      1.00000000      1.00000000      1.00000000      1.00000000      1.00000000      1.00000000      1.00000000      1.00000000      1.00000000      1.00000000
      1.00000000      1.00000000      1.00000000      1.00000000      1.00000000      1.00000000      1.00000000      1.00000000      1.00000000      1.00000000      1.00000000      1.00000000      1.00000000      1.00000000      1.00000000      1.00000000      1.00000000      1.00000000      1.00000000      1.00000000
      1.00000000      1.00000000      1.00000000      1.00000000      1.00000000      1.00000000      1.00000000      1.00000000      1.00000000      1.00000000      1.00000000      1.00000000      1.00000000      1.00000000      1.00000000      1.00000000      1.00000000      1.00000000      1.00000000      1.00000000
      1.00000000      1.00000000      1.00000000      1.00000000      1.00000000      1.00000000      1.00000000      1.00000000      1.00000000      1.00000000      1.00000000      1.00000000      1.00000000      1.00000000      1.00000000      1.00000000      1.00000000      1.00000000      1.00000000      1.00000000
      1.00000000      1.00000000      1.00000000      1.00000000      1.00000000      1.00000000      1.00000000      1.00000000      1.00000000      1.00000000      1.00000000      1.00000000      1.00000000      1.00000000      1.00000000      1.00000000      1.00000000      1.00000000      1.00000000      1.00000000
      1.00000000      1.00000000      1.00000000      1.00000000      1.00000000      1.00000000      1.00000000      1.00000000      1.00000000      1.00000000      1.00000000      1.00000000      1.00000000      1.00000000      1.00000000      1.00000000      1.00000000      1.00000000      1.00000000      1.00000000
      1.00000000      1.00000000      1.00000000      1.00000000      1.00000000</v>
    <i name="NUPDOWN">     -1.00000000</i>
    <i type="logical" name="LSORBIT"> F  </i>
    <v name="SAXIS">      0.00000000      0.00000000      1.00000000</v>
    <i type="logical" name="LSPIRAL"> F  </i>
    <v name="QSPIRAL">      0.00000000      0.00000000      0.00000000</v>
    <i type="logical" name="LZEROZ"> F  </i>
   </separator>
   <separator name="electronic exchange-correlation" >
    <i type="logical" name="LASPH"> F  </i>
    <i type="logical" name="LMETAGGA"> F  </i>
   </separator>
   <separator name="electronic convergence" >
    <i type="int" name="NELM">   600</i>
    <i type="int" name="NELMDL">     0</i>
    <i type="int" name="NELMIN">     2</i>
    <i name="ENINI">    500.00000000</i>
    <separator name="electronic convergence detail" >
     <i type="logical" name="LDIAG"> T  </i>
     <i type="logical" name="LSUBROT"> F  </i>
     <i name="WEIMIN">      0.00000000</i>
     <i name="EBREAK">      0.00000003</i>
     <i name="DEPER">      0.30000000</i>
     <i type="int" name="NRMM">     4</i>
     <i name="TIME">      0.40000000</i>
    </separator>
   </separator>
   <separator name="electronic mixer" >
    <i name="AMIX">      0.40000000</i>
    <i name="BMIX">      0.01000000</i>
    <i name="AMIN">      0.01000000</i>
    <i name="AMIX_MAG">      1.60000000</i>
    <i name="BMIX_MAG">      0.01000000</i>
    <separator name="electronic mixer details" >
     <i type="int" name="IMIX">     4</i>
     <i type="logical" name="MIXFIRST"> F  </i>
     <i type="int" name="MAXMIX">   -45</i>
     <i name="WC">    100.00000000</i>
     <i type="int" name="INIMIX">     1</i>
     <i type="int" name="MIXPRE">     1</i>
     <i type="int" name="MREMOVE">     5</i>
    </separator>
   </separator>
   <separator name="electronic dipolcorrection" >
    <i type="logical" name="LDIPOL"> T  </i>
    <i type="logical" name="LMONO"> F  </i>
    <i type="int" name="IDIPOL">     3</i>
    <i name="EPSILON">      1.00000000</i>
    <v name="DIPOL">   -100.00000000   -100.00000000   -100.00000000</v>
    <i name="EFIELD">      0.00000000</i>
   </separator>
  </separator>
  <separator name="grids" >
   <i type="int" name="NGX">   100</i>
   <i type="int" name="NGY">   100</i>
   <i type="int" name="NGZ">   350</i>
   <i type="int" name="NGXF">   200</i>
   <i type="int" name="NGYF">   200</i>
   <i type="int" name="NGZF">   700</i>
   <i type="logical" name="ADDGRID"> F  </i>
  </separator>
  <separator name="ionic" >
   <i type="int" name="NSW">     0</i>
   <i type="int" name="IBRION">    -1</i>
   <i type="int" name="MDALGO">     0</i>
   <i type="int" name="ISIF">     2</i>
   <i name="PSTRESS">      0.00000000</i>
   <i name="EDIFFG">      0.00100000</i>
   <i type="int" name="NFREE">     0</i>
   <i name="POTIM">      0.50000000</i>
   <i name="SMASS">     -3.00000000</i>
   <i name="SCALEE">      1.00000000</i>
  </separator>
  <separator name="ionic md" >
   <i name="TEBEG">      0.00010000</i>
   <i name="TEEND">      0.00010000</i>
   <i type="int" name="NBLOCK">     1</i>
   <i type="int" name="KBLOCK">     1</i>
   <i type="int" name="NPACO">   256</i>
   <i name="APACO">     16.00000000</i>
  </separator>
  <separator name="symmetry" >
   <i type="int" name="ISYM">     0</i>
   <i name="SYMPREC">      0.00001000</i>
  </separator>
  <separator name="dos" >
   <i type="int" name="LORBIT">     0</i>
   <v name="RWIGS">     -1.00000000     -1.00000000     -1.00000000     -1.00000000     -1.00000000</v>
   <i type="int" name="NEDOS">   301</i>
   <i name="EMIN">     10.00000000</i>
   <i name="EMAX">    -10.00000000</i>
   <i name="EFERMI">      0.00000000</i>
  </separator>
  <separator name="writing" >
   <i type="int" name="NWRITE">     2</i>
   <i type="logical" name="LWAVE"> F  </i>
   <i type="logical" name="LDOWNSAMPLE"> F  </i>
   <i type="logical" name="LCHARG"> T  </i>
   <i type="logical" name="LPARD"> F  </i>
   <i type="logical" name="LVTOT"> T  </i>
   <i type="logical" name="LVHAR"> F  </i>
   <i type="logical" name="LELF"> F  </i>
   <i type="logical" name="LOPTICS"> F  </i>
   <v name="STM">      0.00000000      0.00000000      0.00000000      0.00000000      0.00000000      0.00000000      0.00000000</v>
  </separator>
  <separator name="performance" >
   <i type="int" name="NPAR">     4</i>
   <i type="int" name="NSIM">     4</i>
   <i type="int" name="NBLK">    -1</i>
   <i type="logical" name="LPLANE"> T  </i>
   <i type="logical" name="LSCALAPACK"> T  </i>
   <i type="logical" name="LSCAAWARE"> F  </i>
   <i type="logical" name="LSCALU"> F  </i>
   <i type="logical" name="LASYNC"> F  </i>
   <i type="logical" name="LORBITALREAL"> F  </i>
  </separator>
  <separator name="miscellaneous" >
   <i type="int" name="IDIOT">     3</i>
   <i type="int" name="PHON_NSTRUCT">    -1</i>
   <i type="logical" name="LMUSIC"> F  </i>
   <v name="POMASS">      1.00000000     12.01100000     14.00100000    126.90400000    207.20000000</v>
   <v name="DARWINR">      0.00000000      0.00000000      0.00000000      0.00000000      0.00000000</v>
   <v name="DARWINV">      1.00000000      1.00000000      1.00000000      1.00000000      1.00000000</v>
   <i type="logical" name="LCORR"> T  </i>
  </separator>
  <i type="logical" name="GGA_COMPAT"> F  </i>
  <i type="logical" name="LBERRY"> F  </i>
  <i type="int" name="ICORELEVEL">     0</i>
  <i type="logical" name="LDAU"> F  </i>
  <i type="int" name="I_CONSTRAINED_M">     0</i>
  <separator name="electronic exchange-correlation" >
   <i type="string" name="GGA">--</i>
   <i type="int" name="VOSKOWN">     0</i>
   <i type="logical" name="LHFCALC"> F  </i>
   <i type="string" name="PRECFOCK"></i>
   <i type="logical" name="LSYMGRAD"> F  </i>
   <i type="logical" name="LHFONE"> F  </i>
   <i type="logical" name="LRHFCALC"> F  </i>
   <i type="logical" name="LTHOMAS"> F  </i>
   <i type="logical" name="LMODELHF"> F  </i>
   <i type="logical" name="LFOCKACE"> F  </i>
   <i name="ENCUT4O">     -1.00000000</i>
   <i type="int" name="EXXOEP">     0</i>
   <i type="int" name="FOURORBIT">     0</i>
   <i name="AEXX">      0.00000000</i>
   <i name="HFALPHA">      0.00000000</i>
   <i name="MCALPHA">      0.00000000</i>
   <i name="ALDAX">      1.00000000</i>
   <i name="AGGAX">      1.00000000</i>
   <i name="ALDAC">      1.00000000</i>
   <i name="AGGAC">      1.00000000</i>
   <i type="int" name="NKREDX">     1</i>
   <i type="int" name="NKREDY">     1</i>
   <i type="int" name="NKREDZ">     1</i>
   <i type="logical" name="SHIFTRED"> F  </i>
   <i type="logical" name="ODDONLY"> F  </i>
   <i type="logical" name="EVENONLY"> F  </i>
   <i type="int" name="LMAXFOCK">     0</i>
   <i type="int" name="NMAXFOCKAE">     0</i>
   <i type="logical" name="LFOCKAEDFT"> F  </i>
   <i name="HFSCREEN">      0.00000000</i>
   <i name="HFSCREENC">      0.00000000</i>
   <i type="int" name="NBANDSGWLOW">     0</i>
  </separator>
  <separator name="vdW DFT" >
   <i type="logical" name="LUSE_VDW"> F  </i>
   <i name="Zab_VDW">     -0.84910000</i>
   <i name="PARAM1">      0.12340000</i>
   <i name="PARAM2">      1.00000000</i>
   <i name="PARAM3">      0.00000000</i>
  </separator>
  <separator name="model GW" >
   <i type="int" name="MODEL_GW">     0</i>
   <i name="MODEL_EPS0">     37.63423484</i>
   <i name="MODEL_ALPHA">      1.00000000</i>
  </separator>
  <separator name="linear response parameters" >
   <i type="logical" name="LEPSILON"> F  </i>
   <i type="logical" name="LRPA"> F  </i>
   <i type="logical" name="LNABLA"> F  </i>
   <i type="logical" name="LVEL"> F  </i>
   <i type="int" name="KINTER">     0</i>
   <i name="CSHIFT">      0.10000000</i>
   <i name="OMEGAMAX">     -1.00000000</i>
   <i name="DEG_THRESHOLD">      0.00200000</i>
   <i name="RTIME">     -0.10000000</i>
   <i name="WPLASMAI">      0.00000000</i>
   <v name="DFIELD">      0.00000000      0.00000000      0.00000000</v>
   <v name="WPLASMA">      0.00000000      0.00000000      0.00000000      0.00000000      0.00000000      0.00000000      0.00000000      0.00000000      0.00000000</v>
  </separator>
  <separator name="orbital magnetization" >
   <i type="logical" name="NUCIND"> F  </i>
   <v name="MAGPOS">      0.00000000      0.00000000      0.00000000</v>
   <i type="logical" name="LNICSALL"> T  </i>
   <i type="logical" name="ORBITALMAG"> F  </i>
   <i type="logical" name="LMAGBLOCH"> F  </i>
   <i type="logical" name="LCHIMAG"> F  </i>
   <i type="logical" name="LGAUGE"> T  </i>
   <i type="int" name="MAGATOM">     0</i>
   <v name="MAGDIPOL">      0.00000000      0.00000000      0.00000000</v>
   <v name="AVECCONST">      0.00000000      0.00000000      0.00000000</v>
  </separator>
  <separator name="response functions" >
   <i type="logical" name="LFINITE_TEMPERATURE"> F  </i>
   <i type="logical" name="LADDER"> F  </i>
   <i type="logical" name="LRPAFORCE"> F  </i>
   <i type="logical" name="LFXC"> F  </i>
   <i type="logical" name="LHARTREE"> T  </i>
   <i type="int" name="IBSE">     0</i>
   <v type="int" name="KPOINT">    -1     0     0     0</v>
   <i type="logical" name="LTCTC"> F  </i>
   <i type="logical" name="LTCTE"> F  </i>
   <i type="logical" name="LTETE"> F  </i>
   <i type="logical" name="LTRIPLET"> F  </i>
   <i type="logical" name="LFXCEPS"> F  </i>
   <i type="logical" name="LFXHEG"> F  </i>
   <i type="int" name="NATURALO">     2</i>
   <i type="logical" name="LHOLEGF"> F  </i>
   <i type="logical" name="L2ORDER"> F  </i>
   <i type="logical" name="LDMP1"> F  </i>
   <i type="logical" name="LMP2LT"> F  </i>
   <i type="logical" name="LSMP2LT"> F  </i>
   <i type="logical" name="LGWLF"> F  </i>
   <i name="ENCUTGW">     -2.00000000</i>
   <i name="ENCUTGWSOFT">     -2.00000000</i>
   <i name="ENCUTLF">     -1.00000000</i>
   <i type="logical" name="LESF_SPLINES"> F  </i>
   <i type="int" name="LMAXMP2">    -1</i>
   <i name="SCISSOR">      0.00000000</i>
   <i type="int" name="NOMEGA">     0</i>
   <i type="int" name="NOMEGAR">     0</i>
   <i type="int" name="NBANDSGW">    -1</i>
   <i type="int" name="NBANDSO">    -1</i>
   <i type="int" name="NBANDSV">    -1</i>
   <i type="int" name="NELM">   600</i>
   <i type="int" name="NELMHF">     1</i>
   <i type="int" name="DIM">     3</i>
   <i type="int" name="IESPILON">     4</i>
   <i type="int" name="ANTIRES">     0</i>
   <i name="OMEGAMAX">    -30.00000000</i>
   <i name="OMEGAMIN">    -30.00000000</i>
   <i name="OMEGATL">   -200.00000000</i>
   <i type="int" name="OMEGAGRID">     0</i>
   <i name="CSHIFT">     -0.10000000</i>
   <i type="logical" name="LSELFENERGY"> F  </i>
   <i type="logical" name="LSPECTRAL"> F  </i>
   <i type="logical" name="LSPECTRALGW"> F  </i>
   <i type="logical" name="LSINGLES"> F  </i>
   <i type="logical" name="LFERMIGW"> F  </i>
   <i type="logical" name="ODDONLYGW"> F  </i>
   <i type="logical" name="EVENONLYGW"> F  </i>
   <i type="int" name="NKREDLFX">     1</i>
   <i type="int" name="NKREDLFY">     1</i>
   <i type="int" name="NKREDLFZ">     1</i>
   <i type="int" name="MAXMEM">  2800</i>
   <i type="int" name="TELESCOPE">     0</i>
   <i type="int" name="NTAUPAR">    -1</i>
   <i type="int" name="NOMEGAPAR">    -1</i>
   <i name="DAMP_NEWTON">      0.80000001</i>
   <i name="LAMBDA">      1.00000000</i>
  </separator>
  <separator name="External order field" >
   <i name="OFIELD_KAPPA">      0.00000000</i>
   <v name="OFIELD_K">      0.00000000      0.00000000      0.00000000</v>
   <i name="OFIELD_Q6_NEAR">      0.00000000</i>
   <i name="OFIELD_Q6_FAR">      0.00000000</i>
   <i name="OFIELD_A">      0.00000000</i>
  </separator>
 </parameters>
 <atominfo>
  <atoms>     325 </atoms>
  <types>       5 </types>
  <array name="atoms" >
   <dimension dim="1">ion</dimension>
   <field type="string">element</field>
   <field type="int">atomtype</field>
   <set>
    <rc><c>H </c><c>   1</c></rc>
    <rc><c>H </c><c>   1</c></rc>
    <rc><c>H </c><c>   1</c></rc>
    <rc><c>H </c><c>   1</c></rc>
    <rc><c>H </c><c>   1</c></rc>
    <rc><c>H </c><c>   1</c></rc>
    <rc><c>H </c><c>   1</c></rc>
    <rc><c>H </c><c>   1</c></rc>
    <rc><c>H </c><c>   1</c></rc>
    <rc><c>H </c><c>   1</c></rc>
    <rc><c>H </c><c>   1</c></rc>
    <rc><c>H </c><c>   1</c></rc>
    <rc><c>H </c><c>   1</c></rc>
    <rc><c>H </c><c>   1</c></rc>
    <rc><c>H </c><c>   1</c></rc>
    <rc><c>H </c><c>   1</c></rc>
    <rc><c>H </c><c>   1</c></rc>
    <rc><c>H </c><c>   1</c></rc>
    <rc><c>H </c><c>   1</c></rc>
    <rc><c>H </c><c>   1</c></rc>
    <rc><c>H </c><c>   1</c></rc>
    <rc><c>H </c><c>   1</c></rc>
    <rc><c>H </c><c>   1</c></rc>
    <rc><c>H </c><c>   1</c></rc>
    <rc><c>H </c><c>   1</c></rc>
    <rc><c>H </c><c>   1</c></rc>
    <rc><c>H </c><c>   1</c></rc>
    <rc><c>H </c><c>   1</c></rc>
    <rc><c>H </c><c>   1</c></rc>
    <rc><c>H </c><c>   1</c></rc>
    <rc><c>H </c><c>   1</c></rc>
    <rc><c>H </c><c>   1</c></rc>
    <rc><c>H </c><c>   1</c></rc>
    <rc><c>H </c><c>   1</c></rc>
    <rc><c>H </c><c>   1</c></rc>
    <rc><c>H </c><c>   1</c></rc>
    <rc><c>H </c><c>   1</c></rc>
    <rc><c>H </c><c>   1</c></rc>
    <rc><c>H </c><c>   1</c></rc>
    <rc><c>H </c><c>   1</c></rc>
    <rc><c>H </c><c>   1</c></rc>
    <rc><c>H </c><c>   1</c></rc>
    <rc><c>H </c><c>   1</c></rc>
    <rc><c>H </c><c>   1</c></rc>
    <rc><c>H </c><c>   1</c></rc>
    <rc><c>H </c><c>   1</c></rc>
    <rc><c>H </c><c>   1</c></rc>
    <rc><c>H </c><c>   1</c></rc>
    <rc><c>H </c><c>   1</c></rc>
    <rc><c>H </c><c>   1</c></rc>
    <rc><c>H </c><c>   1</c></rc>
    <rc><c>H </c><c>   1</c></rc>
    <rc><c>H </c><c>   1</c></rc>
    <rc><c>H </c><c>   1</c></rc>
    <rc><c>H </c><c>   1</c></rc>
    <rc><c>H </c><c>   1</c></rc>
    <rc><c>H </c><c>   1</c></rc>
    <rc><c>H </c><c>   1</c></rc>
    <rc><c>H </c><c>   1</c></rc>
    <rc><c>H </c><c>   1</c></rc>
    <rc><c>H </c><c>   1</c></rc>
    <rc><c>H </c><c>   1</c></rc>
    <rc><c>H </c><c>   1</c></rc>
    <rc><c>H </c><c>   1</c></rc>
    <rc><c>H </c><c>   1</c></rc>
    <rc><c>H </c><c>   1</c></rc>
    <rc><c>H </c><c>   1</c></rc>
    <rc><c>H </c><c>   1</c></rc>
    <rc><c>H </c><c>   1</c></rc>
    <rc><c>H </c><c>   1</c></rc>
    <rc><c>H </c><c>   1</c></rc>
    <rc><c>H </c><c>   1</c></rc>
    <rc><c>H </c><c>   1</c></rc>
    <rc><c>H </c><c>   1</c></rc>
    <rc><c>H </c><c>   1</c></rc>
    <rc><c>H </c><c>   1</c></rc>
    <rc><c>H </c><c>   1</c></rc>
    <rc><c>H </c><c>   1</c></rc>
    <rc><c>H </c><c>   1</c></rc>
    <rc><c>H </c><c>   1</c></rc>
    <rc><c>H </c><c>   1</c></rc>
    <rc><c>H </c><c>   1</c></rc>
    <rc><c>H </c><c>   1</c></rc>
    <rc><c>H </c><c>   1</c></rc>
    <rc><c>H </c><c>   1</c></rc>
    <rc><c>H </c><c>   1</c></rc>
    <rc><c>H </c><c>   1</c></rc>
    <rc><c>H </c><c>   1</c></rc>
    <rc><c>H </c><c>   1</c></rc>
    <rc><c>H </c><c>   1</c></rc>
    <rc><c>H </c><c>   1</c></rc>
    <rc><c>H </c><c>   1</c></rc>
    <rc><c>H </c><c>   1</c></rc>
    <rc><c>H </c><c>   1</c></rc>
    <rc><c>H </c><c>   1</c></rc>
    <rc><c>H </c><c>   1</c></rc>
    <rc><c>H </c><c>   1</c></rc>
    <rc><c>H </c><c>   1</c></rc>
    <rc><c>H </c><c>   1</c></rc>
    <rc><c>H </c><c>   1</c></rc>
    <rc><c>H </c><c>   1</c></rc>
    <rc><c>H </c><c>   1</c></rc>
    <rc><c>H </c><c>   1</c></rc>
    <rc><c>H </c><c>   1</c></rc>
    <rc><c>H </c><c>   1</c></rc>
    <rc><c>H </c><c>   1</c></rc>
    <rc><c>H </c><c>   1</c></rc>
    <rc><c>H </c><c>   1</c></rc>
    <rc><c>H </c><c>   1</c></rc>
    <rc><c>H </c><c>   1</c></rc>
    <rc><c>H </c><c>   1</c></rc>
    <rc><c>H </c><c>   1</c></rc>
    <rc><c>H </c><c>   1</c></rc>
    <rc><c>H </c><c>   1</c></rc>
    <rc><c>H </c><c>   1</c></rc>
    <rc><c>H </c><c>   1</c></rc>
    <rc><c>H </c><c>   1</c></rc>
    <rc><c>H </c><c>   1</c></rc>
    <rc><c>H </c><c>   1</c></rc>
    <rc><c>H </c><c>   1</c></rc>
    <rc><c>H </c><c>   1</c></rc>
    <rc><c>H </c><c>   1</c></rc>
    <rc><c>H </c><c>   1</c></rc>
    <rc><c>H </c><c>   1</c></rc>
    <rc><c>H </c><c>   1</c></rc>
    <rc><c>H </c><c>   1</c></rc>
    <rc><c>H </c><c>   1</c></rc>
    <rc><c>H </c><c>   1</c></rc>
    <rc><c>H </c><c>   1</c></rc>
    <rc><c>H </c><c>   1</c></rc>
    <rc><c>H </c><c>   1</c></rc>
    <rc><c>H </c><c>   1</c></rc>
    <rc><c>H </c><c>   1</c></rc>
    <rc><c>H </c><c>   1</c></rc>
    <rc><c>H </c><c>   1</c></rc>
    <rc><c>H </c><c>   1</c></rc>
    <rc><c>H </c><c>   1</c></rc>
    <rc><c>H </c><c>   1</c></rc>
    <rc><c>H </c><c>   1</c></rc>
    <rc><c>H </c><c>   1</c></rc>
    <rc><c>H </c><c>   1</c></rc>
    <rc><c>H </c><c>   1</c></rc>
    <rc><c>H </c><c>   1</c></rc>
    <rc><c>C </c><c>   2</c></rc>
    <rc><c>C </c><c>   2</c></rc>
    <rc><c>C </c><c>   2</c></rc>
    <rc><c>C </c><c>   2</c></rc>
    <rc><c>C </c><c>   2</c></rc>
    <rc><c>C </c><c>   2</c></rc>
    <rc><c>C </c><c>   2</c></rc>
    <rc><c>C </c><c>   2</c></rc>
    <rc><c>C </c><c>   2</c></rc>
    <rc><c>C </c><c>   2</c></rc>
    <rc><c>C </c><c>   2</c></rc>
    <rc><c>C </c><c>   2</c></rc>
    <rc><c>C </c><c>   2</c></rc>
    <rc><c>C </c><c>   2</c></rc>
    <rc><c>C </c><c>   2</c></rc>
    <rc><c>C </c><c>   2</c></rc>
    <rc><c>C </c><c>   2</c></rc>
    <rc><c>C </c><c>   2</c></rc>
    <rc><c>C </c><c>   2</c></rc>
    <rc><c>C </c><c>   2</c></rc>
    <rc><c>C </c><c>   2</c></rc>
    <rc><c>C </c><c>   2</c></rc>
    <rc><c>C </c><c>   2</c></rc>
    <rc><c>C </c><c>   2</c></rc>
    <rc><c>C </c><c>   2</c></rc>
    <rc><c>C </c><c>   2</c></rc>
    <rc><c>C </c><c>   2</c></rc>
    <rc><c>C </c><c>   2</c></rc>
    <rc><c>C </c><c>   2</c></rc>
    <rc><c>C </c><c>   2</c></rc>
    <rc><c>C </c><c>   2</c></rc>
    <rc><c>C </c><c>   2</c></rc>
    <rc><c>C </c><c>   2</c></rc>
    <rc><c>C </c><c>   2</c></rc>
    <rc><c>C </c><c>   2</c></rc>
    <rc><c>C </c><c>   2</c></rc>
    <rc><c>C </c><c>   2</c></rc>
    <rc><c>C </c><c>   2</c></rc>
    <rc><c>C </c><c>   2</c></rc>
    <rc><c>N </c><c>   3</c></rc>
    <rc><c>N </c><c>   3</c></rc>
    <rc><c>N </c><c>   3</c></rc>
    <rc><c>N </c><c>   3</c></rc>
    <rc><c>N </c><c>   3</c></rc>
    <rc><c>N </c><c>   3</c></rc>
    <rc><c>N </c><c>   3</c></rc>
    <rc><c>N </c><c>   3</c></rc>
    <rc><c>N </c><c>   3</c></rc>
    <rc><c>N </c><c>   3</c></rc>
    <rc><c>N </c><c>   3</c></rc>
    <rc><c>N </c><c>   3</c></rc>
    <rc><c>N </c><c>   3</c></rc>
    <rc><c>N </c><c>   3</c></rc>
    <rc><c>N </c><c>   3</c></rc>
    <rc><c>N </c><c>   3</c></rc>
    <rc><c>N </c><c>   3</c></rc>
    <rc><c>N </c><c>   3</c></rc>
    <rc><c>N </c><c>   3</c></rc>
    <rc><c>N </c><c>   3</c></rc>
    <rc><c>N </c><c>   3</c></rc>
    <rc><c>N </c><c>   3</c></rc>
    <rc><c>N </c><c>   3</c></rc>
    <rc><c>N </c><c>   3</c></rc>
    <rc><c>N </c><c>   3</c></rc>
    <rc><c>N </c><c>   3</c></rc>
    <rc><c>N </c><c>   3</c></rc>
    <rc><c>N </c><c>   3</c></rc>
    <rc><c>N </c><c>   3</c></rc>
    <rc><c>N </c><c>   3</c></rc>
    <rc><c>N </c><c>   3</c></rc>
    <rc><c>N </c><c>   3</c></rc>
    <rc><c>N </c><c>   3</c></rc>
    <rc><c>N </c><c>   3</c></rc>
    <rc><c>N </c><c>   3</c></rc>
    <rc><c>N </c><c>   3</c></rc>
    <rc><c>N </c><c>   3</c></rc>
    <rc><c>N </c><c>   3</c></rc>
    <rc><c>N </c><c>   3</c></rc>
    <rc><c>N </c><c>   3</c></rc>
    <rc><c>N </c><c>   3</c></rc>
    <rc><c>N </c><c>   3</c></rc>
    <rc><c>N </c><c>   3</c></rc>
    <rc><c>N </c><c>   3</c></rc>
    <rc><c>N </c><c>   3</c></rc>
    <rc><c>N </c><c>   3</c></rc>
    <rc><c>N </c><c>   3</c></rc>
    <rc><c>I </c><c>   4</c></rc>
    <rc><c>I </c><c>   4</c></rc>
    <rc><c>I </c><c>   4</c></rc>
    <rc><c>I </c><c>   4</c></rc>
    <rc><c>I </c><c>   4</c></rc>
    <rc><c>I </c><c>   4</c></rc>
    <rc><c>I </c><c>   4</c></rc>
    <rc><c>I </c><c>   4</c></rc>
    <rc><c>I </c><c>   4</c></rc>
    <rc><c>I </c><c>   4</c></rc>
    <rc><c>I </c><c>   4</c></rc>
    <rc><c>I </c><c>   4</c></rc>
    <rc><c>I </c><c>   4</c></rc>
    <rc><c>I </c><c>   4</c></rc>
    <rc><c>I </c><c>   4</c></rc>
    <rc><c>I </c><c>   4</c></rc>
    <rc><c>I </c><c>   4</c></rc>
    <rc><c>I </c><c>   4</c></rc>
    <rc><c>I </c><c>   4</c></rc>
    <rc><c>I </c><c>   4</c></rc>
    <rc><c>I </c><c>   4</c></rc>
    <rc><c>I </c><c>   4</c></rc>
    <rc><c>I </c><c>   4</c></rc>
    <rc><c>I </c><c>   4</c></rc>
    <rc><c>I </c><c>   4</c></rc>
    <rc><c>I </c><c>   4</c></rc>
    <rc><c>I </c><c>   4</c></rc>
    <rc><c>I </c><c>   4</c></rc>
    <rc><c>I </c><c>   4</c></rc>
    <rc><c>I </c><c>   4</c></rc>
    <rc><c>I </c><c>   4</c></rc>
    <rc><c>I </c><c>   4</c></rc>
    <rc><c>I </c><c>   4</c></rc>
    <rc><c>I </c><c>   4</c></rc>
    <rc><c>I </c><c>   4</c></rc>
    <rc><c>I </c><c>   4</c></rc>
    <rc><c>I </c><c>   4</c></rc>
    <rc><c>I </c><c>   4</c></rc>
    <rc><c>I </c><c>   4</c></rc>
    <rc><c>I </c><c>   4</c></rc>
    <rc><c>I </c><c>   4</c></rc>
    <rc><c>I </c><c>   4</c></rc>
    <rc><c>I </c><c>   4</c></rc>
    <rc><c>I </c><c>   4</c></rc>
    <rc><c>I </c><c>   4</c></rc>
    <rc><c>I </c><c>   4</c></rc>
    <rc><c>I </c><c>   4</c></rc>
    <rc><c>I </c><c>   4</c></rc>
    <rc><c>I </c><c>   4</c></rc>
    <rc><c>I </c><c>   4</c></rc>
    <rc><c>I </c><c>   4</c></rc>
    <rc><c>I </c><c>   4</c></rc>
    <rc><c>I </c><c>   4</c></rc>
    <rc><c>I </c><c>   4</c></rc>
    <rc><c>I </c><c>   4</c></rc>
    <rc><c>I </c><c>   4</c></rc>
    <rc><c>I </c><c>   4</c></rc>
    <rc><c>I </c><c>   4</c></rc>
    <rc><c>I </c><c>   4</c></rc>
    <rc><c>I </c><c>   4</c></rc>
    <rc><c>I </c><c>   4</c></rc>
    <rc><c>I </c><c>   4</c></rc>
    <rc><c>I </c><c>   4</c></rc>
    <rc><c>I </c><c>   4</c></rc>
    <rc><c>I </c><c>   4</c></rc>
    <rc><c>I </c><c>   4</c></rc>
    <rc><c>I </c><c>   4</c></rc>
    <rc><c>I </c><c>   4</c></rc>
    <rc><c>I </c><c>   4</c></rc>
    <rc><c>I </c><c>   4</c></rc>
    <rc><c>I </c><c>   4</c></rc>
    <rc><c>I </c><c>   4</c></rc>
    <rc><c>Pb</c><c>   5</c></rc>
    <rc><c>Pb</c><c>   5</c></rc>
    <rc><c>Pb</c><c>   5</c></rc>
    <rc><c>Pb</c><c>   5</c></rc>
    <rc><c>Pb</c><c>   5</c></rc>
    <rc><c>Pb</c><c>   5</c></rc>
    <rc><c>Pb</c><c>   5</c></rc>
    <rc><c>Pb</c><c>   5</c></rc>
    <rc><c>Pb</c><c>   5</c></rc>
    <rc><c>Pb</c><c>   5</c></rc>
    <rc><c>Pb</c><c>   5</c></rc>
    <rc><c>Pb</c><c>   5</c></rc>
    <rc><c>Pb</c><c>   5</c></rc>
    <rc><c>Pb</c><c>   5</c></rc>
    <rc><c>Pb</c><c>   5</c></rc>
    <rc><c>Pb</c><c>   5</c></rc>
    <rc><c>Pb</c><c>   5</c></rc>
    <rc><c>Pb</c><c>   5</c></rc>
    <rc><c>Pb</c><c>   5</c></rc>
    <rc><c>Pb</c><c>   5</c></rc>
    <rc><c>Pb</c><c>   5</c></rc>
    <rc><c>Pb</c><c>   5</c></rc>
    <rc><c>Pb</c><c>   5</c></rc>
    <rc><c>Pb</c><c>   5</c></rc>
   </set>
  </array>
  <array name="atomtypes" >
   <dimension dim="1">type</dimension>
   <field type="int">atomspertype</field>
   <field type="string">element</field>
   <field>mass</field>
   <field>valence</field>
   <field type="string">pseudopotential</field>
   <set>
    <rc><c> 143</c><c>H </c><c>      1.00000000</c><c>      1.00000000</c><c>  PAW_PBE H 15Jun2001                   </c></rc>
    <rc><c>  39</c><c>C </c><c>     12.01100000</c><c>      4.00000000</c><c>  PAW_PBE C 08Apr2002                   </c></rc>
    <rc><c>  47</c><c>N </c><c>     14.00100000</c><c>      5.00000000</c><c>  PAW_PBE N 08Apr2002                   </c></rc>
    <rc><c>  72</c><c>I </c><c>    126.90400000</c><c>      7.00000000</c><c>  PAW_PBE I 08Apr2002                   </c></rc>
    <rc><c>  24</c><c>Pb</c><c>    207.20000000</c><c>      4.00000000</c><c>  PAW_PBE Pb 08Apr2002                  </c></rc>
   </set>
  </array>
 </atominfo>
 <structure name="initialpos" >
  <crystal>
   <varray name="basis" >
    <v>      18.06080055       0.00000000       0.00000000 </v>
    <v>      -0.00491865      18.06279945       0.00000000 </v>
    <v>       0.00000000       0.00000000      62.48749924 </v>
   </varray>
   <i name="volume">  20385.21054034 </i>
   <varray name="rec_basis" >
    <v>       0.05536853       0.00001508      -0.00000000 </v>
    <v>       0.00000000       0.05536240       0.00000000 </v>
    <v>       0.00000000      -0.00000000       0.01600320 </v>
   </varray>
  </crystal>
  <varray name="positions" >
   <v>       0.45466591       0.32135119       0.57736572 </v>
   <v>       0.44962002       0.84570838       0.57466658 </v>
   <v>       0.92479678       0.24938834       0.58121946 </v>
   <v>       0.94979352       0.80611712       0.58214866 </v>
   <v>       0.29860928       0.05988900       0.57790892 </v>
   <v>       0.31382815       0.56387572       0.57894563 </v>
   <v>       0.79387600       0.07416356       0.58031999 </v>
   <v>       0.10857537       0.23182418       0.55815583 </v>
   <v>       0.09412142       0.67996863       0.56442423 </v>
   <v>       0.57072988       0.17355597       0.55623564 </v>
   <v>       0.50026120       0.65256055       0.56651370 </v>
   <v>       0.36055128       0.01555025       0.56076585 </v>
   <v>       0.27905048       0.62046213       0.55852877 </v>
   <v>       0.86848084       0.03587793       0.56635547 </v>
   <v>       0.06284740       0.22562396       0.58260243 </v>
   <v>       0.02967080       0.69165365       0.58477645 </v>
   <v>       0.57060498       0.25082956       0.57387314 </v>
   <v>       0.47435959       0.71404046       0.58653797 </v>
   <v>       0.26671278       0.43473372       0.58051620 </v>
   <v>       0.16628373       0.02361970       0.57438295 </v>
   <v>       0.67471608       0.00921185       0.57831678 </v>
   <v>       0.37797578       0.28850793       0.56244917 </v>
   <v>       0.47896740       0.86746810       0.54916355 </v>
   <v>       0.88196453       0.25378314       0.55665254 </v>
   <v>       0.97351234       0.86774973       0.56177191 </v>
   <v>       0.19912947       0.41029742       0.56177844 </v>
   <v>       0.14273054       0.96134494       0.55410527 </v>
   <v>       0.67434230       0.92587996       0.56323753 </v>
   <v>       0.44500377       0.19345654       0.54639597 </v>
   <v>       0.51339881       0.74380041       0.54098113 </v>
   <v>       0.99769132       0.24856472       0.53880332 </v>
   <v>       0.06217834       0.79088662       0.54733256 </v>
   <v>       0.20109266       0.52767312       0.54554552 </v>
   <v>       0.26787189       0.94822313       0.54357820 </v>
   <v>       0.79502624       0.93618383       0.55355273 </v>
   <v>       0.46194609       0.30951531       0.67607748 </v>
   <v>       0.43028801       0.81070867       0.67243692 </v>
   <v>       0.96037323       0.27933554       0.67953728 </v>
   <v>       0.93135928       0.78185050       0.67426041 </v>
   <v>       0.30428181       0.05641945       0.67407879 </v>
   <v>       0.29606894       0.53993043       0.67769732 </v>
   <v>       0.79042114       0.05041442       0.67697342 </v>
   <v>       0.84519505       0.50739004       0.66847007 </v>
   <v>       0.08803520       0.17718183       0.64503197 </v>
   <v>       0.09591348       0.69058614       0.65370955 </v>
   <v>       0.57346536       0.16558740       0.64984476 </v>
   <v>       0.57629619       0.67989323       0.65615974 </v>
   <v>       0.17372100       0.41752503       0.64694733 </v>
   <v>       0.17585993       0.92157853       0.65036281 </v>
   <v>       0.64915950       0.47439966       0.65800893 </v>
   <v>       0.67200428       0.91934074       0.64755353 </v>
   <v>       0.06718733       0.18395442       0.67200196 </v>
   <v>       0.03907225       0.68939064       0.67581932 </v>
   <v>       0.56378128       0.20856251       0.67461113 </v>
   <v>       0.53327845       0.71241778       0.67912772 </v>
   <v>       0.19789660       0.43504095       0.67323072 </v>
   <v>       0.20107791       0.95399539       0.67521244 </v>
   <v>       0.71990919       0.44536013       0.67471485 </v>
   <v>       0.68993558       0.94634247       0.67358443 </v>
   <v>       0.41625099       0.32204864       0.65196597 </v>
   <v>       0.41875870       0.83166614       0.64541699 </v>
   <v>       0.92464054       0.32133213       0.65682778 </v>
   <v>       0.92797810       0.83551161       0.65085656 </v>
   <v>       0.33190907       0.07843450       0.64835215 </v>
   <v>       0.32396536       0.57991814       0.65374965 </v>
   <v>       0.82802216       0.07592787       0.65260312 </v>
   <v>       0.85065570       0.56448954       0.64560105 </v>
   <v>       0.00141730       0.26212412       0.63378961 </v>
   <v>       0.03274716       0.78126292       0.63647319 </v>
   <v>       0.48129851       0.23382788       0.63366092 </v>
   <v>       0.50968775       0.75206853       0.63344487 </v>
   <v>       0.25260623       0.99565723       0.63160771 </v>
   <v>       0.25076330       0.50751602       0.63278935 </v>
   <v>       0.75592433       0.99694475       0.63240304 </v>
   <v>       0.72485507       0.55002218       0.63772197 </v>
   <v>       0.44874502       0.30128397       0.76888902 </v>
   <v>       0.44874501       0.80128391       0.76888902 </v>
   <v>       0.94874497       0.30128397       0.76888902 </v>
   <v>       0.94874501       0.80128391       0.76888902 </v>
   <v>       0.30127600       0.05129450       0.76887296 </v>
   <v>       0.30127601       0.55129450       0.76887296 </v>
   <v>       0.80127594       0.05129450       0.76887296 </v>
   <v>       0.80127598       0.55129450       0.76887296 </v>
   <v>       0.07877100       0.17118050       0.74344197 </v>
   <v>       0.07877101       0.67118045       0.74344197 </v>
   <v>       0.57877100       0.17118050       0.74344197 </v>
   <v>       0.57877099       0.67118045       0.74344197 </v>
   <v>       0.17119950       0.42117448       0.74342103 </v>
   <v>       0.17119950       0.92117451       0.74342103 </v>
   <v>       0.67119951       0.42117448       0.74342103 </v>
   <v>       0.67119950       0.92117451       0.74342103 </v>
   <v>       0.05125600       0.19871499       0.76888902 </v>
   <v>       0.05125600       0.69871493       0.76888902 </v>
   <v>       0.55125603       0.19871499       0.76888902 </v>
   <v>       0.55125602       0.69871493       0.76888902 </v>
   <v>       0.19872349       0.44870397       0.76887205 </v>
   <v>       0.19872349       0.94870397       0.76887205 </v>
   <v>       0.69872352       0.44870397       0.76887205 </v>
   <v>       0.69872351       0.94870397       0.76887205 </v>
   <v>       0.42123152       0.32881747       0.74344197 </v>
   <v>       0.42123151       0.82881744       0.74344197 </v>
   <v>       0.92123147       0.32881747       0.74344197 </v>
   <v>       0.92123151       0.82881744       0.74344197 </v>
   <v>       0.32880050       0.07882500       0.74342103 </v>
   <v>       0.32880049       0.57882496       0.74342103 </v>
   <v>       0.82880048       0.07882500       0.74342103 </v>
   <v>       0.82880052       0.57882496       0.74342103 </v>
   <v>       0.00000350       0.25000148       0.72582199 </v>
   <v>       0.00000350       0.75000145       0.72582199 </v>
   <v>       0.50000351       0.25000148       0.72582199 </v>
   <v>       0.50000350       0.75000145       0.72582199 </v>
   <v>       0.25000050       0.00000000       0.72580398 </v>
   <v>       0.25000052       0.50000000       0.72580398 </v>
   <v>       0.75000050       0.00000000       0.72580398 </v>
   <v>       0.75000049       0.50000000       0.72580398 </v>
   <v>       0.71717099       0.43871087       0.54201387 </v>
   <v>       0.73651191       0.49759950       0.52073129 </v>
   <v>       0.65360933       0.54835757       0.56172997 </v>
   <v>       0.69990050       0.63462173       0.56022723 </v>
   <v>       0.84211844       0.50464504       0.57311268 </v>
   <v>       0.77647958       0.56849810       0.58276311 </v>
   <v>       0.86524980       0.55750029       0.53455882 </v>
   <v>       0.79281630       0.62292847       0.52808658 </v>
   <v>       0.86583227       0.46865781       0.51985233 </v>
   <v>       0.86454165       0.43145794       0.54561383 </v>
   <v>       0.87589829       0.33419945       0.51962597 </v>
   <v>       0.78785740       0.32468246       0.53161658 </v>
   <v>       0.63519383       0.54759903       0.52165726 </v>
   <v>       0.69133186       0.63014486       0.51934844 </v>
   <v>       0.60623614       0.63284863       0.53303148 </v>
   <v>       0.75341137       0.44701017       0.59883034 </v>
   <v>       0.74182592       0.40421602       0.57356601 </v>
   <v>       0.67774805       0.47137831       0.58268374 </v>
   <v>       0.82764604       0.68399334       0.56499093 </v>
   <v>       0.88941759       0.68846605       0.54353059 </v>
   <v>       0.90790878       0.62341516       0.56450836 </v>
   <v>       0.82129088       0.39203350       0.48746343 </v>
   <v>       0.78550590       0.30101076       0.49204657 </v>
   <v>       0.66236455       0.31983837       0.52252736 </v>
   <v>       0.73474176       0.46398172       0.47198973 </v>
   <v>       0.53834390       0.37682768       0.52106076 </v>
   <v>       0.61050032       0.52205872       0.47053234 </v>
   <v>       0.50966241       0.47811609       0.49485752 </v>
   <v>       0.99527686       0.24442359       0.55635762 </v>
   <v>       0.03205455       0.77341459       0.56181867 </v>
   <v>       0.47252825       0.22988574       0.55785151 </v>
   <v>       0.49359265       0.75981860       0.55707114 </v>
   <v>       0.23774408       0.51512628       0.55913484 </v>
   <v>       0.25297729       0.98706299       0.55643948 </v>
   <v>       0.77054233       0.97996339       0.56368538 </v>
   <v>       0.00596427       0.24970710       0.65053044 </v>
   <v>       0.01211025       0.76368012       0.65191518 </v>
   <v>       0.49441177       0.24419489       0.65021990 </v>
   <v>       0.49737562       0.75657968       0.65033216 </v>
   <v>       0.24880260       0.49916918       0.64990166 </v>
   <v>       0.25447881       0.00045273       0.64884773 </v>
   <v>       0.74976643       0.51924175       0.65099868 </v>
   <v>       0.75089111       0.99835808       0.64960765 </v>
   <v>       0.49998898       0.24999498       0.74327702 </v>
   <v>       0.49998903       0.74999496       0.74327702 </v>
   <v>       0.99998898       0.24999498       0.74327702 </v>
   <v>       0.99998903       0.74999496       0.74327702 </v>
   <v>       0.25000050       0.00000100       0.74325596 </v>
   <v>       0.25000052       0.50000100       0.74325596 </v>
   <v>       0.75000050       0.00000100       0.74325596 </v>
   <v>       0.75000049       0.50000100       0.74325596 </v>
   <v>       0.70756960       0.38861604       0.49746742 </v>
   <v>       0.65036908       0.36333090       0.51095870 </v>
   <v>       0.69087744       0.44540549       0.48291400 </v>
   <v>       0.58079173       0.39546414       0.51001540 </v>
   <v>       0.62036755       0.47664795       0.48196050 </v>
   <v>       0.56601996       0.45197764       0.49545801 </v>
   <v>       0.75937839       0.47552246       0.53529664 </v>
   <v>       0.68950048       0.58209409       0.55162864 </v>
   <v>       0.78292711       0.51810502       0.57310071 </v>
   <v>       0.82288639       0.59422848       0.54111568 </v>
   <v>       0.83130492       0.43682557       0.53093920 </v>
   <v>       0.82072596       0.36011938       0.52097493 </v>
   <v>       0.65443044       0.59767580       0.52996574 </v>
   <v>       0.73564913       0.45640467       0.58226703 </v>
   <v>       0.86353780       0.64974601       0.55498155 </v>
   <v>       0.78598788       0.35856934       0.49864612 </v>
   <v>       0.05780006       0.23199920       0.56633160 </v>
   <v>       0.05320157       0.71153532       0.57080435 </v>
   <v>       0.54221084       0.21619708       0.56317123 </v>
   <v>       0.49335541       0.70670105       0.57128846 </v>
   <v>       0.43400024       0.28598351       0.56553584 </v>
   <v>       0.47336903       0.82780853       0.56032661 </v>
   <v>       0.93053804       0.25185637       0.56503605 </v>
   <v>       0.97793068       0.81559309       0.56846355 </v>
   <v>       0.23485358       0.44950127       0.56778465 </v>
   <v>       0.18284258       0.99043253       0.56226749 </v>
   <v>       0.70055420       0.97421129       0.56802957 </v>
   <v>       0.30574341       0.02453190       0.56548047 </v>
   <v>       0.28104562       0.56883701       0.56594755 </v>
   <v>       0.81309236       0.03381532       0.57087529 </v>
   <v>       0.05713455       0.20069494       0.65644807 </v>
   <v>       0.05144972       0.71039499       0.66134932 </v>
   <v>       0.54805585       0.20329452       0.65904649 </v>
   <v>       0.53805821       0.71389046       0.66289766 </v>
   <v>       0.20482565       0.44752104       0.65723198 </v>
   <v>       0.20779253       0.95599120       0.65888343 </v>
   <v>       0.70478198       0.47525757       0.66158734 </v>
   <v>       0.70145387       0.95190305       0.65746683 </v>
   <v>       0.45613066       0.29434941       0.66004559 </v>
   <v>       0.44661524       0.80189346       0.65661058 </v>
   <v>       0.96120681       0.28474345       0.66334728 </v>
   <v>       0.95330190       0.79558081       0.65996794 </v>
   <v>       0.29876682       0.04711462       0.65768648 </v>
   <v>       0.29211435       0.54157888       0.66129572 </v>
   <v>       0.79123832       0.04359233       0.66047659 </v>
   <v>       0.81889335       0.53010984       0.65527065 </v>
   <v>       0.04586250       0.20411950       0.75272599 </v>
   <v>       0.04586250       0.70411946       0.75272599 </v>
   <v>       0.54586251       0.20411950       0.75272599 </v>
   <v>       0.54586250       0.70411946       0.75272599 </v>
   <v>       0.20411900       0.45410100       0.75270499 </v>
   <v>       0.20411899       0.95410095       0.75270499 </v>
   <v>       0.70411898       0.45410100       0.75270499 </v>
   <v>       0.70411896       0.95410095       0.75270499 </v>
   <v>       0.45414002       0.29588849       0.75272697 </v>
   <v>       0.45414001       0.79588852       0.75272697 </v>
   <v>       0.95414002       0.29588849       0.75272697 </v>
[...]
   <v>       0.57072988       0.17355597       0.55623564 </v>
   <v>       0.50026120       0.65256055       0.56651370 </v>
   <v>       0.36055128       0.01555025       0.56076585 </v>
   <v>       0.27905048       0.62046213       0.55852877 </v>
   <v>       0.86848084       0.03587793       0.56635547 </v>
   <v>       0.06284740       0.22562396       0.58260243 </v>
   <v>       0.02967080       0.69165365       0.58477645 </v>
   <v>       0.57060498       0.25082956       0.57387314 </v>
   <v>       0.47435959       0.71404046       0.58653797 </v>
   <v>       0.26671278       0.43473372       0.58051620 </v>
   <v>       0.16628373       0.02361970       0.57438295 </v>
   <v>       0.67471608       0.00921185       0.57831678 </v>
   <v>       0.37797578       0.28850793       0.56244917 </v>
   <v>       0.47896740       0.86746810       0.54916355 </v>
   <v>       0.88196453       0.25378314       0.55665254 </v>
   <v>       0.97351234       0.86774973       0.56177191 </v>
   <v>       0.19912947       0.41029742       0.56177844 </v>
   <v>       0.14273054       0.96134494       0.55410527 </v>
   <v>       0.67434230       0.92587996       0.56323753 </v>
   <v>       0.44500377       0.19345654       0.54639597 </v>
   <v>       0.51339881       0.74380041       0.54098113 </v>
   <v>       0.99769132       0.24856472       0.53880332 </v>
   <v>       0.06217834       0.79088662       0.54733256 </v>
   <v>       0.20109266       0.52767312       0.54554552 </v>
   <v>       0.26787189       0.94822313       0.54357820 </v>
   <v>       0.79502624       0.93618383       0.55355273 </v>
   <v>       0.46194609       0.30951531       0.67607748 </v>
   <v>       0.43028801       0.81070867       0.67243692 </v>
   <v>       0.96037323       0.27933554       0.67953728 </v>
   <v>       0.93135928       0.78185050       0.67426041 </v>
   <v>       0.30428181       0.05641945       0.67407879 </v>
   <v>       0.29606894       0.53993043       0.67769732 </v>
   <v>       0.79042114       0.05041442       0.67697342 </v>
   <v>       0.84519505       0.50739004       0.66847007 </v>
   <v>       0.08803520       0.17718183       0.64503197 </v>
   <v>       0.09591348       0.69058614       0.65370955 </v>
   <v>       0.57346536       0.16558740       0.64984476 </v>
   <v>       0.57629619       0.67989323       0.65615974 </v>
   <v>       0.17372100       0.41752503       0.64694733 </v>
   <v>       0.17585993       0.92157853       0.65036281 </v>
   <v>       0.64915950       0.47439966       0.65800893 </v>
   <v>       0.67200428       0.91934074       0.64755353 </v>
   <v>       0.06718733       0.18395442       0.67200196 </v>
   <v>       0.03907225       0.68939064       0.67581932 </v>
   <v>       0.56378128       0.20856251       0.67461113 </v>
   <v>       0.53327845       0.71241778       0.67912772 </v>
   <v>       0.19789660       0.43504095       0.67323072 </v>
   <v>       0.20107791       0.95399539       0.67521244 </v>
   <v>       0.71990919       0.44536013       0.67471485 </v>
   <v>       0.68993558       0.94634247       0.67358443 </v>
   <v>       0.41625099       0.32204864       0.65196597 </v>
   <v>       0.41875870       0.83166614       0.64541699 </v>
   <v>       0.92464054       0.32133213       0.65682778 </v>
   <v>       0.92797810       0.83551161       0.65085656 </v>
   <v>       0.33190907       0.07843450       0.64835215 </v>
   <v>       0.32396536       0.57991814       0.65374965 </v>
   <v>       0.82802216       0.07592787       0.65260312 </v>
   <v>       0.85065570       0.56448954       0.64560105 </v>
   <v>       0.00141730       0.26212412       0.63378961 </v>
   <v>       0.03274716       0.78126292       0.63647319 </v>
   <v>       0.48129851       0.23382788       0.63366092 </v>
   <v>       0.50968775       0.75206853       0.63344487 </v>
   <v>       0.25260623       0.99565723       0.63160771 </v>
   <v>       0.25076330       0.50751602       0.63278935 </v>
   <v>       0.75592433       0.99694475       0.63240304 </v>
   <v>       0.72485507       0.55002218       0.63772197 </v>
   <v>       0.44874502       0.30128397       0.76888902 </v>
   <v>       0.44874501       0.80128391       0.76888902 </v>
   <v>       0.94874497       0.30128397       0.76888902 </v>
   <v>       0.94874501       0.80128391       0.76888902 </v>
   <v>       0.30127600       0.05129450       0.76887296 </v>
   <v>       0.30127601       0.55129450       0.76887296 </v>
   <v>       0.80127594       0.05129450       0.76887296 </v>
   <v>       0.80127598       0.55129450       0.76887296 </v>
   <v>       0.07877100       0.17118050       0.74344197 </v>
   <v>       0.07877101       0.67118045       0.74344197 </v>
   <v>       0.57877100       0.17118050       0.74344197 </v>
   <v>       0.57877099       0.67118045       0.74344197 </v>
   <v>       0.17119950       0.42117448       0.74342103 </v>
   <v>       0.17119950       0.92117451       0.74342103 </v>
   <v>       0.67119951       0.42117448       0.74342103 </v>
   <v>       0.67119950       0.92117451       0.74342103 </v>
   <v>       0.05125600       0.19871499       0.76888902 </v>
   <v>       0.05125600       0.69871493       0.76888902 </v>
   <v>       0.55125603       0.19871499       0.76888902 </v>
   <v>       0.55125602       0.69871493       0.76888902 </v>
   <v>       0.19872349       0.44870397       0.76887205 </v>
   <v>       0.19872349       0.94870397       0.76887205 </v>
   <v>       0.69872352       0.44870397       0.76887205 </v>
   <v>       0.69872351       0.94870397       0.76887205 </v>
   <v>       0.42123152       0.32881747       0.74344197 </v>
   <v>       0.42123151       0.82881744       0.74344197 </v>
   <v>       0.92123147       0.32881747       0.74344197 </v>
   <v>       0.92123151       0.82881744       0.74344197 </v>
   <v>       0.32880050       0.07882500       0.74342103 </v>
   <v>       0.32880049       0.57882496       0.74342103 </v>
   <v>       0.82880048       0.07882500       0.74342103 </v>
   <v>       0.82880052       0.57882496       0.74342103 </v>
   <v>       0.00000350       0.25000148       0.72582199 </v>
   <v>       0.00000350       0.75000145       0.72582199 </v>
   <v>       0.50000351       0.25000148       0.72582199 </v>
   <v>       0.50000350       0.75000145       0.72582199 </v>
   <v>       0.25000050       0.00000000       0.72580398 </v>
   <v>       0.25000052       0.50000000       0.72580398 </v>
   <v>       0.75000050       0.00000000       0.72580398 </v>
   <v>       0.75000049       0.50000000       0.72580398 </v>
   <v>       0.71717099       0.43871087       0.54201387 </v>
   <v>       0.73651191       0.49759950       0.52073129 </v>
   <v>       0.65360933       0.54835757       0.56172997 </v>
   <v>       0.69990050       0.63462173       0.56022723 </v>
   <v>       0.84211844       0.50464504       0.57311268 </v>
   <v>       0.77647958       0.56849810       0.58276311 </v>
   <v>       0.86524980       0.55750029       0.53455882 </v>
   <v>       0.79281630       0.62292847       0.52808658 </v>
   <v>       0.86583227       0.46865781       0.51985233 </v>
   <v>       0.86454165       0.43145794       0.54561383 </v>
   <v>       0.87589829       0.33419945       0.51962597 </v>
   <v>       0.78785740       0.32468246       0.53161658 </v>
   <v>       0.63519383       0.54759903       0.52165726 </v>
   <v>       0.69133186       0.63014486       0.51934844 </v>
   <v>       0.60623614       0.63284863       0.53303148 </v>
   <v>       0.75341137       0.44701017       0.59883034 </v>
   <v>       0.74182592       0.40421602       0.57356601 </v>
   <v>       0.67774805       0.47137831       0.58268374 </v>
   <v>       0.82764604       0.68399334       0.56499093 </v>
   <v>       0.88941759       0.68846605       0.54353059 </v>
   <v>       0.90790878       0.62341516       0.56450836 </v>
   <v>       0.82129088       0.39203350       0.48746343 </v>
   <v>       0.78550590       0.30101076       0.49204657 </v>
   <v>       0.66236455       0.31983837       0.52252736 </v>
   <v>       0.73474176       0.46398172       0.47198973 </v>
   <v>       0.53834390       0.37682768       0.52106076 </v>
   <v>       0.61050032       0.52205872       0.47053234 </v>
   <v>       0.50966241       0.47811609       0.49485752 </v>
   <v>       0.99527686       0.24442359       0.55635762 </v>
   <v>       0.03205455       0.77341459       0.56181867 </v>
   <v>       0.47252825       0.22988574       0.55785151 </v>
   <v>       0.49359265       0.75981860       0.55707114 </v>
   <v>       0.23774408       0.51512628       0.55913484 </v>
   <v>       0.25297729       0.98706299       0.55643948 </v>
   <v>       0.77054233       0.97996339       0.56368538 </v>
   <v>       0.00596427       0.24970710       0.65053044 </v>
   <v>       0.01211025       0.76368012       0.65191518 </v>
   <v>       0.49441177       0.24419489       0.65021990 </v>
   <v>       0.49737562       0.75657968       0.65033216 </v>
   <v>       0.24880260       0.49916918       0.64990166 </v>
   <v>       0.25447881       0.00045273       0.64884773 </v>
   <v>       0.74976643       0.51924175       0.65099868 </v>
   <v>       0.75089111       0.99835808       0.64960765 </v>
   <v>       0.49998898       0.24999498       0.74327702 </v>
   <v>       0.49998903       0.74999496       0.74327702 </v>
   <v>       0.99998898       0.24999498       0.74327702 </v>
   <v>       0.99998903       0.74999496       0.74327702 </v>
   <v>       0.25000050       0.00000100       0.74325596 </v>
   <v>       0.25000052       0.50000100       0.74325596 </v>
   <v>       0.75000050       0.00000100       0.74325596 </v>
   <v>       0.75000049       0.50000100       0.74325596 </v>
   <v>       0.70756960       0.38861604       0.49746742 </v>
   <v>       0.65036908       0.36333090       0.51095870 </v>
   <v>       0.69087744       0.44540549       0.48291400 </v>
   <v>       0.58079173       0.39546414       0.51001540 </v>
   <v>       0.62036755       0.47664795       0.48196050 </v>
   <v>       0.56601996       0.45197764       0.49545801 </v>
   <v>       0.75937839       0.47552246       0.53529664 </v>
   <v>       0.68950048       0.58209409       0.55162864 </v>
   <v>       0.78292711       0.51810502       0.57310071 </v>
   <v>       0.82288639       0.59422848       0.54111568 </v>
   <v>       0.83130492       0.43682557       0.53093920 </v>
   <v>       0.82072596       0.36011938       0.52097493 </v>
   <v>       0.65443044       0.59767580       0.52996574 </v>
   <v>       0.73564913       0.45640467       0.58226703 </v>
   <v>       0.86353780       0.64974601       0.55498155 </v>
   <v>       0.78598788       0.35856934       0.49864612 </v>
   <v>       0.05780006       0.23199920       0.56633160 </v>
   <v>       0.05320157       0.71153532       0.57080435 </v>
   <v>       0.54221084       0.21619708       0.56317123 </v>
   <v>       0.49335541       0.70670105       0.57128846 </v>
   <v>       0.43400024       0.28598351       0.56553584 </v>
   <v>       0.47336903       0.82780853       0.56032661 </v>
   <v>       0.93053804       0.25185637       0.56503605 </v>
   <v>       0.97793068       0.81559309       0.56846355 </v>
   <v>       0.23485358       0.44950127       0.56778465 </v>
   <v>       0.18284258       0.99043253       0.56226749 </v>
   <v>       0.70055420       0.97421129       0.56802957 </v>
   <v>       0.30574341       0.02453190       0.56548047 </v>
   <v>       0.28104562       0.56883701       0.56594755 </v>
   <v>       0.81309236       0.03381532       0.57087529 </v>
   <v>       0.05713455       0.20069494       0.65644807 </v>
   <v>       0.05144972       0.71039499       0.66134932 </v>
   <v>       0.54805585       0.20329452       0.65904649 </v>
   <v>       0.53805821       0.71389046       0.66289766 </v>
   <v>       0.20482565       0.44752104       0.65723198 </v>
   <v>       0.20779253       0.95599120       0.65888343 </v>
   <v>       0.70478198       0.47525757       0.66158734 </v>
   <v>       0.70145387       0.95190305       0.65746683 </v>
   <v>       0.45613066       0.29434941       0.66004559 </v>
   <v>       0.44661524       0.80189346       0.65661058 </v>
   <v>       0.96120681       0.28474345       0.66334728 </v>
   <v>       0.95330190       0.79558081       0.65996794 </v>
   <v>       0.29876682       0.04711462       0.65768648 </v>
   <v>       0.29211435       0.54157888       0.66129572 </v>
   <v>       0.79123832       0.04359233       0.66047659 </v>
   <v>       0.81889335       0.53010984       0.65527065 </v>
   <v>       0.04586250       0.20411950       0.75272599 </v>
   <v>       0.04586250       0.70411946       0.75272599 </v>
   <v>       0.54586251       0.20411950       0.75272599 </v>
   <v>       0.54586250       0.70411946       0.75272599 </v>
   <v>       0.20411900       0.45410100       0.75270499 </v>
   <v>       0.20411899       0.95410095       0.75270499 </v>
   <v>       0.70411898       0.45410100       0.75270499 </v>
   <v>       0.70411896       0.95410095       0.75270499 </v>
   <v>       0.45414002       0.29588849       0.75272697 </v>
   <v>       0.45414001       0.79588852       0.75272697 </v>
   <v>       0.95414002       0.29588849       0.75272697 </v>
   <v>       0.95414006       0.79588852       0.75272697 </v>
   <v>       0.29588249       0.04590050       0.75270499 </v>
   <v>       0.29588248       0.54590053       0.75270499 </v>
   <v>       0.79588244       0.04590050       0.75270499 </v>
   <v>       0.79588248       0.54590053       0.75270499 </v>
   <v>       0.76411100       0.54236234       0.55063992 </v>
   <v>       0.50030966       0.01828616       0.55213363 </v>
   <v>       0.48232717       0.51570932       0.55563182 </v>
   <v>       0.99376694       0.00337684       0.55260687 </v>
   <v>       0.03467965       0.50416415       0.55345915 </v>
   <v>       0.24692667       0.24545045       0.55203406 </v>
   <v>       0.25338591       0.76204619       0.55214169 </v>
   <v>       0.74487996       0.21339486       0.55747765 </v>
   <v>       0.70831343       0.79052089       0.54833428 </v>
   <v>       0.00732717       0.99869971       0.65501053 </v>
   <v>       0.01263531       0.48999552       0.65526424 </v>
   <v>       0.50010094       0.00475596       0.65458222 </v>
   <v>       0.50760221       0.49278419       0.65559762 </v>
   <v>       0.25291762       0.24559340       0.65483483 </v>
   <v>       0.24734201       0.75551728       0.65467434 </v>
   <v>       0.74335340       0.25580363       0.65598875 </v>
   <v>       0.74825773       0.75231315       0.65303595 </v>
   <v>       0.14159605       0.10973194       0.60711111 </v>
   <v>       0.14305836       0.61101081       0.61132473 </v>
   <v>       0.64599550       0.10733575       0.60988767 </v>
   <v>       0.62076364       0.62946071       0.61495814 </v>
   <v>       0.35733367       0.39429322       0.61088470 </v>
   <v>       0.36941639       0.88550723       0.60814825 </v>
   <v>       0.88427150       0.37061115       0.61350900 </v>
   <v>       0.86386121       0.88354859       0.61027038 </v>
   <v>       0.11385503       0.35581122       0.60941339 </v>
   <v>       0.12288749       0.87590270       0.60904149 </v>
   <v>       0.58619926       0.34243402       0.60561008 </v>
   <v>       0.61177333       0.86279128       0.61078562 </v>
   <v>       0.38565983       0.13309559       0.60801999 </v>
   <v>       0.38124559       0.63332793       0.61326738 </v>
   <v>       0.88860845       0.14177764       0.61327006 </v>
   <v>       0.91372214       0.65172898       0.61729082 </v>
   <v>       0.00000000       0.00000000       0.75492797 </v>
   <v>       0.00000000       0.50000000       0.75492797 </v>
   <v>       0.50000000       0.00000000       0.75492797 </v>
   <v>       0.49999999       0.50000000       0.75492797 </v>
   <v>       0.25000050       0.25000000       0.75493902 </v>
   <v>       0.25000051       0.74999997       0.75493902 </v>
   <v>       0.75000047       0.25000000       0.75493902 </v>
   <v>       0.75000046       0.74999997       0.75493902 </v>
   <v>       0.13579050       0.11421000       0.70478299 </v>
   <v>       0.13579050       0.61420998       0.70478299 </v>
   <v>       0.63579045       0.11421000       0.70478299 </v>
   <v>       0.63579049       0.61420998       0.70478299 </v>
   <v>       0.36420952       0.38578999       0.70478299 </v>
   <v>       0.36420950       0.88578996       0.70478299 </v>
   <v>       0.86420954       0.38578999       0.70478299 </v>
   <v>       0.86420953       0.88578996       0.70478299 </v>
   <v>       0.11421799       0.36421899       0.70478098 </v>
   <v>       0.11421799       0.86421899       0.70478098 </v>
   <v>       0.61421800       0.36421899       0.70478098 </v>
   <v>       0.61421799       0.86421899       0.70478098 </v>
   <v>       0.38578201       0.13578149       0.70478202 </v>
   <v>       0.38578200       0.63578149       0.70478202 </v>
   <v>       0.88578199       0.13578149       0.70478202 </v>
   <v>       0.88578203       0.63578149       0.70478202 </v>
   <v>       0.13466700       0.11533200       0.80125603 </v>
   <v>       0.13466699       0.61533199       0.80125603 </v>
   <v>       0.63466699       0.11533200       0.80125603 </v>
   <v>       0.63466698       0.61533199       0.80125603 </v>
   <v>       0.36533300       0.38466799       0.80125603 </v>
   <v>       0.36533299       0.88466796       0.80125603 </v>
   <v>       0.86533295       0.38466799       0.80125603 </v>
   <v>       0.86533294       0.88466796       0.80125603 </v>
   <v>       0.11532850       0.36533700       0.80126500 </v>
   <v>       0.11532850       0.86533698       0.80126500 </v>
   <v>       0.61532850       0.36533700       0.80126500 </v>
   <v>       0.61532849       0.86533698       0.80126500 </v>
   <v>       0.38467151       0.13466300       0.80126500 </v>
   <v>       0.38467150       0.63466297       0.80126500 </v>
   <v>       0.88467149       0.13466300       0.80126500 </v>
   <v>       0.88467153       0.63466297       0.80126500 </v>
   <v>       0.99315111       0.00532720       0.60563249 </v>
   <v>       0.00659456       0.50630669       0.60426362 </v>
   <v>       0.50342758       0.00813365       0.60391461 </v>
   <v>       0.49877002       0.50264754       0.60502421 </v>
   <v>       0.24893490       0.25369882       0.60454499 </v>
   <v>       0.24686356       0.75641410       0.60380601 </v>
   <v>       0.74535601       0.25942384       0.60643782 </v>
   <v>       0.73984707       0.75674895       0.60219503 </v>
   <v>       0.00000050       0.00000050       0.70482896 </v>
   <v>       0.00000050       0.50000048       0.70482896 </v>
   <v>       0.50000048       0.00000050       0.70482896 </v>
   <v>       0.50000046       0.50000048       0.70482896 </v>
   <v>       0.24999999       0.24999947       0.70482499 </v>
   <v>       0.25000001       0.74999950       0.70482499 </v>
   <v>       0.74999999       0.24999947       0.70482499 </v>
   <v>       0.74999998       0.74999950       0.70482499 </v>
   <v>       0.00000000       0.00000000       0.80731797 </v>
   <v>       0.00000000       0.50000000       0.80731797 </v>
   <v>       0.50000000       0.00000000       0.80731797 </v>
   <v>       0.49999999       0.50000000       0.80731797 </v>
   <v>       0.24999999       0.25000000       0.80731797 </v>
   <v>       0.25000001       0.74999997       0.80731797 </v>
   <v>       0.74999999       0.25000000       0.80731797 </v>
   <v>       0.74999998       0.74999997       0.80731797 </v>
  </varray>
 </structure>
</modeling>
