 vasp.6.2.1 16May21 (build Nov 15 2021 14:57:28) complex                         
 executed on             LinuxPGI date 2023.07.30  09:46:06
 running on    4 total cores
 distrk:  each k-point on    4 cores,    1 groups
 distr:  one band on NCORE=   1 cores,    4 groups


--------------------------------------------------------------------------------------------------------


 INCAR:
   SYSTEM = PSC
   ISTART = 1
   ICHARG = 1
   PREC = Normal
   ENCUT = 500
   GGA_COMPAT = F
   NELM = 600
   ISYM = 0
   LREAL = Auto
   ISMEAR = 0
   SIGMA = 0.05
   AMIN = 0.01
   BMIX = 0.01
   LVTOT = T
   LWAVE = F
   LDIPOL = T
   IDIPOL = 3
   LVDW = T
   IVDW = 12

 POTCAR:    PAW_PBE H 15Jun2001                   
 POTCAR:    PAW_PBE C 08Apr2002                   
 POTCAR:    PAW_PBE N 08Apr2002                   
 POTCAR:    PAW_PBE I 08Apr2002                   
 POTCAR:    PAW_PBE Pb 08Apr2002                  
 WARNING: For LVTOT=.TRUE., VASP.5.x writes the TOTAL local potential to the
     file LOCPOT. If you want only the Hartree contributions, use LVHAR=.TRUE.
     instead. 

 POTCAR:    PAW_PBE H 15Jun2001                   
   SHA256 =  030f79b5d3ab3cf0e668861823c8fb652ff669f3e15e46930bd03bfd63a607b6 H/POTCAR              
   COPYR  = (c) Copyright 15Jun2001 Georg Kresse                                                    
   COPYR  = This file is part of the software VASP. Any use, copying, and all other rights are regul
   COPYR  = If you do not have a valid VASP license, you may not use, copy or distribute this file. 
   VRHFIN =H: ultrasoft test                                                                        
   LEXCH  = PE                                                                                      
   EATOM  =    12.4884 eV,    0.9179 Ry                                                             
                                                                                                    
   TITEL  = PAW_PBE H 15Jun2001                                                                     
   LULTRA =        F    use ultrasoft PP ?                                                          
   IUNSCR =        0    unscreen: 0-lin 1-nonlin 2-no                                               
   RPACOR =    0.000    partial core radius                                                         
   POMASS =    1.000; ZVAL   =    1.000    mass and valenz                                          
   RCORE  =    1.100    outmost cutoff radius                                                       
   RWIGS  =    0.700; RWIGS  =    0.370    wigner-seitz radius (au A)                               
   ENMAX  =  250.000; ENMIN  =  200.000 eV                                                          
   RCLOC  =    0.701    cutoff for local pot                                                        
   LCOR   =        T    correct aug charges                                                         
   LPAW   =        T    paw PP                                                                      
   EAUG   =  400.000                                                                                
   RMAX   =    1.123    core radius for proj-oper                                                   
   RAUG   =    1.200    factor for augmentation sphere                                              
   RDEP   =    1.112    radius for radial grids                                                     
   RDEPT  =    0.926    core radius for aug-charge                                                  
                                                                                                    
   Atomic configuration                                                                             
    2 entries                                                                                       
     n  l   j            E        occ.                                                              
     1  0  0.50        -6.4927   1.0000                                                             
     2  1  0.50        -3.4015   0.0000                                                             
   Description                                                                                      
     l       E           TYP  RCUT    TYP  RCUT                                                     
     0     -6.4927494     23  1.100                                                                 
     0      6.8029130     23  1.100                                                                 
     1     -4.0817478     23  1.100                                                                 
  local pseudopotential read in
  atomic valenz-charges read in
  non local Contribution for L=            0  read in
    real space projection operators read in
  non local Contribution for L=            0  read in
    real space projection operators read in
  non local Contribution for L=            1  read in
    real space projection operators read in
    PAW grid and wavefunctions read in
 
   number of l-projection  operators is LMAX  =            3
   number of lm-projection operators is LMMAX =            5
 
 POTCAR:    PAW_PBE C 08Apr2002                   
   SHA256 =  253f7b50bb8d59471dbedb8285d89021f4a42ed1a2c5d38a03a736e69125dd95 C/POTCAR              
   COPYR  = (c) Copyright 08Apr2002 Georg Kresse                                                    
   COPYR  = This file is part of the software VASP. Any use, copying, and all other rights are regul
   COPYR  = If you do not have a valid VASP license, you may not use, copy or distribute this file. 
   VRHFIN =C: s2p2                                                                                  
   LEXCH  = PE                                                                                      
   EATOM  =   147.1560 eV,   10.8157 Ry                                                             
                                                                                                    
   TITEL  = PAW_PBE C 08Apr2002                                                                     
   LULTRA =        F    use ultrasoft PP ?                                                          
   IUNSCR =        1    unscreen: 0-lin 1-nonlin 2-no                                               
   RPACOR =    1.200    partial core radius                                                         
   POMASS =   12.011; ZVAL   =    4.000    mass and valenz                                          
   RCORE  =    1.500    outmost cutoff radius                                                       
   RWIGS  =    1.630; RWIGS  =    0.863    wigner-seitz radius (au A)                               
   ENMAX  =  400.000; ENMIN  =  300.000 eV                                                          
   ICORE  =        2    local potential                                                             
   LCOR   =        T    correct aug charges                                                         
   LPAW   =        T    paw PP                                                                      
   EAUG   =  644.873                                                                                
   DEXC   =    0.000                                                                                
   RMAX   =    1.529    core radius for proj-oper                                                   
   RAUG   =    1.300    factor for augmentation sphere                                              
   RDEP   =    1.501    radius for radial grids                                                     
   RDEPT  =    1.300    core radius for aug-charge                                                  
                                                                                                    
   Atomic configuration                                                                             
    4 entries                                                                                       
     n  l   j            E        occ.                                                              
     1  0  0.50      -273.3789   2.0000                                                             
     2  0  0.50       -13.7508   2.0000                                                             
     2  1  0.50        -5.2854   2.0000                                                             
     3  2  1.50        -5.4423   0.0000                                                             
   Description                                                                                      
     l       E           TYP  RCUT    TYP  RCUT                                                     
     0    -13.7508458     23  1.200                                                                 
     0     -8.2022199     23  1.200                                                                 
     1     -5.2854383     23  1.500                                                                 
     1     34.0145650     23  1.500                                                                 
     2     -5.4423304      7  1.500                                                                 
  local pseudopotential read in
  partial core-charges read in
  partial kinetic energy density read in
  atomic valenz-charges read in
  non local Contribution for L=            0  read in
    real space projection operators read in
  non local Contribution for L=            0  read in
    real space projection operators read in
  non local Contribution for L=            1  read in
    real space projection operators read in
  non local Contribution for L=            1  read in
    real space projection operators read in
    PAW grid and wavefunctions read in
 
   number of l-projection  operators is LMAX  =            4
   number of lm-projection operators is LMMAX =            8
 
 POTCAR:    PAW_PBE N 08Apr2002                   
   SHA256 =  e053789ff3a61a86a1b75d8a110fcc91f86041011e7b0817c7c99e4e8a6349d7 N/POTCAR              
   COPYR  = (c) Copyright 08Apr2002 Georg Kresse                                                    
   COPYR  = This file is part of the software VASP. Any use, copying, and all other rights are regul
   COPYR  = If you do not have a valid VASP license, you may not use, copy or distribute this file. 
   VRHFIN =N: s2p3                                                                                  
   LEXCH  = PE                                                                                      
   EATOM  =   264.5486 eV,   19.4438 Ry                                                             
                                                                                                    
   TITEL  = PAW_PBE N 08Apr2002                                                                     
   LULTRA =        F    use ultrasoft PP ?                                                          
   IUNSCR =        1    unscreen: 0-lin 1-nonlin 2-no                                               
   RPACOR =    1.200    partial core radius                                                         
   POMASS =   14.001; ZVAL   =    5.000    mass and valenz                                          
   RCORE  =    1.500    outmost cutoff radius                                                       
   RWIGS  =    1.400; RWIGS  =    0.741    wigner-seitz radius (au A)                               
   ENMAX  =  400.000; ENMIN  =  300.000 eV                                                          
   ICORE  =        2    local potential                                                             
   LCOR   =        T    correct aug charges                                                         
   LPAW   =        T    paw PP                                                                      
   EAUG   =  627.112                                                                                
   DEXC   =    0.000                                                                                
   RMAX   =    1.529    core radius for proj-oper                                                   
   RAUG   =    1.300    factor for augmentation sphere                                              
   RDEP   =    1.514    radius for radial grids                                                     
   RDEPT  =    1.338    core radius for aug-charge                                                  
                                                                                                    
   Atomic configuration                                                                             
    4 entries                                                                                       
     n  l   j            E        occ.                                                              
     1  0  0.50      -384.7179   2.0000                                                             
     2  0  0.50       -18.5828   2.0000                                                             
     2  1  0.50        -7.0898   3.0000                                                             
     3  2  1.50        -6.8029   0.0000                                                             
   Description                                                                                      
     l       E           TYP  RCUT    TYP  RCUT                                                     
     0    -18.5828119     23  1.200                                                                 
     0    -13.5018863     23  1.200                                                                 
     1     -7.0897853     23  1.500                                                                 
     1      9.5240782     23  1.500                                                                 
     2     -6.8029130      7  1.500                                                                 
  local pseudopotential read in
  partial core-charges read in
  partial kinetic energy density read in
  atomic valenz-charges read in
  non local Contribution for L=            0  read in
    real space projection operators read in
  non local Contribution for L=            0  read in
    real space projection operators read in
  non local Contribution for L=            1  read in
    real space projection operators read in
  non local Contribution for L=            1  read in
    real space projection operators read in
    PAW grid and wavefunctions read in
 
   number of l-projection  operators is LMAX  =            4
   number of lm-projection operators is LMMAX =            8
 
 POTCAR:    PAW_PBE I 08Apr2002                   
   SHA256 =  e40f3f59b681c1fc3e3091736183c4589116986673d2b852a5012aec72758799 I/POTCAR              
   COPYR  = (c) Copyright 08Apr2002 Georg Kresse                                                    
   COPYR  = This file is part of the software VASP. Any use, copying, and all other rights are regul
   COPYR  = If you do not have a valid VASP license, you may not use, copy or distribute this file. 
   VRHFIN =I : s2p5                                                                                 
   LEXCH  = PE                                                                                      
   EATOM  =   315.8678 eV,   23.2156 Ry                                                             
                                                                                                    
   TITEL  = PAW_PBE I 08Apr2002                                                                     
   LULTRA =        F    use ultrasoft PP ?                                                          
   IUNSCR =        1    unscreen: 0-lin 1-nonlin 2-no                                               
   RPACOR =    2.200    partial core radius                                                         
   POMASS =  126.904; ZVAL   =    7.000    mass and valenz                                          
   RCORE  =    2.300    outmost cutoff radius                                                       
   RWIGS  =    2.810; RWIGS  =    1.487    wigner-seitz radius (au A)                               
   ENMAX  =  175.647; ENMIN  =  131.735 eV                                                          
   ICORE  =        3    local potential                                                             
   LCOR   =        T    correct aug charges                                                         
   LPAW   =        T    paw PP                                                                      
   EAUG   =  370.139                                                                                
   DEXC   =    0.000                                                                                
   RMAX   =    2.359    core radius for proj-oper                                                   
   RAUG   =    1.300    factor for augmentation sphere                                              
   RDEP   =    2.392    radius for radial grids                                                     
   RDEPT  =    2.170    core radius for aug-charge                                                  
                                                                                                    
   Atomic configuration                                                                             
   13 entries                                                                                       
     n  l   j            E        occ.                                                              
     1  0  0.50    -32976.3739   2.0000                                                             
     2  0  0.50     -5094.5933   2.0000                                                             
     2  1  1.50     -4572.0131   6.0000                                                             
     3  0  0.50     -1028.2813   2.0000                                                             
     3  1  1.50      -859.0250   6.0000                                                             
     3  2  2.50      -605.7620  10.0000                                                             
     4  0  0.50      -180.5540   2.0000                                                             
     4  1  1.50      -127.5306   6.0000                                                             
     4  2  2.50       -50.2720  10.0000                                                             
     5  0  0.50       -17.4058   2.0000                                                             
     5  1  0.50        -7.0851   5.0000                                                             
     5  2  1.50        -7.0750   0.0000                                                             
     4  3  2.50        -7.0750   0.0000                                                             
   Description                                                                                      
     l       E           TYP  RCUT    TYP  RCUT                                                     
     0    -17.4058016     23  2.300                                                                 
     0    -18.7663842     23  2.300                                                                 
     1     -7.0850686     23  2.300                                                                 
     1     -4.2150896     23  2.300                                                                 
     2     -7.0750295     23  2.300                                                                 
     3     -1.3605826     23  2.300                                                                 
  local pseudopotential read in
  partial core-charges read in
  partial kinetic energy density read in
  atomic valenz-charges read in
  non local Contribution for L=            0  read in
    real space projection operators read in
  non local Contribution for L=            0  read in
    real space projection operators read in
  non local Contribution for L=            1  read in
    real space projection operators read in
  non local Contribution for L=            1  read in
    real space projection operators read in
  non local Contribution for L=            2  read in
    real space projection operators read in
    PAW grid and wavefunctions read in
 
   number of l-projection  operators is LMAX  =            5
   number of lm-projection operators is LMMAX =           13
 
 POTCAR:    PAW_PBE Pb 08Apr2002                  
   SHA256 =  797118a27cf1bcd06b9881c67a26cdde129e3cd1a551dd4a281f9681ce847303 Pb/POTCAR             
   COPYR  = (c) Copyright 08Apr2002 Georg Kresse                                                    
   COPYR  = This file is part of the software VASP. Any use, copying, and all other rights are regul
   COPYR  = If you do not have a valid VASP license, you may not use, copy or distribute this file. 
   VRHFIN =Pb:                                                                                      
   LEXCH  = PE                                                                                      
   EATOM  =    96.9868 eV,    7.1283 Ry                                                             
                                                                                                    
   TITEL  = PAW_PBE Pb 08Apr2002                                                                    
   LULTRA =        F    use ultrasoft PP ?                                                          
   IUNSCR =        1    unscreen: 0-lin 1-nonlin 2-no                                               
   RPACOR =    2.200    partial core radius                                                         
   POMASS =  207.200; ZVAL   =    4.000    mass and valenz                                          
   RCORE  =    3.100    outmost cutoff radius                                                       
   RWIGS  =    3.260; RWIGS  =    1.725    wigner-seitz radius (au A)                               
   ENMAX  =   97.973; ENMIN  =   73.480 eV                                                          
   ICORE  =        3    local potential                                                             
   LCOR   =        T    correct aug charges                                                         
   LPAW   =        T    paw PP                                                                      
   EAUG   =  234.873                                                                                
   DEXC   =    0.000                                                                                
   RMAX   =    3.158    core radius for proj-oper                                                   
   RAUG   =    1.300    factor for augmentation sphere                                              
   RDEP   =    3.202    radius for radial grids                                                     
   RDEPT  =    2.659    core radius for aug-charge                                                  
                                                                                                    
   Atomic configuration                                                                             
   17 entries                                                                                       
     n  l   j            E        occ.                                                              
     1  0  0.50    -88091.8466   2.0000                                                             
     2  0  0.50    -15753.4197   2.0000                                                             
     2  1  1.50    -13508.1797   6.0000                                                             
     3  0  0.50     -3781.7194   2.0000                                                             
     3  1  1.50     -3138.2529   6.0000                                                             
     3  2  2.50     -2483.2977  10.0000                                                             
     4  0  0.50      -856.2895   2.0000                                                             
     4  1  1.50      -645.4943   6.0000                                                             
     4  2  2.50      -401.8768  10.0000                                                             
     4  3  3.50      -132.9059  14.0000                                                             
     5  0  0.50      -144.0950   2.0000                                                             
     5  1  1.50       -85.7879   6.0000                                                             
     5  2  2.50       -21.1769  10.0000                                                             
     6  0  0.50       -12.0372   2.0000                                                             
     6  1  1.50        -3.4971   2.0000                                                             
     6  2  2.50        -1.3606   0.0000                                                             
     5  3  2.50        -2.7212   0.0000                                                             
   Description                                                                                      
     l       E           TYP  RCUT    TYP  RCUT                                                     
     0    -12.0371566     23  3.100                                                                 
     0    -13.3977392     23  3.100                                                                 
     1     -3.4971341     23  3.100                                                                 
     1     -5.4423304     23  3.100                                                                 
     2     -1.3605826     23  3.100                                                                 
     3     -1.3605826     23  3.100                                                                 
  local pseudopotential read in
  partial core-charges read in
  partial kinetic energy density read in
  atomic valenz-charges read in
  non local Contribution for L=            0  read in
    real space projection operators read in
  non local Contribution for L=            0  read in
    real space projection operators read in
  non local Contribution for L=            1  read in
    real space projection operators read in
  non local Contribution for L=            1  read in
    real space projection operators read in
  non local Contribution for L=            2  read in
    real space projection operators read in
    PAW grid and wavefunctions read in
 
   number of l-projection  operators is LMAX  =            5
   number of lm-projection operators is LMMAX =           13
 
 Optimization of the real space projectors (new method)

 maximal supplied QI-value         = 34.20
 optimisation between [QCUT,QGAM] = [ 11.29, 22.57] = [ 35.68,142.71] Ry 
 Optimized for a Real-space Cutoff    1.16 Angstroem

   l    n(q)    QCUT    max X(q) W(low)/X(q) W(high)/X(q)  e(spline) 
   0      8    11.287    19.460    0.40E-03    0.73E-03    0.16E-06
   0      8    11.287    12.209    0.38E-03    0.70E-03    0.15E-06
   1      7    11.287     4.655    0.22E-03    0.25E-04    0.22E-06
 Optimization of the real space projectors (new method)

 maximal supplied QI-value         = 25.13
 optimisation between [QCUT,QGAM] = [ 11.31, 22.87] = [ 35.82,146.48] Ry 
 Optimized for a Real-space Cutoff    1.00 Angstroem

   l    n(q)    QCUT    max X(q) W(low)/X(q) W(high)/X(q)  e(spline) 
   0      7    11.310   115.676    0.43E-03    0.13E-02    0.19E-06
   0      7    11.310    87.132    0.43E-03    0.13E-02    0.18E-06
   1      6    11.310     4.429    0.42E-03    0.74E-03    0.11E-06
   1      6    11.310     2.733    0.34E-03    0.55E-03    0.92E-07
 Optimization of the real space projectors (new method)

 maximal supplied QI-value         = 25.13
 optimisation between [QCUT,QGAM] = [ 11.31, 22.87] = [ 35.82,146.48] Ry 
 Optimized for a Real-space Cutoff    1.27 Angstroem

   l    n(q)    QCUT    max X(q) W(low)/X(q) W(high)/X(q)  e(spline) 
   0      9    11.310    79.467    0.75E-04    0.16E-03    0.36E-06
   0      9    11.310    66.151    0.74E-04    0.16E-03    0.36E-06
   1      8    11.310    17.416    0.35E-03    0.12E-03    0.95E-06
   1      8    11.310    12.382    0.37E-03    0.13E-03    0.98E-06
 Optimization of the real space projectors (new method)

 maximal supplied QI-value         = 16.25
 optimisation between [QCUT,QGAM] = [ 11.38, 22.75] = [ 36.24,144.96] Ry 
 Optimized for a Real-space Cutoff    1.31 Angstroem

   l    n(q)    QCUT    max X(q) W(low)/X(q) W(high)/X(q)  e(spline) 
   0      9    11.376   194.483    0.24E-03    0.23E-03    0.67E-07
   0      9    11.376   190.334    0.23E-03    0.22E-03    0.65E-07
   1      8    11.376   116.687    0.25E-03    0.63E-04    0.16E-06
   1      8    11.376    88.696    0.25E-03    0.61E-04    0.16E-06
   2      8    11.376     4.877    0.17E-03    0.14E-03    0.29E-07
 Optimization of the real space projectors (new method)

 maximal supplied QI-value         = 12.09
 optimisation between [QCUT,QGAM] = [ 11.37, 22.86] = [ 36.19,146.31] Ry 
 Optimized for a Real-space Cutoff    1.66 Angstroem

   l    n(q)    QCUT    max X(q) W(low)/X(q) W(high)/X(q)  e(spline) 
   0     11    11.369   135.111    0.12E-03    0.69E-04    0.19E-05
   0     11    11.369   146.850    0.11E-03    0.65E-04    0.18E-05
   1     11    11.369   148.016    0.17E-03    0.32E-03    0.89E-06
   1     11    11.369   122.989    0.17E-03    0.32E-03    0.91E-06
   2     10    11.369     8.916    0.12E-03    0.45E-04    0.33E-06
  PAW_PBE H 15Jun2001                   :
 energy of atom  1       EATOM=  -12.4884
 kinetic energy error for atom=    0.0020 (will be added to EATOM!!)
  PAW_PBE C 08Apr2002                   :
 energy of atom  2       EATOM= -147.1560
 kinetic energy error for atom=    0.0076 (will be added to EATOM!!)
  PAW_PBE N 08Apr2002                   :
 energy of atom  3       EATOM= -264.5486
 kinetic energy error for atom=    0.0138 (will be added to EATOM!!)
  PAW_PBE I 08Apr2002                   :
 energy of atom  4       EATOM= -315.8678
 kinetic energy error for atom=    0.0009 (will be added to EATOM!!)
  PAW_PBE Pb 08Apr2002                  :
 energy of atom  5       EATOM=  -96.9868
 kinetic energy error for atom=    0.0000 (will be added to EATOM!!)
 
 
 POSCAR:  H  C  N  I Pb
  positions in cartesian coordinates
  No initial velocities read in
 exchange correlation table for  LEXCH =        8
   RHO(1)=    0.500       N(1)  =     2000
   RHO(2)=  100.500       N(2)  =     4000
 


--------------------------------------------------------------------------------------------------------


 ion  position               nearest neighbor table
   1  0.435  0.278  0.584- 187 1.07
   2  0.428  0.776  0.581- 188 1.07
   3  0.941  0.295  0.584- 189 1.04
   4  0.951  0.806  0.582- 190 1.05
   5  0.304  0.050  0.582- 194 1.00
   6  0.306  0.566  0.578- 195 1.01
   7  0.777  0.066  0.582- 196 1.00
   8  0.090  0.177  0.560- 183 1.04
   9  0.088  0.679  0.558- 184 1.04
  10  0.597  0.184  0.559- 185 1.07
  11  0.610  0.716  0.559- 186 1.04
  12  0.359  0.046  0.559- 194 1.08
  13  0.306  0.598  0.551- 195 1.07
  14  0.830  0.081  0.559- 196 1.07
  15  0.066  0.219  0.585- 183 1.03
  16  0.037  0.692  0.582- 184 1.05
  17  0.545  0.188  0.584- 185 1.03
  18  0.554  0.708  0.582- 186 1.01
  19  0.238  0.446  0.585- 191 1.00
  20  0.183  0.982  0.581- 192 1.00
  21  0.690  0.957  0.582- 193 1.00
  22  0.416  0.320  0.559- 187 1.02
  23  0.409  0.823  0.557- 188 1.01
  24  0.899  0.291  0.558- 189 1.03
  25  0.949  0.857  0.558- 190 1.04
  26  0.197  0.402  0.562- 191 1.07
  27  0.159  0.937  0.557- 192 1.07
  28  0.690  0.901  0.558- 193 1.09
  29  0.517  0.262  0.541- 146 1.09
  30  0.521  0.788  0.541- 147 1.09
  31  0.985  0.214  0.543- 144 1.14
  32  0.041  0.785  0.541- 145 1.08
  33  0.238  0.497  0.539- 148 1.10
  34  0.271  0.974  0.541- 149 1.09
  35  0.777  0.976  0.542- 150 1.10
  36  0.439  0.293  0.674- 205 1.07
  37  0.439  0.812  0.673- 206 1.07
  38  0.950  0.295  0.677- 207 1.04
  39  0.942  0.799  0.676- 208 1.00
  40  0.301  0.055  0.674- 209 1.05
  41  0.300  0.556  0.675- 210 1.07
  42  0.809  0.049  0.675- 211 1.07
  43  0.806  0.554  0.674- 212 1.03
  44  0.083  0.171  0.648- 197 0.99
  45  0.089  0.687  0.652- 198 0.99
  46  0.580  0.174  0.648- 199 0.99
  47  0.571  0.665  0.656- 200 1.04
  48  0.174  0.418  0.651- 201 1.00
  49  0.173  0.919  0.650- 202 1.00
  50  0.665  0.415  0.657- 203 1.07
  51  0.663  0.933  0.650- 204 1.00
  52  0.057  0.193  0.674- 197 1.03
  53  0.049  0.701  0.677- 198 1.02
  54  0.542  0.189  0.673- 199 1.03
  55  0.537  0.704  0.679- 200 1.03
  56  0.199  0.449  0.676- 201 1.06
  57  0.198  0.952  0.676- 202 1.06
  58  0.704  0.448  0.680- 203 1.01
  59  0.694  0.957  0.676- 204 1.06
  60  0.422  0.332  0.649- 205 1.01
  61  0.425  0.832  0.646- 206 1.01
  62  0.920  0.324  0.652- 207 1.05
  63  0.925  0.837  0.652- 208 1.01
  64  0.329  0.078  0.648- 209 0.99
  65  0.327  0.580  0.649- 210 1.01
  66  0.837  0.073  0.649- 211 1.02
  67  0.814  0.579  0.647- 212 1.00
  68  0.999  0.251  0.632- 151 1.09
  69  0.018  0.771  0.635- 152 1.06
  70  0.508  0.263  0.631- 153 1.07
  71  0.508  0.741  0.633- 154 1.08
  72  0.251  0.992  0.632- 156 1.07
  73  0.248  0.495  0.632- 155 1.08
  74  0.748  0.000  0.632- 158 1.07
  75  0.730  0.496  0.635- 157 1.09
  76  0.449  0.301  0.769- 221 1.02
  77  0.449  0.801  0.769- 222 1.02
  78  0.949  0.301  0.769- 223 1.02
  79  0.949  0.801  0.769- 224 1.02
  80  0.301  0.051  0.769- 225 1.02
  81  0.301  0.551  0.769- 226 1.02
  82  0.801  0.051  0.769- 227 1.02
  83  0.801  0.551  0.769- 228 1.02
  84  0.079  0.171  0.743- 213 1.02
  85  0.079  0.671  0.743- 214 1.02
  86  0.579  0.171  0.743- 215 1.02
  87  0.579  0.671  0.743- 216 1.02
  88  0.171  0.421  0.743- 217 1.02
  89  0.171  0.921  0.743- 218 1.02
  90  0.671  0.421  0.743- 219 1.02
  91  0.671  0.921  0.743- 220 1.02
  92  0.051  0.199  0.769- 213 1.02
  93  0.051  0.699  0.769- 214 1.02
  94  0.551  0.199  0.769- 215 1.02
  95  0.551  0.699  0.769- 216 1.02
  96  0.199  0.449  0.769- 217 1.02
  97  0.199  0.949  0.769- 218 1.02
  98  0.699  0.449  0.769- 219 1.02
  99  0.699  0.949  0.769- 220 1.02
 100  0.421  0.329  0.743- 221 1.02
 101  0.421  0.829  0.743- 222 1.02
 102  0.921  0.329  0.743- 223 1.02
 103  0.921  0.829  0.743- 224 1.02
 104  0.329  0.079  0.743- 225 1.02
 105  0.329  0.579  0.743- 226 1.02
 106  0.829  0.079  0.743- 227 1.02
 107  0.829  0.579  0.743- 228 1.02
 108  0.000  0.250  0.726- 161 1.09
 109  0.000  0.750  0.726- 162 1.09
 110  0.500  0.250  0.726- 159 1.09
 111  0.500  0.750  0.726- 160 1.09
 112  0.250  0.000  0.726- 163 1.09
 113  0.250  0.500  0.726- 164 1.09
 114  0.750  0.000  0.726- 165 1.09
 115  0.750  0.500  0.726- 166 1.09
 116  0.776  0.517  0.523- 173 1.13
 117  0.870  0.516  0.535- 173 1.12
 118  0.766  0.630  0.541- 174 1.10
 119  0.771  0.634  0.569- 174 1.08
 120  0.682  0.465  0.563- 175 1.12
 121  0.676  0.561  0.569- 175 1.10
 122  0.809  0.431  0.574- 176 1.10
 123  0.872  0.505  0.575- 176 1.09
 124  0.858  0.393  0.546- 177 1.10
 125  0.761  0.386  0.541- 177 1.09
 126  0.775  0.393  0.504- 178 1.11
 127  0.866  0.431  0.505- 178 1.14
 128  0.896  0.633  0.536- 179 1.09
 129  0.918  0.611  0.562- 179 1.10
 130  0.875  0.698  0.556- 179 1.11
 131  0.596  0.536  0.538- 180 1.11
 132  0.668  0.489  0.524- 180 1.11
 133  0.670  0.588  0.527- 180 1.11
 134  0.732  0.480  0.602- 181 1.08
 135  0.752  0.572  0.593- 181 1.10
 136  0.815  0.528  0.609- 181 1.11
 137  0.838  0.272  0.521- 182 1.13
 138  0.843  0.291  0.493- 182 1.10
 139  0.939  0.185  0.504- 168 1.09
 140  0.970  0.419  0.516- 169 1.09
 141  0.074  0.167  0.506- 170 1.10
 142  0.101  0.402  0.518- 171 1.10
 143  0.159  0.274  0.513- 172 1.09
 144  0.993  0.233  0.560-  31 1.14 189 1.31 183 1.32
 145  0.020  0.769  0.557-  32 1.08 190 1.30 184 1.30
 146  0.505  0.252  0.558-  29 1.09 187 1.30 185 1.32
 147  0.508  0.769  0.557-  30 1.09 188 1.29 186 1.34
 148  0.252  0.501  0.556-  33 1.10 195 1.30 191 1.34
 149  0.259  0.991  0.557-  34 1.09 194 1.32 192 1.32
 150  0.759  0.992  0.558-  35 1.10 193 1.31 196 1.32
 151  0.001  0.249  0.649-  68 1.09 207 1.28 197 1.36
 152  0.006  0.763  0.651-  69 1.06 208 1.30 198 1.37
 153  0.500  0.254  0.648-  70 1.07 205 1.29 199 1.37
 154  0.498  0.750  0.650-  71 1.08 206 1.28 200 1.33
 155  0.251  0.500  0.649-  73 1.08 210 1.28 201 1.35
 156  0.251  0.999  0.649-  72 1.07 209 1.33 202 1.34
 157  0.739  0.496  0.652-  75 1.09 203 1.29 212 1.36
 158  0.751  0.003  0.649-  74 1.07 211 1.29 204 1.35
 159  0.500  0.250  0.743- 110 1.09 221 1.31 215 1.31
 160  0.500  0.750  0.743- 111 1.09 222 1.31 216 1.31
 161  1.000  0.250  0.743- 108 1.09 223 1.31 213 1.31
 162  1.000  0.750  0.743- 109 1.09 224 1.31 214 1.31
 163  0.250  0.000  0.743- 112 1.09 225 1.31 218 1.31
 164  0.250  0.500  0.743- 113 1.09 226 1.31 217 1.31
 165  0.750  0.000  0.743- 114 1.09 227 1.31 220 1.31
 166  0.750  0.500  0.743- 115 1.09 228 1.31 219 1.31
 167  0.942  0.305  0.509- 169 1.39 168 1.45 182 1.48
 168  0.975  0.232  0.506- 139 1.09 170 1.39 167 1.45
 169  0.991  0.364  0.512- 140 1.09 167 1.39 171 1.42
 170  0.051  0.223  0.507- 141 1.10 168 1.39 172 1.42
 171  0.068  0.353  0.514- 142 1.10 172 1.37 169 1.42
 172  0.099  0.284  0.512- 143 1.09 171 1.37 170 1.42
 173  0.812  0.493  0.536- 117 1.12 116 1.13 177 1.46 229 1.53
 174  0.798  0.611  0.555- 119 1.08 118 1.10 229 1.50 179 1.51
 175  0.695  0.522  0.557- 121 1.10 120 1.12 180 1.53 229 1.57
 176  0.813  0.492  0.575- 123 1.09 122 1.10 229 1.51 181 1.53
 177  0.812  0.412  0.535- 125 1.09 124 1.10 173 1.46 178 1.57
 178  0.829  0.386  0.512- 126 1.11 127 1.14 182 1.47 177 1.57
 179  0.876  0.638  0.552- 128 1.09 129 1.10 130 1.11 174 1.51
 180  0.656  0.535  0.535- 131 1.11 133 1.11 132 1.11 175 1.53
 181  0.776  0.517  0.596- 134 1.08 135 1.10 136 1.11 176 1.53
 182  0.861  0.312  0.509- 138 1.10 137 1.13 178 1.47 167 1.48
 183  0.053  0.207  0.569-  15 1.03   8 1.04 144 1.32
 184  0.049  0.712  0.566-   9 1.04  16 1.05 145 1.30
 185  0.549  0.204  0.568-  17 1.03  10 1.07 146 1.32
 186  0.559  0.726  0.567-  18 1.01  11 1.04 147 1.34
 187  0.449  0.284  0.567-  22 1.02   1 1.07 146 1.30
 188  0.445  0.790  0.565-  23 1.01   2 1.07 147 1.29
 189  0.941  0.275  0.568-  24 1.03   3 1.04 144 1.31
 190  0.971  0.812  0.566-  25 1.04   4 1.05 145 1.30
 191  0.227  0.447  0.569-  19 1.00  26 1.07 148 1.34
 192  0.197  0.969  0.566-  20 1.00  27 1.07 149 1.32
 193  0.710  0.949  0.567-  21 1.00  28 1.09 150 1.31
 194  0.309  0.032  0.567-   5 1.00  12 1.08 149 1.32
 195  0.289  0.557  0.563-   6 1.01  13 1.07 148 1.30
 196  0.790  0.049  0.567-   7 1.00  14 1.07 150 1.32
 197  0.051  0.200  0.658-  44 0.99  52 1.03 151 1.36
 198  0.052  0.713  0.661-  45 0.99  53 1.02 152 1.37
 199  0.544  0.201  0.657-  46 0.99  54 1.03 153 1.37
 200  0.537  0.705  0.663-  55 1.03  47 1.04 154 1.33
 201  0.205  0.452  0.659-  48 1.00  56 1.06 155 1.35
 202  0.204  0.954  0.659-  49 1.00  57 1.06 156 1.34
 203  0.702  0.453  0.664-  58 1.01  50 1.07 157 1.29
 204  0.699  0.961  0.659-  51 1.00  59 1.06 158 1.35
 205  0.452  0.294  0.657-  60 1.01  36 1.07 153 1.29
 206  0.452  0.800  0.657-  61 1.01  37 1.07 154 1.28
 207  0.956  0.290  0.660-  38 1.04  62 1.05 151 1.28
 208  0.955  0.801  0.661-  39 1.00  63 1.01 152 1.30
 209  0.297  0.048  0.657-  64 0.99  40 1.05 156 1.33
 210  0.294  0.547  0.658-  65 1.01  41 1.07 155 1.28
 211  0.801  0.043  0.658-  66 1.02  42 1.07 158 1.29
 212  0.790  0.547  0.659-  67 1.00  43 1.03 157 1.36
 213  0.046  0.204  0.753-  92 1.02  84 1.02 161 1.31
 214  0.046  0.704  0.753-  93 1.02  85 1.02 162 1.31
 215  0.546  0.204  0.753-  94 1.02  86 1.02 159 1.31
 216  0.546  0.704  0.753-  95 1.02  87 1.02 160 1.31
 217  0.204  0.454  0.753-  96 1.02  88 1.02 164 1.31
 218  0.204  0.954  0.753-  97 1.02  89 1.02 163 1.31
 219  0.704  0.454  0.753-  98 1.02  90 1.02 166 1.31
 220  0.704  0.954  0.753-  99 1.02  91 1.02 165 1.31
 221  0.454  0.296  0.753-  76 1.02 100 1.02 159 1.31
 222  0.454  0.796  0.753-  77 1.02 101 1.02 160 1.31
 223  0.954  0.296  0.753-  78 1.02 102 1.02 161 1.31
 224  0.954  0.796  0.753-  79 1.02 103 1.02 162 1.31
 225  0.296  0.046  0.753-  80 1.02 104 1.02 163 1.31
 226  0.296  0.546  0.753-  81 1.02 105 1.02 164 1.31
 227  0.796  0.046  0.753-  82 1.02 106 1.02 165 1.31
 228  0.796  0.546  0.753-  83 1.02 107 1.02 166 1.31
 229  0.782  0.529  0.556- 174 1.50 176 1.51 173 1.53 175 1.57
 230  0.496  0.002  0.552- 304 3.12
 231  0.472  0.481  0.556- 305 3.06
 232  0.995  0.004  0.551- 302 3.23
 233  0.024  0.495  0.558- 303 3.06
 234  0.259  0.246  0.554- 306 3.13
 235  0.246  0.759  0.551- 307 3.25
 236  0.736  0.229  0.555- 308 3.19
 237  0.724  0.776  0.547- 309 3.68
 238  0.005  0.003  0.654- 310 3.16 302 3.23
 239  0.005  0.502  0.657- 311 3.01 303 3.09
 240  0.505  0.004  0.654- 312 3.17 304 3.25
 241  0.501  0.500  0.656- 313 3.08 305 3.24
 242  0.247  0.248  0.655- 314 3.10 306 3.18
 243  0.248  0.752  0.655- 315 3.14 307 3.20
 244  0.741  0.249  0.656- 316 3.06 308 3.12
 245  0.749  0.759  0.653- 309 3.02 317 3.23
 246  0.146  0.103  0.609- 302 3.23 306 3.30
 247  0.149  0.605  0.609- 303 3.11 307 3.30
 248  0.641  0.105  0.609- 304 3.18 308 3.28
 249  0.618  0.633  0.614- 309 3.32 305 3.33
 250  0.357  0.389  0.611- 306 3.16 305 3.27
 251  0.357  0.892  0.608- 307 3.14 304 3.29
 252  0.882  0.370  0.614- 308 3.27 303 3.36
 253  0.855  0.895  0.608- 309 3.14 302 3.26
 254  0.112  0.354  0.610- 306 3.26 303 3.26
 255  0.108  0.858  0.608- 307 3.17 302 3.29
 256  0.615  0.365  0.607- 308 3.17 305 3.17
 257  0.609  0.862  0.610- 309 3.17 304 3.23
 258  0.394  0.140  0.610- 306 3.18 304 3.20
 259  0.388  0.646  0.606- 307 3.19 305 3.37
 260  0.891  0.135  0.610- 302 3.12 308 3.33
 261  0.911  0.662  0.614- 303 3.41 309 3.45
 262  0.000  0.000  0.755- 310 3.13 318 3.27
 263  0.000  0.500  0.755- 311 3.13 319 3.27
 264  0.500  0.000  0.755- 312 3.13 320 3.27
 265  0.500  0.500  0.755- 313 3.13 321 3.27
 266  0.250  0.250  0.755- 314 3.13 322 3.27
 267  0.250  0.750  0.755- 315 3.13 323 3.27
 268  0.750  0.250  0.755- 316 3.13 324 3.27
 269  0.750  0.750  0.755- 317 3.13 325 3.27
 270  0.136  0.114  0.705- 310 3.20 314 3.20
 271  0.136  0.614  0.705- 311 3.20 315 3.20
 272  0.636  0.114  0.705- 312 3.20 316 3.20
 273  0.636  0.614  0.705- 313 3.20 317 3.20
 274  0.364  0.386  0.705- 313 3.20 314 3.20
 275  0.364  0.886  0.705- 312 3.20 315 3.20
 276  0.864  0.386  0.705- 311 3.20 316 3.20
 277  0.864  0.886  0.705- 310 3.20 317 3.20
 278  0.114  0.364  0.705- 314 3.21 311 3.21
 279  0.114  0.864  0.705- 315 3.21 310 3.21
 280  0.614  0.364  0.705- 316 3.21 313 3.21
 281  0.614  0.864  0.705- 317 3.21 312 3.21
 282  0.386  0.136  0.705- 314 3.21 312 3.21
 283  0.386  0.636  0.705- 315 3.21 313 3.21
 284  0.886  0.136  0.705- 316 3.21 310 3.21
 285  0.886  0.636  0.705- 317 3.21 311 3.21
 286  0.135  0.115  0.801- 318 3.22 322 3.22
 287  0.135  0.615  0.801- 319 3.22 323 3.22
 288  0.635  0.115  0.801- 320 3.22 324 3.22
 289  0.635  0.615  0.801- 321 3.22 325 3.22
 290  0.365  0.385  0.801- 321 3.22 322 3.22
 291  0.365  0.885  0.801- 320 3.22 323 3.22
 292  0.865  0.385  0.801- 319 3.22 324 3.22
 293  0.865  0.885  0.801- 318 3.22 325 3.22
 294  0.115  0.365  0.801- 319 3.23 322 3.23
 295  0.115  0.865  0.801- 318 3.23 323 3.23
 296  0.615  0.365  0.801- 321 3.23 324 3.23
 297  0.615  0.865  0.801- 320 3.23 325 3.23
 298  0.385  0.135  0.801- 320 3.23 322 3.23
 299  0.385  0.635  0.801- 321 3.23 323 3.23
 300  0.885  0.135  0.801- 318 3.23 324 3.23
 301  0.885  0.635  0.801- 319 3.23 325 3.23
 302  0.999  0.003  0.603- 260 3.12 246 3.23 238 3.23 232 3.23 253 3.26 255 3.29
 303  0.010  0.503  0.607- 233 3.06 239 3.09 247 3.11 254 3.26 252 3.36 261 3.41
 304  0.501  0.002  0.602- 230 3.12 248 3.18 258 3.20 257 3.23 240 3.25 251 3.29
 305  0.500  0.497  0.604- 231 3.06 256 3.17 241 3.24 250 3.27 249 3.33 259 3.37
 306  0.256  0.248  0.604- 234 3.13 250 3.16 242 3.18 258 3.18 254 3.26 246 3.30
 307  0.250  0.756  0.603- 251 3.14 255 3.17 259 3.19 243 3.20 235 3.25 247 3.30
 308  0.749  0.251  0.606- 244 3.12 256 3.17 236 3.19 252 3.27 248 3.28 260 3.33
 309  0.749  0.758  0.605- 245 3.02 253 3.14 257 3.17 249 3.32 261 3.45 237 3.68
 310  0.000  0.000  0.705- 262 3.13 238 3.16 270 3.20 277 3.20 279 3.21 284 3.21
 311  0.000  0.500  0.705- 239 3.01 263 3.13 271 3.20 276 3.20 278 3.21 285 3.21
 312  0.500  0.000  0.705- 264 3.13 240 3.17 272 3.20 275 3.20 281 3.21 282 3.21
 313  0.500  0.500  0.705- 241 3.08 265 3.13 273 3.20 274 3.20 280 3.21 283 3.21
 314  0.250  0.250  0.705- 242 3.10 266 3.13 270 3.20 274 3.20 282 3.21 278 3.21
 315  0.250  0.750  0.705- 267 3.13 243 3.14 271 3.20 275 3.20 283 3.21 279 3.21
 316  0.750  0.250  0.705- 244 3.06 268 3.13 272 3.20 276 3.20 284 3.21 280 3.21
 317  0.750  0.750  0.705- 269 3.13 273 3.20 277 3.20 285 3.21 281 3.21 245 3.23
 318  0.000  0.000  0.807- 286 3.22 293 3.22 300 3.23 295 3.23 262 3.27
 319  0.000  0.500  0.807- 287 3.22 292 3.22 301 3.23 294 3.23 263 3.27
 320  0.500  0.000  0.807- 288 3.22 291 3.22 298 3.23 297 3.23 264 3.27
 321  0.500  0.500  0.807- 289 3.22 290 3.22 299 3.23 296 3.23 265 3.27
 322  0.250  0.250  0.807- 290 3.22 286 3.22 294 3.23 298 3.23 266 3.27
 323  0.250  0.750  0.807- 291 3.22 287 3.22 299 3.23 295 3.23 267 3.27
 324  0.750  0.250  0.807- 292 3.22 288 3.22 296 3.23 300 3.23 268 3.27
 325  0.750  0.750  0.807- 293 3.22 289 3.22 297 3.23 301 3.23 269 3.27
 

IMPORTANT INFORMATION: All symmetrisations will be switched off!
NOSYMM: (Re-)initialisation of all symmetry stuff for point group C_1.


----------------------------------------------------------------------------------------

                                     Primitive cell                                     

  volume of cell :   20385.2105

  direct lattice vectors                    reciprocal lattice vectors
    18.060800552  0.000000000  0.000000000     0.055368531  0.000015077 -0.000000000
    -0.004918649 18.062799454  0.000000000     0.000000000  0.055362404  0.000000000
     0.000000000  0.000000000 62.487499237     0.000000000 -0.000000000  0.016003201

  length of vectors
    18.060800552 18.062800123 62.487499237     0.055368533  0.055362404  0.016003201

  position of ions in fractional coordinates (direct lattice)
     0.434527771  0.277930064  0.583961404
     0.428260290  0.775582625  0.581103716
     0.940914879  0.295247578  0.583952735
     0.950555218  0.805938928  0.581687390
     0.304044147  0.050148294  0.582193289
     0.306115050  0.566189418  0.577920889
     0.777184297  0.066124186  0.582039083
     0.090499740  0.176654487  0.560355791
     0.088372478  0.679151687  0.558431151
     0.597013933  0.184330996  0.559471154
     0.609736720  0.716304163  0.559149251
     0.358730472  0.045554647  0.558631509
     0.305971551  0.597677492  0.551199236
     0.829505947  0.080816711  0.558544516
     0.065665451  0.219159357  0.584996401
     0.036670695  0.692204440  0.581612423
     0.544937121  0.188398399  0.583584009
     0.553702441  0.707964396  0.581834697
     0.237748292  0.445589327  0.584558691
     0.182503479  0.982385256  0.581452968
     0.690289129  0.957099778  0.581820168
     0.415686699  0.319805031  0.559273116
     0.409081910  0.822600458  0.557454210
     0.898753157  0.291404909  0.558448977
     0.949316471  0.857214209  0.557979034
     0.196735354  0.402009417  0.562190875
     0.159312523  0.936502051  0.557293655
     0.689941216  0.901488390  0.558254480
     0.516676983  0.262475622  0.541426590
     0.521037477  0.788025407  0.541187224
     0.984540864  0.214247613  0.542744176
     0.040692720  0.785193074  0.541377997
     0.237940860  0.496944703  0.538815411
     0.271285375  0.973634956  0.540873623
     0.777369372  0.976346530  0.541531653
     0.438719504  0.292866613  0.674111149
     0.438771025  0.811756496  0.672780499
     0.949615163  0.294881004  0.676561346
     0.942318266  0.798635739  0.676367765
     0.301172125  0.055055425  0.674074093
     0.300125438  0.555911870  0.675139370
     0.809253730  0.049030012  0.674973199
     0.805923232  0.554231688  0.674287820
     0.082638443  0.170921581  0.648178289
     0.088929155  0.687278362  0.651908466
     0.579625520  0.174077682  0.647616225
     0.571047256  0.664963043  0.655887838
     0.173688293  0.417606043  0.650839954
     0.172659360  0.918912127  0.650402977
     0.664798490  0.414907606  0.656696350
     0.663126996  0.932711684  0.650075030
     0.057069497  0.192744257  0.674120855
     0.049496060  0.700751227  0.676868597
     0.541759162  0.188868404  0.672938429
     0.537088069  0.704278272  0.679336864
     0.199035318  0.449364310  0.676266487
     0.198389732  0.951856679  0.675676647
     0.703663990  0.447980060  0.680477473
     0.694493694  0.957015529  0.675609679
     0.422402570  0.331531744  0.649388919
     0.424823178  0.832111753  0.645845730
     0.920461181  0.324017390  0.651512146
     0.925052633  0.836776113  0.651544868
     0.329321187  0.077519501  0.647944050
     0.326719160  0.579983293  0.649363951
     0.837399273  0.073404006  0.649091435
     0.814050376  0.578824753  0.647484852
     0.999074723  0.251447000  0.632047377
     0.017630636  0.771275653  0.634514301
     0.508350065  0.263019966  0.630887599
     0.507860184  0.740874999  0.633390846
     0.251365138  0.992273758  0.631585431
     0.248431610  0.495219432  0.632205062
     0.748343543  0.000059627  0.631765399
     0.730069357  0.496077236  0.634829549
     0.448745018  0.301283966  0.768889017
     0.448745007  0.801283913  0.768889017
     0.948744965  0.301283966  0.768889017
     0.948745007  0.801283913  0.768889017
     0.301275995  0.051294496  0.768872961
     0.301276011  0.551294499  0.768872961
     0.801275943  0.051294496  0.768872961
     0.801275984  0.551294499  0.768872961
     0.078771004  0.171180501  0.743441971
     0.078771006  0.671180448  0.743441971
     0.578771004  0.171180501  0.743441971
     0.578770992  0.671180448  0.743441971
     0.171199499  0.421174482  0.743421032
     0.171199501  0.921174508  0.743421032
     0.671199512  0.421174482  0.743421032
     0.671199501  0.921174508  0.743421032
     0.051256000  0.198714991  0.768889017
     0.051256002  0.698714925  0.768889017
     0.551256027  0.198714991  0.768889017
     0.551256016  0.698714925  0.768889017
     0.198723491  0.448703970  0.768872046
     0.198723493  0.948703970  0.768872046
     0.698723518  0.448703970  0.768872046
     0.698723507  0.948703970  0.768872046
     0.421231519  0.328817467  0.743441971
     0.421231508  0.828817440  0.743441971
     0.921231466  0.328817467  0.743441971
     0.921231508  0.828817440  0.743441971
     0.328800503  0.078824997  0.743421032
     0.328800492  0.578824964  0.743421032
     0.828800477  0.078824997  0.743421032
     0.828800519  0.578824964  0.743421032
     0.000003500  0.250001478  0.725821992
     0.000003500  0.750001452  0.725821992
     0.500003506  0.250001478  0.725821992
     0.500003495  0.750001452  0.725821992
     0.250000502  0.000000000  0.725803983
     0.250000517  0.500000000  0.725803983
     0.750000502  0.000000000  0.725803983
     0.750000490  0.500000000  0.725803983
     0.776249548  0.517229316  0.522720395
     0.869865278  0.515891739  0.535183093
     0.766089601  0.630010647  0.540715633
     0.771017639  0.634042016  0.568500426
     0.681529095  0.464783193  0.562707153
     0.675668455  0.561046657  0.568881056
     0.809374236  0.431020039  0.573793660
     0.872483708  0.505064303  0.575022665
     0.857678750  0.392976417  0.545635501
     0.760803617  0.386171374  0.540683033
     0.774752816  0.392887241  0.503695838
     0.865965133  0.430889497  0.504768532
     0.895890857  0.633312140  0.535594125
     0.918035012  0.611346184  0.562400512
     0.874648672  0.698051680  0.555717962
     0.595947903  0.536315897  0.537790365
     0.668168832  0.488766022  0.523753805
     0.669980733  0.587651948  0.527013673
     0.732243022  0.480203818  0.601502144
     0.752183411  0.571821401  0.592558155
     0.815070862  0.527655912  0.609453380
     0.838076853  0.271967699  0.521050689
     0.842502343  0.290866240  0.493080861
     0.938711810  0.184733486  0.503669954
     0.970221482  0.419341689  0.515695797
     0.074179125  0.167388174  0.505596945
     0.101374406  0.401519507  0.518340125
     0.158600697  0.274033039  0.512980898
     0.992785411  0.232905450  0.559948422
     0.020285493  0.769188823  0.556903929
     0.504886364  0.251777567  0.558277739
     0.507716015  0.768934022  0.557244573
     0.251539853  0.500800941  0.555899212
     0.258591641  0.991477355  0.557207334
     0.759194966  0.991833345  0.557662626
     0.000923345  0.248502261  0.649455644
     0.006230382  0.763413864  0.651048369
     0.500390182  0.253863155  0.647604871
     0.498041496  0.750084080  0.650234425
     0.251292176  0.499727564  0.649358029
     0.251051986  0.998862240  0.648525038
     0.739020033  0.496268417  0.652047715
     0.751278201  0.003147394  0.648906523
     0.499988984  0.249994984  0.743277021
     0.499989025  0.749994958  0.743277021
     0.999988984  0.249994984  0.743277021
     0.999989025  0.749994958  0.743277021
     0.250000502  0.000001000  0.743255960
     0.250000517  0.500001003  0.743255960
     0.750000502  0.000001000  0.743255960
     0.750000491  0.500001003  0.743255960
     0.942363874  0.304796439  0.509357554
     0.975027995  0.232498829  0.506124699
     0.990614794  0.364091031  0.512145648
     0.051309526  0.223372403  0.507094803
     0.068170368  0.352634378  0.513985005
     0.098932985  0.283648266  0.511869409
     0.812445993  0.492930018  0.535635027
     0.797734908  0.610753847  0.554641758
     0.694914340  0.521667808  0.556569695
     0.813335061  0.491824012  0.575332420
     0.812139038  0.411855529  0.535287606
     0.829118079  0.385905775  0.511868676
     0.876492423  0.637980460  0.552126240
     0.656469029  0.534663593  0.535109958
     0.775721140  0.516829637  0.596064472
     0.860866492  0.311706180  0.508760267
     0.052964145  0.207352352  0.569248317
     0.049347140  0.711605590  0.566229220
     0.549446757  0.204110269  0.567874568
     0.558967956  0.726183352  0.566621144
     0.449323870  0.284488832  0.567437286
     0.445424838  0.789697669  0.565292204
     0.941362775  0.275144853  0.568355744
     0.971182874  0.811574344  0.566007007
     0.227367155  0.446802883  0.568890885
     0.196932066  0.969218250  0.566490319
     0.709781323  0.949450407  0.567020821
     0.308790679  0.031516176  0.567194378
     0.289236777  0.557114443  0.562722598
     0.789947763  0.049076471  0.567278502
     0.050843366  0.200275757  0.657917358
     0.051604947  0.712963177  0.660873577
     0.544315497  0.201118870  0.656792621
     0.536569301  0.704572144  0.662813601
     0.204910838  0.452187932  0.659432432
     0.204086233  0.953655681  0.658858770
     0.702262493  0.452687451  0.664374277
     0.699270213  0.961337582  0.658804132
     0.452351902  0.293647254  0.657499245
     0.452005070  0.799630553  0.656501364
     0.956424770  0.289522486  0.660080449
     0.954807881  0.801373511  0.660731336
     0.296853872  0.047570823  0.657396136
     0.294105470  0.546917042  0.658327291
     0.801408573  0.042719011  0.658019246
     0.789970168  0.546849461  0.658640159
     0.045862501  0.204119496  0.752725994
     0.045862500  0.704119456  0.752725994
     0.545862507  0.204119496  0.752725994
     0.545862496  0.704119456  0.752725994
     0.204119002  0.454101003  0.752704994
     0.204118991  0.954100951  0.752704994
     0.704118976  0.454101003  0.752704994
     0.704118964  0.954100951  0.752704994
     0.454140018  0.295888490  0.752726971
     0.454140007  0.795888516  0.752726971
     0.954140018  0.295888490  0.752726971
     0.954140060  0.795888516  0.752726971
     0.295882492  0.045900498  0.752704994
     0.295882481  0.545900528  0.752704994
     0.795882439  0.045900498  0.752704994
     0.795882481  0.545900528  0.752704994
     0.781618455  0.529444170  0.555826382
     0.496043154  0.001505560  0.552276295
     0.471761787  0.480899269  0.555532744
     0.994646554  0.004033055  0.550981480
     0.024467896  0.495471224  0.558384389
     0.258746490  0.245580832  0.554290797
     0.245555127  0.758873736  0.551436100
     0.736234387  0.228914577  0.555442333
     0.724245288  0.775871482  0.546545534
     0.004879595  0.003378463  0.654321668
     0.004799088  0.502027960  0.656603497
     0.504731596  0.004371347  0.654159832
     0.501417225  0.499958343  0.655511665
     0.247367281  0.248032124  0.655264362
     0.247577801  0.751533324  0.654591009
     0.741275989  0.249171551  0.655902490
     0.748567788  0.758901983  0.653162623
     0.145688038  0.102632187  0.609072139
     0.149035397  0.605085327  0.609071895
     0.640914564  0.105322969  0.609218103
     0.617906498  0.633369215  0.614294864
     0.356631054  0.388925750  0.611091403
     0.356868725  0.891686780  0.608476866
     0.882185135  0.370272639  0.614134248
     0.855427278  0.895410180  0.607762002
     0.111580469  0.354096241  0.610128381
     0.108410319  0.858342708  0.607836235
     0.615318806  0.365018317  0.606793058
     0.609397633  0.862367371  0.610142910
     0.393928299  0.140023164  0.610117881
     0.387876002  0.645659253  0.606210239
     0.891248732  0.135184822  0.609895546
     0.911401098  0.662166877  0.613604662
     0.000000000  0.000000000  0.754927972
     0.000000000  0.500000000  0.754927972
     0.500000000  0.000000000  0.754927972
     0.499999989  0.500000000  0.754927972
     0.250000496  0.250000000  0.754939022
     0.250000511  0.749999974  0.754939022
     0.750000470  0.250000000  0.754939022
     0.750000458  0.749999974  0.754939022
     0.135790500  0.114209997  0.704782994
     0.135790502  0.614209984  0.704782994
     0.635790447  0.114209997  0.704782994
     0.635790488  0.614209984  0.704782994
     0.364209516  0.385789989  0.704782994
     0.364209505  0.885789963  0.704782994
     0.864209542  0.385789989  0.704782994
     0.864209531  0.885789963  0.704782994
     0.114217990  0.364218986  0.704780979
     0.114217992  0.864218986  0.704780979
     0.614218004  0.364218986  0.704780979
     0.614217992  0.864218986  0.704780979
     0.385782012  0.135781489  0.704782017
     0.385782001  0.635781489  0.704782017
     0.885781985  0.135781489  0.704782017
     0.885782027  0.635781489  0.704782017
     0.134667000  0.115332001  0.801256025
     0.134666989  0.615331988  0.801256025
     0.634666987  0.115332001  0.801256025
     0.634666976  0.615331988  0.801256025
     0.365333002  0.384667985  0.801256025
     0.365332990  0.884667959  0.801256025
     0.865332949  0.384667985  0.801256025
     0.865332938  0.884667959  0.801256025
     0.115328503  0.365337004  0.801264999
     0.115328505  0.865336978  0.801264999
     0.615328503  0.365337004  0.801264999
     0.615328492  0.865336978  0.801264999
     0.384671513  0.134662996  0.801264999
     0.384671501  0.634662970  0.801264999
     0.884671486  0.134662996  0.801264999
     0.884671528  0.634662970  0.801264999
     0.999224856  0.002828076  0.602692445
     0.010290315  0.503007991  0.607203785
     0.500594679  0.001572770  0.602180746
     0.499930871  0.496710439  0.603659558
     0.255861048  0.247836429  0.604432906
     0.250129113  0.755909092  0.603354321
     0.748558893  0.251210387  0.605986683
     0.749076984  0.758168781  0.604772878
     0.000000500  0.000000500  0.704828963
     0.000000500  0.500000475  0.704828963
     0.500000475  0.000000500  0.704828963
     0.500000464  0.500000475  0.704828963
     0.249999994  0.249999472  0.704824995
     0.250000010  0.749999498  0.704824995
     0.749999994  0.249999472  0.704824995
     0.749999983  0.749999498  0.704824995
     0.000000000  0.000000000  0.807317968
     0.000000000  0.500000000  0.807317968
     0.500000000  0.000000000  0.807317968
     0.499999989  0.500000000  0.807317968
     0.249999994  0.250000000  0.807317968
     0.250000010  0.749999974  0.807317968
     0.749999994  0.250000000  0.807317968
     0.749999983  0.749999974  0.807317968

  ion indices of the primitive-cell ions
   primitive index   ion index
                 1           1
                 2           2
                 3           3
                 4           4
                 5           5
                 6           6
                 7           7
                 8           8
                 9           9
                10          10
                11          11
                12          12
                13          13
                14          14
                15          15
                16          16
                17          17
                18          18
                19          19
                20          20
                21          21
                22          22
                23          23
                24          24
                25          25
                26          26
                27          27
                28          28
                29          29
                30          30
                31          31
                32          32
                33          33
                34          34
                35          35
                36          36
                37          37
                38          38
                39          39
                40          40
                41          41
                42          42
                43          43
                44          44
                45          45
                46          46
                47          47
                48          48
                49          49
                50          50
                51          51
                52          52
                53          53
                54          54
                55          55
                56          56
                57          57
                58          58
                59          59
                60          60
                61          61
                62          62
                63          63
                64          64
                65          65
                66          66
                67          67
                68          68
                69          69
                70          70
                71          71
                72          72
                73          73
                74          74
                75          75
                76          76
                77          77
                78          78
                79          79
                80          80
                81          81
                82          82
                83          83
                84          84
                85          85
                86          86
                87          87
                88          88
                89          89
                90          90
                91          91
                92          92
                93          93
                94          94
                95          95
                96          96
                97          97
                98          98
                99          99
               100         100
               101         101
               102         102
               103         103
               104         104
               105         105
               106         106
               107         107
               108         108
               109         109
               110         110
               111         111
               112         112
               113         113
               114         114
               115         115
               116         116
               117         117
               118         118
               119         119
               120         120
               121         121
               122         122
               123         123
               124         124
               125         125
               126         126
               127         127
               128         128
               129         129
               130         130
               131         131
               132         132
               133         133
               134         134
               135         135
               136         136
               137         137
               138         138
               139         139
               140         140
               141         141
               142         142
               143         143
               144         144
               145         145
               146         146
               147         147
               148         148
               149         149
               150         150
               151         151
               152         152
               153         153
               154         154
               155         155
               156         156
               157         157
               158         158
               159         159
               160         160
               161         161
               162         162
               163         163
               164         164
               165         165
               166         166
               167         167
               168         168
               169         169
               170         170
               171         171
               172         172
               173         173
               174         174
               175         175
               176         176
               177         177
               178         178
               179         179
               180         180
               181         181
               182         182
               183         183
               184         184
               185         185
               186         186
               187         187
               188         188
               189         189
               190         190
               191         191
               192         192
               193         193
               194         194
               195         195
               196         196
               197         197
               198         198
               199         199
               200         200
               201         201
               202         202
               203         203
               204         204
               205         205
               206         206
               207         207
               208         208
               209         209
               210         210
               211         211
               212         212
               213         213
               214         214
               215         215
               216         216
               217         217
               218         218
               219         219
               220         220
               221         221
               222         222
               223         223
               224         224
               225         225
               226         226
               227         227
               228         228
               229         229
               230         230
               231         231
               232         232
               233         233
               234         234
               235         235
               236         236
               237         237
               238         238
               239         239
               240         240
               241         241
               242         242
               243         243
               244         244
               245         245
               246         246
               247         247
               248         248
               249         249
               250         250
               251         251
               252         252
               253         253
               254         254
               255         255
               256         256
               257         257
               258         258
               259         259
               260         260
               261         261
               262         262
               263         263
               264         264
               265         265
               266         266
               267         267
               268         268
               269         269
               270         270
               271         271
               272         272
               273         273
               274         274
               275         275
               276         276
               277         277
               278         278
               279         279
               280         280
               281         281
               282         282
               283         283
               284         284
               285         285
               286         286
               287         287
               288         288
               289         289
               290         290
               291         291
               292         292
               293         293
               294         294
               295         295
               296         296
               297         297
               298         298
               299         299
               300         300
               301         301
               302         302
               303         303
               304         304
               305         305
               306         306
               307         307
               308         308
               309         309
               310         310
               311         311
               312         312
               313         313
               314         314
               315         315
               316         316
               317         317
               318         318
               319         319
               320         320
               321         321
               322         322
               323         323
               324         324
               325         325

----------------------------------------------------------------------------------------

 
 
 KPOINTS: Automatic Mesh                          

Automatic generation of k-mesh.
 Grid dimensions read from file:
 generate k-points for:    3    3    1

 Generating k-lattice:

  Cartesian coordinates                     Fractional coordinates (reciprocal lattice)
     0.018456177  0.000005026 -0.000000000     0.333333333  0.000000000  0.000000000
     0.000000000  0.018454135  0.000000000     0.000000000  0.333333333  0.000000000
     0.000000000 -0.000000000  0.016003201     0.000000000  0.000000000  1.000000000

  Length of vectors
     0.018456178  0.018454135  0.016003201

  Shift w.r.t. Gamma in fractional coordinates (k-lattice)
     0.000000000  0.000000000  0.000000000

 
 Subroutine IBZKPT returns following result:
 ===========================================
 
 Found      5 irreducible k-points:
 
 Following reciprocal coordinates:
            Coordinates               Weight
  0.000000  0.000000  0.000000      1.000000
  0.333333  0.000000  0.000000      2.000000
  0.000000  0.333333  0.000000      2.000000
  0.333333  0.333333  0.000000      2.000000
 -0.333333  0.333333  0.000000      2.000000
 
 Following cartesian coordinates:
            Coordinates               Weight
  0.000000  0.000000  0.000000      1.000000
  0.018456  0.000005  0.000000      2.000000
  0.000000  0.018454  0.000000      2.000000
  0.018456  0.018459  0.000000      2.000000
 -0.018456  0.018449  0.000000      2.000000
 


--------------------------------------------------------------------------------------------------------




 Dimension of arrays:
   k-points           NKPTS =      5   k-points in BZ     NKDIM =      5   number of bands    NBANDS=    732
   number of dos      NEDOS =    301   number of ions     NIONS =    325
   non local maximal  LDIM  =      5   non local SUM 2l+1 LMDIM =     13
   total plane-waves  NPLWV = ******
   max r-space proj   IRMAX =   3336   max aug-charges    IRDMAX=  19845
   dimension x,y,z NGX =   100 NGY =  100 NGZ =  350
   dimension x,y,z NGXF=   200 NGYF=  200 NGZF=  700
   support grid    NGXF=   200 NGYF=  200 NGZF=  700
   ions per type =             143  39  47  72  24
   NGX,Y,Z   is equivalent  to a cutoff of   9.20,  9.20,  9.31 a.u.
   NGXF,Y,Z  is equivalent  to a cutoff of  18.41, 18.41, 18.62 a.u.

 SYSTEM =  PSC                                     
 POSCAR =   H  C  N  I Pb                          

 Startparameter for this run:
   NWRITE =      2    write-flag & timer
   PREC   = normal    normal or accurate (medium, high low for compatibility)
   ISTART =      0    job   : 0-new  1-cont  2-samecut
   ICHARG =      1    charge: 1-file 2-atom 10-const
   ISPIN  =      1    spin polarized calculation?
   LNONCOLLINEAR =      F non collinear calculations
   LSORBIT =      F    spin-orbit coupling
   INIWAV =      1    electr: 0-lowe 1-rand  2-diag
   LASPH  =      F    aspherical Exc in radial PAW
 Electronic Relaxation 1
   ENCUT  =  500.0 eV  36.75 Ry    6.06 a.u.  32.93 32.93113.93*2*pi/ulx,y,z
   ENINI  =  500.0     initial cutoff
   ENAUG  =  644.9 eV  augmentation charge cutoff
   NELM   =    600;   NELMIN=  2; NELMDL=  0     # of ELM steps 
   EDIFF  = 0.1E-03   stopping-criterion for ELM
   LREAL  =      T    real-space projection
   NLSPLINE    = F    spline interpolate recip. space projectors
   LCOMPAT=      F    compatible to vasp.4.4
   GGA_COMPAT  = F    GGA compatible to vasp.4.4-vasp.4.6
   LMAXPAW     = -100 max onsite density
   LMAXMIX     =    2 max onsite mixed and CHGCAR
   VOSKOWN=      0    Vosko Wilk Nusair interpolation
   ROPT   =   -0.00050  -0.00050  -0.00050  -0.00050
   ROPT   =   -0.00050
 Ionic relaxation
   EDIFFG = 0.1E-02   stopping-criterion for IOM
   NSW    =      0    number of steps for IOM
   NBLOCK =      1;   KBLOCK =      1    inner block; outer block 
   IBRION =     -1    ionic relax: 0-MD 1-quasi-New 2-CG
   NFREE  =      0    steps in history (QN), initial steepest desc. (CG)
   ISIF   =      2    stress and relaxation
   IWAVPR =     10    prediction:  0-non 1-charg 2-wave 3-comb
   ISYM   =      0    0-nonsym 1-usesym 2-fastsym
   LCORR  =      T    Harris-Foulkes like correction to forces

   POTIM  = 0.5000    time-step for ionic-motion
   TEIN   =    0.0    initial temperature
   TEBEG  =    0.0;   TEEND  =   0.0 temperature during run
   SMASS  =  -3.00    Nose mass-parameter (am)
   estimated Nose-frequenzy (Omega)   =  0.10E-29 period in steps = 0.13E+47 mass=  -0.745E-26a.u.
   SCALEE = 1.0000    scale energy and forces
   NPACO  =    256;   APACO  = 16.0  distance and # of slots for P.C.
   PSTRESS=    0.0 pullay stress

  Mass of Ions in am
   POMASS =   1.00 12.01 14.00126.90207.20
  Ionic Valenz
   ZVAL   =   1.00  4.00  5.00  7.00  4.00
  Atomic Wigner-Seitz radii
   RWIGS  =  -1.00 -1.00 -1.00 -1.00 -1.00
  virtual crystal weights 
   VCA    =   1.00  1.00  1.00  1.00  1.00
   NELECT =    1134.0000    total number of electrons
   NUPDOWN=      -1.0000    fix difference up-down

 DOS related values:
   EMIN   =  10.00;   EMAX   =-10.00  energy-range for DOS
   EFERMI =   0.00
   ISMEAR =     0;   SIGMA  =   0.05  broadening in eV -4-tet -1-fermi 0-gaus

 Electronic relaxation 2 (details)
   IALGO  =     38    algorithm
   LDIAG  =      T    sub-space diagonalisation (order eigenvalues)
   LSUBROT=      F    optimize rotation matrix (better conditioning)
   TURBO    =      0    0=normal 1=particle mesh
   IRESTART =      0    0=no restart 2=restart with 2 vectors
   NREBOOT  =      0    no. of reboots
   NMIN     =      0    reboot dimension
   EREF     =   0.00    reference energy to select bands
   IMIX   =      4    mixing-type and parameters
     AMIX     =   0.40;   BMIX     =  0.01
     AMIX_MAG =   1.60;   BMIX_MAG =  0.01
     AMIN     =   0.01
     WC   =   100.;   INIMIX=   1;  MIXPRE=   1;  MAXMIX= -45

 Intra band minimization:
   WEIMIN = 0.0000     energy-eigenvalue tresh-hold
   EBREAK =  0.34E-07  absolut break condition
   DEPER  =   0.30     relativ break condition  

   TIME   =   0.40     timestep for ELM

  volume/ion in A,a.u.               =      62.72       423.28
  Fermi-wavevector in a.u.,A,eV,Ry     =   0.624944  1.180972  5.313816  0.390554
  Thomas-Fermi vector in A             =   1.685677
 
 Write flags
   LWAVE        =      F    write WAVECAR
   LDOWNSAMPLE  =      F    k-point downsampling of WAVECAR
   LCHARG       =      T    write CHGCAR
   LVTOT        =      T    write LOCPOT, total local potential
   LVHAR        =      F    write LOCPOT, Hartree potential only
   LELF         =      F    write electronic localiz. function (ELF)
   LORBIT       =      0    0 simple, 1 ext, 2 COOP (PROOUT), +10 PAW based schemes


 Dipole corrections
   LMONO  =      F    monopole corrections only (constant potential shift)
   LDIPOL =      T    correct potential (dipole corrections)
   IDIPOL =      3    1-x, 2-y, 3-z, 4-all directions 
   EPSILON=  1.0000000 bulk dielectric constant

 Exchange correlation treatment:
   GGA     =    --    GGA type
   LEXCH   =     8    internal setting for exchange type
   VOSKOWN=      0    Vosko Wilk Nusair interpolation
   LHFCALC =     F    Hartree Fock is set to
   LHFONE  =     F    Hartree Fock one center treatment
   AEXX    =    0.0000 exact exchange contribution

 Linear response parameters
   LEPSILON=     F    determine dielectric tensor
   LRPA    =     F    only Hartree local field effects (RPA)
   LNABLA  =     F    use nabla operator in PAW spheres
   LVEL    =     F    velocity operator in full k-point grid
   LINTERFAST=   F  fast interpolation
   KINTER  =     0    interpolate to denser k-point grid
   CSHIFT  =0.1000    complex shift for real part using Kramers Kronig
   OMEGAMAX=  -1.0    maximum frequency
   DEG_THRESHOLD= 0.2000000E-02 threshold for treating states as degnerate
   RTIME   =   -0.100 relaxation time in fs
  (WPLASMAI=    0.000 imaginary part of plasma frequency in eV, 0.658/RTIME)
   DFIELD  = 0.0000000 0.0000000 0.0000000 field for delta impulse in time
 
 Orbital magnetization related:
   ORBITALMAG=     F  switch on orbital magnetization
   LCHIMAG   =     F  perturbation theory with respect to B field
   DQ        =  0.001000  dq finite difference perturbation B field
   LLRAUG    =     F  two centre corrections for induced B field



--------------------------------------------------------------------------------------------------------


 Static calculation
 charge density and potential will be updated during run
 non-spin polarized calculation
 Variant of blocked Davidson
 Davidson routine will perform the subspace rotation
 perform sub-space diagonalisation
    after iterative eigenvector-optimisation
 modified Broyden-mixing scheme, WC =      100.0
 initial mixing is a Kerker type mixing with AMIX =  0.4000 and BMIX =      0.0100
 Hartree-type preconditioning will be used
 using additional bands           165
 real space projection scheme for non local part
[...]
     13.54561      0.00000     45.35368        -0.004597      0.001995      0.010630
     13.54315      9.03140     45.35368         0.002687      0.004565      0.019904
     14.01714      9.34261     32.66349         0.923488     -0.296840      0.388126
     15.70793      9.31845     33.44225        -0.479919     -0.390894     -0.405442
     13.83309     11.37976     33.78797        -0.052143      0.002932      0.176069
     13.92208     11.45257     35.52417        -0.122351      0.338327      0.495316
     12.30667      8.39529     35.16216         0.318575      0.629116     -0.277970
     12.20035     10.13407     35.54795         0.119824     -0.107589     -0.205115
     14.61583      7.78543     35.85493        -0.168698      0.416861     -0.265686
     15.75527      9.12288     35.93173         0.111331      0.024465      0.051913
     15.48843      7.09825     34.09540        -0.084969     -0.189386      0.085908
     13.73882      6.97534     33.78593        -0.187892     -0.068194      0.159427
     13.99072      7.09664     31.47469         0.435092     -0.251423     -0.122428
     15.63790      7.78307     31.54172        -0.565769     -0.868247      0.146758
     16.17739     11.43939     33.46794         0.037663     -0.093966     -0.137312
     16.57744     11.04262     35.14300        -0.220158      0.078642      0.061493
     15.79342     12.60877     34.72543         0.008007     -0.364495      0.014289
     10.76066      9.68737     33.60518         0.276871     -0.173723      0.092045
     12.06526      8.82848     32.72807        -0.239010      0.299082      0.247999
     12.09750     10.61464     32.93177         0.127626     -0.223486      0.302617
     13.22253      8.67383     37.58636        -0.365741     -0.308337     -0.063337
     13.58222     10.32870     37.02748        -0.163910     -0.196532      0.486531
     14.71824      9.53094     38.08322        -0.193043     -0.324035     -0.667602
     15.13500      4.91250     32.55915        -0.014938      0.383279     -0.573860
     15.21484      5.25386     30.81139        -0.098822     -0.198023      0.011635
     16.95298      3.33680     31.47308         0.042412      0.053111     -0.051661
     17.52091      7.57448     32.22454        -0.069382      0.096996     -0.125915
      1.33891      3.02350     31.59349         0.009388      0.158815     -0.092414
      1.82893      7.25257     32.38978        -0.022218     -0.315175     -0.178027
      2.86311      4.94980     32.05489        -0.139347      0.091377      0.128093
     17.92935      4.20692     34.98978         0.127810     -0.721341     -1.337233
      0.36259     13.89370     34.79953         0.070339     -0.008686      0.707353
      9.11741      4.54781     34.88538         0.854587     -0.869462      0.268893
      9.16598     13.88910     34.82082         2.141397     -1.035994     -0.183553
      4.54055      9.04587     34.73675        -0.884854     -1.619511      1.070814
      4.66550     17.90886     34.81849         0.191257      0.121332      0.956212
     13.70679     17.91529     34.84694        -0.070348     -0.031214      0.887237
      0.01545      4.48865     40.58286         2.526350     -2.486023      0.296203
      0.10877     13.78939     40.68238         1.842007     -2.306133      2.295285
      9.03620      4.58548     40.46721         2.177593     -2.503062      1.387381
      8.99134     13.54862     40.63152         1.486902     -1.874907      0.632923
      4.53608      9.02648     40.57676        -2.536217     -2.527736      0.662864
      4.52929     18.04225     40.52471        -0.474784     -0.538051      1.865172
     13.34485      8.96400     40.74483         2.282882      2.490661      0.342230
     13.56867      0.05685     40.54855        -2.373903     -1.989343      0.839443
      9.02897      4.51561     46.44552         0.013243      0.003177      0.044264
      9.02651     13.54701     46.44552         0.007412      0.008524      0.051083
     18.05937      4.51561     46.44552         0.014460      0.004244      0.046787
     18.05691     13.54701     46.44552         0.032920     -0.015475      0.051160
      4.51521      0.00002     46.44421        -0.002350     -0.000562      0.056585
      4.51275      9.03142     46.44421        -0.012399     -0.011035      0.055372
     13.54561      0.00002     46.44421         0.000994      0.003776      0.049589
     13.54315      9.03142     46.44421        -0.008424     -0.009397      0.067585
     17.01835      5.50548     31.82848         1.462324     -0.986936     -0.507361
     17.60864      4.19958     31.62647        -0.346892      1.071268      0.270784
     17.88951      6.57650     32.00270         0.630461     -0.396682      0.608546
      0.92559      4.03473     31.68709         0.274980     -0.126214      0.290067
      1.22948      6.36956     32.11764        -0.630258      1.157203      0.250359
      1.78541      5.12348     31.98544        -0.068557     -0.999040     -0.622181
     14.67100      8.90370     33.47049        -0.318977      2.226451      0.000234
     14.40473     11.03192     34.65818        -0.048499     -0.033971     -0.552023
     12.54814      9.42278     34.77865         0.033664     -0.383346     -0.136338
     14.68706      8.88372     35.95108         0.188383     -0.164191      0.821720
     14.66586      7.43926     33.44878         1.016608     -1.453517     -0.541265
     14.97264      6.97054     31.98539        -0.859121      2.851271      0.205788
     15.82702     11.52371     34.50099         0.138644      0.196516      0.118658
     11.85373      9.65752     33.43768         0.133129     -0.018613     -0.306947
     14.00760      9.33539     37.24658         0.719996      1.253355     -0.228821
     15.54640      5.63029     31.79116        -0.543646     -1.540550      0.192810
      0.95555      3.74536     35.57090         0.130545      0.005551      0.074054
      0.88775     12.85359     35.38225         0.890202     -1.738279      0.431535
      9.92244      3.68680     35.48506         0.916576     -0.332226     -1.041056
     10.09184     13.11690     35.40674        -0.943714      0.588981     -1.021332
      8.11375      5.13866     35.45774        -1.136939      0.307518      1.831733
      8.04084     14.26415     35.32370        -1.431932     -0.179335      2.341022
     17.00041      4.96989     35.51513        -0.168482      0.246207     -0.152597
     17.53635     14.65930     35.36836        -1.601102      1.169655      0.603256
      4.10424      8.07051     35.54857        -0.821232     -0.452776     -2.946567
      3.55198     17.50679     35.39856        -0.837277     -1.439511     -2.721470
     12.81455     17.14973     35.43171        -0.397851     -1.378235     -2.303188
      5.57685      0.56927     35.44256         1.397365      0.140450     -2.428075
      5.22111     10.06305     35.16313         0.731741      1.993131     -2.288794
     14.26685      0.88646     35.44781         1.638496      0.508108     -2.527995
      0.91729      3.61754     41.11161        -2.164132      2.067130      0.271770
      0.92852     12.87811     41.29634        -2.410506      2.203000     -0.334276
      9.82978      3.63277     41.04133        -2.458609      2.386329      0.395698
      9.68741     12.72655     41.41756         0.248403     -0.149997     -0.123176
      3.69863      8.16778     41.20628         1.591816      1.740180      1.288167
      3.68127     17.22569     41.17044         1.486462      1.624163      1.262509
     12.68120      8.17680     41.51509        -2.019698     -2.151044     -1.396185
     12.62465     17.36445     41.16702         2.013250      1.537046      1.349161
      8.16839      5.30409     41.08548        -1.254319      0.670743      2.349543
      8.15964     14.44357     41.02313        -1.287450      1.430311      2.029982
     17.27237      5.22959     41.24678        -2.016784      1.858910      1.130607
     17.24065     14.47505     41.28745         0.116386      0.137115     -1.027473
      5.36118      0.85926     41.07904        -1.420612     -1.365615      1.501596
      5.30909      9.87885     41.13723         1.103022      1.233320      2.382882
     14.47387      0.77162     41.11798         1.163015      1.009480      2.301259
     14.26480      9.87763     41.15678        -1.483167     -1.640787     -0.051451
      0.82731      3.68697     47.03596         0.015280     -0.024147     -0.091585
      0.82485     12.71837     47.03596         0.006578     -0.007697     -0.097014
      9.85771      3.68697     47.03596         0.017460     -0.020704     -0.086062
      9.85525     12.71837     47.03596         0.025355     -0.021817     -0.089940
      3.68432      8.20234     47.03465        -0.001471     -0.004427     -0.080219
      3.68186     17.23373     47.03465        -0.008378     -0.009748     -0.075465
     12.71472      8.20234     47.03465        -0.003937     -0.005420     -0.086515
     12.71226     17.23373     47.03465        -0.007552     -0.017231     -0.072061
      8.20068      5.34457     47.03603        -0.018763      0.018345     -0.091352
      8.19822     14.37597     47.03603        -0.016515      0.013280     -0.098204
     17.23108      5.34457     47.03603        -0.022880      0.015799     -0.099563
     17.22862     14.37597     47.03603        -0.034777      0.025920     -0.090801
      5.34365      0.82909     47.03465         0.013506      0.008602     -0.078444
      5.34119      9.86049     47.03465         0.018047      0.016595     -0.074265
     14.37405      0.82909     47.03465         0.012255      0.006917     -0.075735
     14.37159      9.86049     47.03465         0.009857      0.018143     -0.082730
     14.11405      9.56324     34.73220        -1.021799     -1.100644     -0.191408
      8.95893      0.02719     34.51036         0.000471      0.007573     -0.036955
      8.51803      8.68639     34.71385        -0.079925     -0.011256     -0.046732
     17.96409      0.07285     34.42945        -0.030220      0.021965      0.038339
      0.43947      8.94960     34.89204         0.128258     -0.040904     -0.284246
      4.67196      4.43588     34.63625        -0.116337      0.006110      0.026071
      4.43119     13.70738     34.45786         0.039316      0.005950      0.054222
     13.29586      4.13484     34.70820         0.136454      0.106372     -0.056556
     13.07663     14.01441     34.15226         0.017162      0.328336     -0.067431
      0.08811      0.06102     40.88692        -0.052603     -0.084564     -0.016809
      0.08421      9.06803     41.02951        -0.051771      0.001866     -0.002797
      9.11584      0.07896     40.87681        -0.145468     -0.081467      0.105203
      9.05354      9.03065     40.96128        -0.058788     -0.060437     -0.127458
      4.46643      4.48015     40.94583         0.076337     -0.031116      0.031400
      4.46776     13.57480     40.90376         0.091715     -0.013080     -0.025326
     13.38681      4.50074     40.98571         0.055344     -0.015268     -0.176636
     13.51600     13.70789     40.81450         0.042199     -0.034171      0.195521
      2.63074      1.85382     38.05939         0.065633      0.040279     -0.043047
      2.68872     10.92953     38.05938         0.054949      0.088412     -0.042594
     11.57491      1.90243     38.06852         0.131864      0.096554     -0.009780
     11.15677     11.44042     38.38575         0.050983     -0.190270     -0.210961
      6.43913      7.02509     38.18557         0.202055      0.062329      0.008524
      6.44095     16.10636     38.02220         0.144328      0.099783      0.000030
     15.93115      6.68816     38.37571        -0.138423     -0.122438     -0.024115
     15.44530     16.17361     37.97753         0.117789      0.018057     -0.027471
      2.01349      6.39597     38.12540         0.076156      0.017643     -0.056125
      1.95376     15.50407     37.98217        -0.042365      0.140770     -0.019824
     11.11135      6.59325     37.91698         0.000223      0.001933      0.008815
     11.00197     15.57677     38.12630        -0.014676      0.099417     -0.035542
      7.11397      2.52921     38.12474         0.053391      0.064443     -0.040380
      7.00218     11.66241     37.88056         0.110484     -0.165567      0.037148
     16.09600      2.44182     38.11085        -0.179544      0.169935      0.047892
     16.45738     11.96059     38.34262        -0.053440     -0.086156     -0.289264
      0.00000      0.00000     47.17356        -0.003445     -0.001041      0.417909
     -0.00246      9.03140     47.17356        -0.004471      0.002829      0.574333
      9.03040      0.00000     47.17356        -0.001150     -0.002716      0.440385
      9.02794      9.03140     47.17356         0.002445      0.002864      0.502141
      4.51398      4.51570     47.17425         0.001816     -0.003162      0.490365
      4.51152     13.54710     47.17425         0.002662      0.002750      0.432242
     13.54438      4.51570     47.17425         0.001284     -0.000076      0.462068
     13.54192     13.54710     47.17425         0.000769      0.000485      0.241694
      2.45192      2.06295     44.04013         0.006593     -0.039016      0.017602
      2.44946     11.09435     44.04013         0.055292     -0.008658      0.041132
     11.48232      2.06295     44.04013        -0.017678     -0.007953     -0.010948
     11.47986     11.09435     44.04013         0.078361      0.004441      0.024671
      6.57602      6.96845     44.04013         0.023563     -0.035204     -0.066597
      6.57356     15.99985     44.04013         0.031275     -0.021347     -0.080335
     15.60642      6.96845     44.04013        -0.023674     -0.020766     -0.047267
     15.60396     15.99985     44.04013        -0.065373      0.021067      0.033899
      2.06108      6.57881     44.04000        -0.006932     -0.019372      0.021187
      2.05862     15.61021     44.04000        -0.000340      0.022480      0.011201
     11.09148      6.57881     44.04000        -0.092030     -0.095266      0.161318
     11.08902     15.61021     44.04000         0.016874     -0.019141     -0.010782
      6.96686      2.45259     44.04007         0.011494     -0.007352     -0.056231
      6.96440     11.48399     44.04007        -0.039395     -0.016574     -0.041411
     15.99726      2.45259     44.04007        -0.018376     -0.022235     -0.057115
     15.99481     11.48399     44.04007        -0.050177      0.052014     -0.057597
      2.43163      2.08322     50.06849        -0.001028     -0.022797      0.021470
      2.42917     11.11462     50.06849         0.018982      0.001003      0.021385
     11.46203      2.08322     50.06849         0.006979     -0.016082      0.021383
     11.45957     11.11462     50.06849         0.031149      0.010833      0.019224
      6.59631      6.94818     50.06849        -0.005442      0.013625      0.022239
      6.59385     15.97958     50.06849        -0.006827      0.011410      0.020598
     15.62671      6.94818     50.06849        -0.018317      0.002853      0.021219
     15.62425     15.97958     50.06849        -0.023696     -0.003059      0.019406
      2.08113      6.59901     50.06905        -0.007813     -0.012524      0.022732
      2.07867     15.63041     50.06905        -0.014401     -0.006488      0.021132
     11.11153      6.59901     50.06905        -0.007210     -0.010738      0.020686
     11.10907     15.63041     50.06905         0.004950     -0.025470      0.019829
      6.94681      2.43239     50.06905         0.019596     -0.001002      0.021809
      6.94435     11.46379     50.06905         0.007843      0.014851      0.021544
     15.97721      2.43239     50.06905         0.014865      0.002553      0.020914
     15.97475     11.46379     50.06905        -0.017198      0.036898      0.019973
     18.04679      0.05108     37.66074         0.029755     -0.099373      0.024195
      0.18338      9.08573     37.94265        -0.017215      0.046820     -0.074768
      9.04113      0.02841     37.62877        -0.029553     -0.222812      0.077339
      9.02671      8.97198     37.72118        -0.101851      0.207621      0.049849
      4.61984      4.47662     37.76950        -0.275662     -0.028727     -0.045393
      4.51381     13.65383     37.70210        -0.199714     -0.124838     -0.095800
     13.51834      4.53756     37.86659         0.168004     -0.071594     -0.080810
     13.52520     13.69465     37.79074         0.060776     -0.099092     -0.085486
      0.00001      0.00001     44.04300         0.057729     -0.004341     -0.005865
     -0.00245      9.03141     44.04300         0.063445     -0.028038      0.255888
      9.03041      0.00001     44.04300         0.028290      0.018105     -0.061523
      9.02795      9.03141     44.04300        -0.022996     -0.033930      0.120922
      4.51397      4.51569     44.04275        -0.034760      0.023583      0.086974
      4.51151     13.54709     44.04275        -0.045500     -0.001545      0.040155
     13.54437      4.51569     44.04275        -0.029843     -0.032333      0.288619
     13.54191     13.54709     44.04275        -0.042812      0.004692      0.106657
      0.00000      0.00000     50.44728         0.014560      0.014607     -0.627182
     -0.00246      9.03140     50.44728         0.012879     -0.016987     -0.668739
      9.03040      0.00000     50.44728        -0.011942      0.016954     -0.634313
      9.02794      9.03140     50.44728        -0.015066     -0.015452     -0.649044
      4.51397      4.51570     50.44728        -0.002884      0.010992     -0.648179
      4.51151     13.54710     50.44728        -0.001616     -0.011965     -0.631489
     13.54437      4.51570     50.44728         0.001533      0.010562     -0.638597
     13.54191     13.54710     50.44728         0.003656     -0.010947     -0.578478
 -----------------------------------------------------------------------------------
    total drift:                               -0.057592      0.098134      0.313264


--------------------------------------------------------------------------------------------------------



  FREE ENERGIE OF THE ION-ELECTRON SYSTEM (eV)
  ---------------------------------------------------
  free  energy   TOTEN  =     -1571.17173885 eV

  energy  without entropy=    -1571.17173885  energy(sigma->0) =    -1571.17173885
 


--------------------------------------------------------------------------------------------------------


    POTLOK:  cpu time    0.5014: real time    0.5013


--------------------------------------------------------------------------------------------------------


     LOOP+:  cpu time  326.1558: real time  326.6920
 vacuum level on the upper side and lower side of the slab         2.376         1.514
    4ORBIT:  cpu time    0.0000: real time    0.0000

 total amount of memory used by VASP MPI-rank0  8653584. kBytes
=======================================================================

   base      :      30000. kBytes
   nonlr-proj:      53622. kBytes
   fftplans  :     249280. kBytes
   grid      :     701440. kBytes
   one-center:       2636. kBytes
   wavefun   :    7616606. kBytes
 
  
  
 General timing and accounting informations for this job:
 ========================================================
  
                  Total CPU time used (sec):      542.836
                            User time (sec):      437.097
                          System time (sec):      105.739
                         Elapsed time (sec):      540.649
  
                   Maximum memory used (kb):    10336852.
                   Average memory used (kb):          N/A
  
                          Minor page faults:      3817199
                          Major page faults:           13
                 Voluntary context switches:        11551
