<?xml version="1.0" encoding="ISO-8859-1"?>
<modeling>
 <generator>
  <i name="program" type="string">vasp </i>
  <i name="version" type="string">6.2.1  </i>
  <i name="subversion" type="string">16May21 (build Nov 15 2021 14:57:28) complex                          parallel </i>
  <i name="platform" type="string">LinuxPGI </i>
  <i name="date" type="string">2023 07 30 </i>
  <i name="time" type="string">09:46:06 </i>
 </generator>
 <incar>
  <i type="string" name="SYSTEM">PSC</i>
  <i type="int" name="ISTART">     1</i>
  <i type="string" name="PREC">Normal</i>
  <i name="BMIX">      0.01000000</i>
  <i name="AMIN">      0.01000000</i>
  <i type="int" name="ICHARG">     1</i>
  <i type="int" name="NELM">   600</i>
  <i type="int" name="ISYM">     0</i>
  <i name="ENCUT">    500.00000000</i>
  <i type="string" name="LREAL">Auto</i>
  <i type="int" name="ISMEAR">     0</i>
  <i name="SIGMA">      0.05000000</i>
  <i type="logical" name="LWAVE"> F  </i>
  <i type="logical" name="LVTOT"> T  </i>
  <i type="logical" name="GGA_COMPAT"> F  </i>
  <i type="logical" name="LDIPOL"> T  </i>
  <i type="int" name="IDIPOL">     3</i>
  <i type="int" name="IVDW">    12</i>
 </incar>
 <primitive_cell>
  <structure name="primitive_cell" >
   <crystal>
    <varray name="basis" >
     <v>      18.06080055       0.00000000       0.00000000 </v>
     <v>      -0.00491865      18.06279945       0.00000000 </v>
     <v>       0.00000000       0.00000000      62.48749924 </v>
    </varray>
    <i name="volume">  20385.21054034 </i>
    <varray name="rec_basis" >
     <v>       0.05536853       0.00001508      -0.00000000 </v>
     <v>       0.00000000       0.05536240       0.00000000 </v>
     <v>       0.00000000      -0.00000000       0.01600320 </v>
    </varray>
   </crystal>
   <varray name="positions" >
    <v>       0.43452777       0.27793006       0.58396140 </v>
    <v>       0.42826029       0.77558263       0.58110372 </v>
    <v>       0.94091488       0.29524758       0.58395274 </v>
    <v>       0.95055522       0.80593893       0.58168739 </v>
    <v>       0.30404415       0.05014829       0.58219329 </v>
    <v>       0.30611505       0.56618942       0.57792089 </v>
    <v>       0.77718430       0.06612419       0.58203908 </v>
    <v>       0.09049974       0.17665449       0.56035579 </v>
    <v>       0.08837248       0.67915169       0.55843115 </v>
    <v>       0.59701393       0.18433100       0.55947115 </v>
    <v>       0.60973672       0.71630416       0.55914925 </v>
    <v>       0.35873047       0.04555465       0.55863151 </v>
    <v>       0.30597155       0.59767749       0.55119924 </v>
    <v>       0.82950595       0.08081671       0.55854452 </v>
    <v>       0.06566545       0.21915936       0.58499640 </v>
    <v>       0.03667070       0.69220444       0.58161242 </v>
    <v>       0.54493712       0.18839840       0.58358401 </v>
    <v>       0.55370244       0.70796440       0.58183470 </v>
    <v>       0.23774829       0.44558933       0.58455869 </v>
    <v>       0.18250348       0.98238526       0.58145297 </v>
    <v>       0.69028913       0.95709978       0.58182017 </v>
    <v>       0.41568670       0.31980503       0.55927312 </v>
    <v>       0.40908191       0.82260046       0.55745421 </v>
    <v>       0.89875316       0.29140491       0.55844898 </v>
    <v>       0.94931647       0.85721421       0.55797903 </v>
    <v>       0.19673535       0.40200942       0.56219088 </v>
    <v>       0.15931252       0.93650205       0.55729366 </v>
    <v>       0.68994122       0.90148839       0.55825448 </v>
    <v>       0.51667698       0.26247562       0.54142659 </v>
    <v>       0.52103748       0.78802541       0.54118722 </v>
    <v>       0.98454086       0.21424761       0.54274418 </v>
    <v>       0.04069272       0.78519307       0.54137800 </v>
    <v>       0.23794086       0.49694470       0.53881541 </v>
    <v>       0.27128537       0.97363496       0.54087362 </v>
    <v>       0.77736937       0.97634653       0.54153165 </v>
    <v>       0.43871950       0.29286661       0.67411115 </v>
    <v>       0.43877102       0.81175650       0.67278050 </v>
    <v>       0.94961516       0.29488100       0.67656135 </v>
    <v>       0.94231827       0.79863574       0.67636776 </v>
    <v>       0.30117213       0.05505542       0.67407409 </v>
    <v>       0.30012544       0.55591187       0.67513937 </v>
    <v>       0.80925373       0.04903001       0.67497320 </v>
    <v>       0.80592323       0.55423169       0.67428782 </v>
    <v>       0.08263844       0.17092158       0.64817829 </v>
    <v>       0.08892916       0.68727836       0.65190847 </v>
    <v>       0.57962552       0.17407768       0.64761623 </v>
    <v>       0.57104726       0.66496304       0.65588784 </v>
    <v>       0.17368829       0.41760604       0.65083995 </v>
    <v>       0.17265936       0.91891213       0.65040298 </v>
    <v>       0.66479849       0.41490761       0.65669635 </v>
    <v>       0.66312700       0.93271168       0.65007503 </v>
    <v>       0.05706950       0.19274426       0.67412086 </v>
    <v>       0.04949606       0.70075123       0.67686860 </v>
    <v>       0.54175916       0.18886840       0.67293843 </v>
    <v>       0.53708807       0.70427827       0.67933686 </v>
    <v>       0.19903532       0.44936431       0.67626649 </v>
    <v>       0.19838973       0.95185668       0.67567665 </v>
    <v>       0.70366399       0.44798006       0.68047747 </v>
    <v>       0.69449369       0.95701553       0.67560968 </v>
    <v>       0.42240257       0.33153174       0.64938892 </v>
    <v>       0.42482318       0.83211175       0.64584573 </v>
    <v>       0.92046118       0.32401739       0.65151215 </v>
    <v>       0.92505263       0.83677611       0.65154487 </v>
    <v>       0.32932119       0.07751950       0.64794405 </v>
    <v>       0.32671916       0.57998329       0.64936395 </v>
    <v>       0.83739927       0.07340401       0.64909144 </v>
    <v>       0.81405038       0.57882475       0.64748485 </v>
    <v>       0.99907472       0.25144700       0.63204738 </v>
    <v>       0.01763064       0.77127565       0.63451430 </v>
    <v>       0.50835006       0.26301997       0.63088760 </v>
    <v>       0.50786018       0.74087500       0.63339085 </v>
    <v>       0.25136514       0.99227376       0.63158543 </v>
    <v>       0.24843161       0.49521943       0.63220506 </v>
    <v>       0.74834354       0.00005963       0.63176540 </v>
    <v>       0.73006936       0.49607724       0.63482955 </v>
    <v>       0.44874502       0.30128397       0.76888902 </v>
    <v>       0.44874501       0.80128391       0.76888902 </v>
    <v>       0.94874497       0.30128397       0.76888902 </v>
    <v>       0.94874501       0.80128391       0.76888902 </v>
    <v>       0.30127600       0.05129450       0.76887296 </v>
    <v>       0.30127601       0.55129450       0.76887296 </v>
    <v>       0.80127594       0.05129450       0.76887296 </v>
    <v>       0.80127598       0.55129450       0.76887296 </v>
    <v>       0.07877100       0.17118050       0.74344197 </v>
    <v>       0.07877101       0.67118045       0.74344197 </v>
    <v>       0.57877100       0.17118050       0.74344197 </v>
    <v>       0.57877099       0.67118045       0.74344197 </v>
    <v>       0.17119950       0.42117448       0.74342103 </v>
    <v>       0.17119950       0.92117451       0.74342103 </v>
    <v>       0.67119951       0.42117448       0.74342103 </v>
    <v>       0.67119950       0.92117451       0.74342103 </v>
    <v>       0.05125600       0.19871499       0.76888902 </v>
    <v>       0.05125600       0.69871493       0.76888902 </v>
    <v>       0.55125603       0.19871499       0.76888902 </v>
    <v>       0.55125602       0.69871493       0.76888902 </v>
    <v>       0.19872349       0.44870397       0.76887205 </v>
    <v>       0.19872349       0.94870397       0.76887205 </v>
    <v>       0.69872352       0.44870397       0.76887205 </v>
    <v>       0.69872351       0.94870397       0.76887205 </v>
    <v>       0.42123152       0.32881747       0.74344197 </v>
    <v>       0.42123151       0.82881744       0.74344197 </v>
    <v>       0.92123147       0.32881747       0.74344197 </v>
    <v>       0.92123151       0.82881744       0.74344197 </v>
    <v>       0.32880050       0.07882500       0.74342103 </v>
    <v>       0.32880049       0.57882496       0.74342103 </v>
    <v>       0.82880048       0.07882500       0.74342103 </v>
    <v>       0.82880052       0.57882496       0.74342103 </v>
    <v>       0.00000350       0.25000148       0.72582199 </v>
    <v>       0.00000350       0.75000145       0.72582199 </v>
    <v>       0.50000351       0.25000148       0.72582199 </v>
    <v>       0.50000350       0.75000145       0.72582199 </v>
    <v>       0.25000050       0.00000000       0.72580398 </v>
    <v>       0.25000052       0.50000000       0.72580398 </v>
    <v>       0.75000050       0.00000000       0.72580398 </v>
    <v>       0.75000049       0.50000000       0.72580398 </v>
    <v>       0.77624955       0.51722932       0.52272040 </v>
    <v>       0.86986528       0.51589174       0.53518309 </v>
    <v>       0.76608960       0.63001065       0.54071563 </v>
    <v>       0.77101764       0.63404202       0.56850043 </v>
    <v>       0.68152910       0.46478319       0.56270715 </v>
    <v>       0.67566846       0.56104666       0.56888106 </v>
    <v>       0.80937424       0.43102004       0.57379366 </v>
    <v>       0.87248371       0.50506430       0.57502267 </v>
    <v>       0.85767875       0.39297642       0.54563550 </v>
    <v>       0.76080362       0.38617137       0.54068303 </v>
    <v>       0.77475282       0.39288724       0.50369584 </v>
    <v>       0.86596513       0.43088950       0.50476853 </v>
    <v>       0.89589086       0.63331214       0.53559412 </v>
    <v>       0.91803501       0.61134618       0.56240051 </v>
    <v>       0.87464867       0.69805168       0.55571796 </v>
    <v>       0.59594790       0.53631590       0.53779036 </v>
    <v>       0.66816883       0.48876602       0.52375381 </v>
    <v>       0.66998073       0.58765195       0.52701367 </v>
    <v>       0.73224302       0.48020382       0.60150214 </v>
    <v>       0.75218341       0.57182140       0.59255816 </v>
    <v>       0.81507086       0.52765591       0.60945338 </v>
    <v>       0.83807685       0.27196770       0.52105069 </v>
    <v>       0.84250234       0.29086624       0.49308086 </v>
    <v>       0.93871181       0.18473349       0.50366995 </v>
    <v>       0.97022148       0.41934169       0.51569580 </v>
    <v>       0.07417912       0.16738817       0.50559694 </v>
    <v>       0.10137441       0.40151951       0.51834012 </v>
    <v>       0.15860070       0.27403304       0.51298090 </v>
    <v>       0.99278541       0.23290545       0.55994842 </v>
    <v>       0.02028549       0.76918882       0.55690393 </v>
    <v>       0.50488636       0.25177757       0.55827774 </v>
    <v>       0.50771602       0.76893402       0.55724457 </v>
    <v>       0.25153985       0.50080094       0.55589921 </v>
    <v>       0.25859164       0.99147736       0.55720733 </v>
    <v>       0.75919497       0.99183334       0.55766263 </v>
    <v>       0.00092334       0.24850226       0.64945564 </v>
    <v>       0.00623038       0.76341386       0.65104837 </v>
    <v>       0.50039018       0.25386316       0.64760487 </v>
    <v>       0.49804150       0.75008408       0.65023442 </v>
    <v>       0.25129218       0.49972756       0.64935803 </v>
    <v>       0.25105199       0.99886224       0.64852504 </v>
    <v>       0.73902003       0.49626842       0.65204771 </v>
    <v>       0.75127820       0.00314739       0.64890652 </v>
    <v>       0.49998898       0.24999498       0.74327702 </v>
    <v>       0.49998903       0.74999496       0.74327702 </v>
    <v>       0.99998898       0.24999498       0.74327702 </v>
    <v>       0.99998903       0.74999496       0.74327702 </v>
    <v>       0.25000050       0.00000100       0.74325596 </v>
    <v>       0.25000052       0.50000100       0.74325596 </v>
    <v>       0.75000050       0.00000100       0.74325596 </v>
    <v>       0.75000049       0.50000100       0.74325596 </v>
    <v>       0.94236387       0.30479644       0.50935755 </v>
    <v>       0.97502800       0.23249883       0.50612470 </v>
    <v>       0.99061479       0.36409103       0.51214565 </v>
    <v>       0.05130953       0.22337240       0.50709480 </v>
    <v>       0.06817037       0.35263438       0.51398501 </v>
    <v>       0.09893298       0.28364827       0.51186941 </v>
    <v>       0.81244599       0.49293002       0.53563503 </v>
    <v>       0.79773491       0.61075385       0.55464176 </v>
    <v>       0.69491434       0.52166781       0.55656969 </v>
    <v>       0.81333506       0.49182401       0.57533242 </v>
    <v>       0.81213904       0.41185553       0.53528761 </v>
    <v>       0.82911808       0.38590577       0.51186868 </v>
    <v>       0.87649242       0.63798046       0.55212624 </v>
    <v>       0.65646903       0.53466359       0.53510996 </v>
    <v>       0.77572114       0.51682964       0.59606447 </v>
    <v>       0.86086649       0.31170618       0.50876027 </v>
    <v>       0.05296414       0.20735235       0.56924832 </v>
    <v>       0.04934714       0.71160559       0.56622922 </v>
    <v>       0.54944676       0.20411027       0.56787457 </v>
    <v>       0.55896796       0.72618335       0.56662114 </v>
    <v>       0.44932387       0.28448883       0.56743729 </v>
    <v>       0.44542484       0.78969767       0.56529220 </v>
    <v>       0.94136278       0.27514485       0.56835574 </v>
    <v>       0.97118287       0.81157434       0.56600701 </v>
    <v>       0.22736716       0.44680288       0.56889088 </v>
    <v>       0.19693207       0.96921825       0.56649032 </v>
    <v>       0.70978132       0.94945041       0.56702082 </v>
    <v>       0.30879068       0.03151618       0.56719438 </v>
    <v>       0.28923678       0.55711444       0.56272260 </v>
    <v>       0.78994776       0.04907647       0.56727850 </v>
    <v>       0.05084337       0.20027576       0.65791736 </v>
    <v>       0.05160495       0.71296318       0.66087358 </v>
    <v>       0.54431550       0.20111887       0.65679262 </v>
    <v>       0.53656930       0.70457214       0.66281360 </v>
    <v>       0.20491084       0.45218793       0.65943243 </v>
    <v>       0.20408623       0.95365568       0.65885877 </v>
    <v>       0.70226249       0.45268745       0.66437428 </v>
    <v>       0.69927021       0.96133758       0.65880413 </v>
    <v>       0.45235190       0.29364725       0.65749924 </v>
    <v>       0.45200507       0.79963055       0.65650136 </v>
    <v>       0.95642477       0.28952249       0.66008045 </v>
    <v>       0.95480788       0.80137351       0.66073134 </v>
    <v>       0.29685387       0.04757082       0.65739614 </v>
    <v>       0.29410547       0.54691704       0.65832729 </v>
    <v>       0.80140857       0.04271901       0.65801925 </v>
    <v>       0.78997017       0.54684946       0.65864016 </v>
    <v>       0.04586250       0.20411950       0.75272599 </v>
    <v>       0.04586250       0.70411946       0.75272599 </v>
    <v>       0.54586251       0.20411950       0.75272599 </v>
    <v>       0.54586250       0.70411946       0.75272599 </v>
    <v>       0.20411900       0.45410100       0.75270499 </v>
    <v>       0.20411899       0.95410095       0.75270499 </v>
    <v>       0.70411898       0.45410100       0.75270499 </v>
    <v>       0.70411896       0.95410095       0.75270499 </v>
    <v>       0.45414002       0.29588849       0.75272697 </v>
    <v>       0.45414001       0.79588852       0.75272697 </v>
    <v>       0.95414002       0.29588849       0.75272697 </v>
    <v>       0.95414006       0.79588852       0.75272697 </v>
    <v>       0.29588249       0.04590050       0.75270499 </v>
    <v>       0.29588248       0.54590053       0.75270499 </v>
    <v>       0.79588244       0.04590050       0.75270499 </v>
    <v>       0.79588248       0.54590053       0.75270499 </v>
    <v>       0.78161845       0.52944417       0.55582638 </v>
    <v>       0.49604315       0.00150556       0.55227629 </v>
    <v>       0.47176179       0.48089927       0.55553274 </v>
    <v>       0.99464655       0.00403306       0.55098148 </v>
    <v>       0.02446790       0.49547122       0.55838439 </v>
    <v>       0.25874649       0.24558083       0.55429080 </v>
    <v>       0.24555513       0.75887374       0.55143610 </v>
    <v>       0.73623439       0.22891458       0.55544233 </v>
    <v>       0.72424529       0.77587148       0.54654553 </v>
    <v>       0.00487959       0.00337846       0.65432167 </v>
    <v>       0.00479909       0.50202796       0.65660350 </v>
    <v>       0.50473160       0.00437135       0.65415983 </v>
    <v>       0.50141722       0.49995834       0.65551166 </v>
    <v>       0.24736728       0.24803212       0.65526436 </v>
    <v>       0.24757780       0.75153332       0.65459101 </v>
    <v>       0.74127599       0.24917155       0.65590249 </v>
    <v>       0.74856779       0.75890198       0.65316262 </v>
    <v>       0.14568804       0.10263219       0.60907214 </v>
    <v>       0.14903540       0.60508533       0.60907190 </v>
    <v>       0.64091456       0.10532297       0.60921810 </v>
    <v>       0.61790650       0.63336921       0.61429486 </v>
    <v>       0.35663105       0.38892575       0.61109140 </v>
    <v>       0.35686872       0.89168678       0.60847687 </v>
    <v>       0.88218513       0.37027264       0.61413425 </v>
    <v>       0.85542728       0.89541018       0.60776200 </v>
    <v>       0.11158047       0.35409624       0.61012838 </v>
    <v>       0.10841032       0.85834271       0.60783624 </v>
    <v>       0.61531881       0.36501832       0.60679306 </v>
    <v>       0.60939763       0.86236737       0.61014291 </v>
    <v>       0.39392830       0.14002316       0.61011788 </v>
    <v>       0.38787600       0.64565925       0.60621024 </v>
    <v>       0.89124873       0.13518482       0.60989555 </v>
    <v>       0.91140110       0.66216688       0.61360466 </v>
    <v>       0.00000000       0.00000000       0.75492797 </v>
    <v>       0.00000000       0.50000000       0.75492797 </v>
    <v>       0.50000000       0.00000000       0.75492797 </v>
    <v>       0.49999999       0.50000000       0.75492797 </v>
    <v>       0.25000050       0.25000000       0.75493902 </v>
    <v>       0.25000051       0.74999997       0.75493902 </v>
    <v>       0.75000047       0.25000000       0.75493902 </v>
    <v>       0.75000046       0.74999997       0.75493902 </v>
    <v>       0.13579050       0.11421000       0.70478299 </v>
    <v>       0.13579050       0.61420998       0.70478299 </v>
    <v>       0.63579045       0.11421000       0.70478299 </v>
    <v>       0.63579049       0.61420998       0.70478299 </v>
    <v>       0.36420952       0.38578999       0.70478299 </v>
    <v>       0.36420950       0.88578996       0.70478299 </v>
    <v>       0.86420954       0.38578999       0.70478299 </v>
    <v>       0.86420953       0.88578996       0.70478299 </v>
    <v>       0.11421799       0.36421899       0.70478098 </v>
    <v>       0.11421799       0.86421899       0.70478098 </v>
    <v>       0.61421800       0.36421899       0.70478098 </v>
    <v>       0.61421799       0.86421899       0.70478098 </v>
    <v>       0.38578201       0.13578149       0.70478202 </v>
    <v>       0.38578200       0.63578149       0.70478202 </v>
    <v>       0.88578199       0.13578149       0.70478202 </v>
    <v>       0.88578203       0.63578149       0.70478202 </v>
    <v>       0.13466700       0.11533200       0.80125603 </v>
    <v>       0.13466699       0.61533199       0.80125603 </v>
    <v>       0.63466699       0.11533200       0.80125603 </v>
    <v>       0.63466698       0.61533199       0.80125603 </v>
    <v>       0.36533300       0.38466799       0.80125603 </v>
    <v>       0.36533299       0.88466796       0.80125603 </v>
    <v>       0.86533295       0.38466799       0.80125603 </v>
    <v>       0.86533294       0.88466796       0.80125603 </v>
    <v>       0.11532850       0.36533700       0.80126500 </v>
    <v>       0.11532850       0.86533698       0.80126500 </v>
    <v>       0.61532850       0.36533700       0.80126500 </v>
    <v>       0.61532849       0.86533698       0.80126500 </v>
    <v>       0.38467151       0.13466300       0.80126500 </v>
    <v>       0.38467150       0.63466297       0.80126500 </v>
    <v>       0.88467149       0.13466300       0.80126500 </v>
    <v>       0.88467153       0.63466297       0.80126500 </v>
    <v>       0.99922486       0.00282808       0.60269245 </v>
    <v>       0.01029031       0.50300799       0.60720378 </v>
    <v>       0.50059468       0.00157277       0.60218075 </v>
    <v>       0.49993087       0.49671044       0.60365956 </v>
    <v>       0.25586105       0.24783643       0.60443291 </v>
    <v>       0.25012911       0.75590909       0.60335432 </v>
    <v>       0.74855889       0.25121039       0.60598668 </v>
    <v>       0.74907698       0.75816878       0.60477288 </v>
    <v>       0.00000050       0.00000050       0.70482896 </v>
    <v>       0.00000050       0.50000048       0.70482896 </v>
    <v>       0.50000048       0.00000050       0.70482896 </v>
    <v>       0.50000046       0.50000048       0.70482896 </v>
    <v>       0.24999999       0.24999947       0.70482499 </v>
    <v>       0.25000001       0.74999950       0.70482499 </v>
    <v>       0.74999999       0.24999947       0.70482499 </v>
    <v>       0.74999998       0.74999950       0.70482499 </v>
    <v>       0.00000000       0.00000000       0.80731797 </v>
    <v>       0.00000000       0.50000000       0.80731797 </v>
    <v>       0.50000000       0.00000000       0.80731797 </v>
    <v>       0.49999999       0.50000000       0.80731797 </v>
    <v>       0.24999999       0.25000000       0.80731797 </v>
    <v>       0.25000001       0.74999997       0.80731797 </v>
    <v>       0.74999999       0.25000000       0.80731797 </v>
    <v>       0.74999998       0.74999997       0.80731797 </v>
   </varray>
  </structure>
  <varray name="primitive_index" >
   <v type="int" >        1 </v>
   <v type="int" >        2 </v>
   <v type="int" >        3 </v>
   <v type="int" >        4 </v>
   <v type="int" >        5 </v>
   <v type="int" >        6 </v>
   <v type="int" >        7 </v>
   <v type="int" >        8 </v>
   <v type="int" >        9 </v>
   <v type="int" >       10 </v>
   <v type="int" >       11 </v>
   <v type="int" >       12 </v>
   <v type="int" >       13 </v>
   <v type="int" >       14 </v>
   <v type="int" >       15 </v>
   <v type="int" >       16 </v>
   <v type="int" >       17 </v>
   <v type="int" >       18 </v>
   <v type="int" >       19 </v>
   <v type="int" >       20 </v>
   <v type="int" >       21 </v>
   <v type="int" >       22 </v>
   <v type="int" >       23 </v>
   <v type="int" >       24 </v>
   <v type="int" >       25 </v>
   <v type="int" >       26 </v>
   <v type="int" >       27 </v>
   <v type="int" >       28 </v>
   <v type="int" >       29 </v>
   <v type="int" >       30 </v>
   <v type="int" >       31 </v>
   <v type="int" >       32 </v>
   <v type="int" >       33 </v>
   <v type="int" >       34 </v>
   <v type="int" >       35 </v>
   <v type="int" >       36 </v>
   <v type="int" >       37 </v>
   <v type="int" >       38 </v>
   <v type="int" >       39 </v>
   <v type="int" >       40 </v>
   <v type="int" >       41 </v>
   <v type="int" >       42 </v>
   <v type="int" >       43 </v>
   <v type="int" >       44 </v>
   <v type="int" >       45 </v>
   <v type="int" >       46 </v>
   <v type="int" >       47 </v>
   <v type="int" >       48 </v>
   <v type="int" >       49 </v>
   <v type="int" >       50 </v>
   <v type="int" >       51 </v>
   <v type="int" >       52 </v>
   <v type="int" >       53 </v>
   <v type="int" >       54 </v>
   <v type="int" >       55 </v>
   <v type="int" >       56 </v>
   <v type="int" >       57 </v>
   <v type="int" >       58 </v>
   <v type="int" >       59 </v>
   <v type="int" >       60 </v>
   <v type="int" >       61 </v>
   <v type="int" >       62 </v>
   <v type="int" >       63 </v>
   <v type="int" >       64 </v>
   <v type="int" >       65 </v>
   <v type="int" >       66 </v>
   <v type="int" >       67 </v>
   <v type="int" >       68 </v>
   <v type="int" >       69 </v>
   <v type="int" >       70 </v>
   <v type="int" >       71 </v>
   <v type="int" >       72 </v>
   <v type="int" >       73 </v>
   <v type="int" >       74 </v>
   <v type="int" >       75 </v>
   <v type="int" >       76 </v>
   <v type="int" >       77 </v>
   <v type="int" >       78 </v>
   <v type="int" >       79 </v>
   <v type="int" >       80 </v>
   <v type="int" >       81 </v>
   <v type="int" >       82 </v>
   <v type="int" >       83 </v>
   <v type="int" >       84 </v>
   <v type="int" >       85 </v>
   <v type="int" >       86 </v>
   <v type="int" >       87 </v>
   <v type="int" >       88 </v>
   <v type="int" >       89 </v>
   <v type="int" >       90 </v>
   <v type="int" >       91 </v>
   <v type="int" >       92 </v>
   <v type="int" >       93 </v>
   <v type="int" >       94 </v>
   <v type="int" >       95 </v>
   <v type="int" >       96 </v>
   <v type="int" >       97 </v>
   <v type="int" >       98 </v>
   <v type="int" >       99 </v>
   <v type="int" >      100 </v>
   <v type="int" >      101 </v>
   <v type="int" >      102 </v>
   <v type="int" >      103 </v>
   <v type="int" >      104 </v>
   <v type="int" >      105 </v>
   <v type="int" >      106 </v>
   <v type="int" >      107 </v>
   <v type="int" >      108 </v>
   <v type="int" >      109 </v>
   <v type="int" >      110 </v>
   <v type="int" >      111 </v>
   <v type="int" >      112 </v>
   <v type="int" >      113 </v>
   <v type="int" >      114 </v>
   <v type="int" >      115 </v>
   <v type="int" >      116 </v>
   <v type="int" >      117 </v>
   <v type="int" >      118 </v>
   <v type="int" >      119 </v>
   <v type="int" >      120 </v>
   <v type="int" >      121 </v>
   <v type="int" >      122 </v>
   <v type="int" >      123 </v>
   <v type="int" >      124 </v>
   <v type="int" >      125 </v>
   <v type="int" >      126 </v>
   <v type="int" >      127 </v>
   <v type="int" >      128 </v>
   <v type="int" >      129 </v>
   <v type="int" >      130 </v>
   <v type="int" >      131 </v>
   <v type="int" >      132 </v>
   <v type="int" >      133 </v>
   <v type="int" >      134 </v>
   <v type="int" >      135 </v>
   <v type="int" >      136 </v>
   <v type="int" >      137 </v>
   <v type="int" >      138 </v>
   <v type="int" >      139 </v>
   <v type="int" >      140 </v>
   <v type="int" >      141 </v>
   <v type="int" >      142 </v>
   <v type="int" >      143 </v>
   <v type="int" >      144 </v>
   <v type="int" >      145 </v>
   <v type="int" >      146 </v>
   <v type="int" >      147 </v>
   <v type="int" >      148 </v>
   <v type="int" >      149 </v>
   <v type="int" >      150 </v>
   <v type="int" >      151 </v>
   <v type="int" >      152 </v>
   <v type="int" >      153 </v>
   <v type="int" >      154 </v>
   <v type="int" >      155 </v>
   <v type="int" >      156 </v>
   <v type="int" >      157 </v>
   <v type="int" >      158 </v>
   <v type="int" >      159 </v>
   <v type="int" >      160 </v>
   <v type="int" >      161 </v>
   <v type="int" >      162 </v>
   <v type="int" >      163 </v>
   <v type="int" >      164 </v>
   <v type="int" >      165 </v>
   <v type="int" >      166 </v>
   <v type="int" >      167 </v>
   <v type="int" >      168 </v>
   <v type="int" >      169 </v>
   <v type="int" >      170 </v>
   <v type="int" >      171 </v>
   <v type="int" >      172 </v>
   <v type="int" >      173 </v>
   <v type="int" >      174 </v>
   <v type="int" >      175 </v>
   <v type="int" >      176 </v>
   <v type="int" >      177 </v>
   <v type="int" >      178 </v>
   <v type="int" >      179 </v>
   <v type="int" >      180 </v>
   <v type="int" >      181 </v>
   <v type="int" >      182 </v>
   <v type="int" >      183 </v>
   <v type="int" >      184 </v>
   <v type="int" >      185 </v>
   <v type="int" >      186 </v>
   <v type="int" >      187 </v>
   <v type="int" >      188 </v>
   <v type="int" >      189 </v>
   <v type="int" >      190 </v>
   <v type="int" >      191 </v>
   <v type="int" >      192 </v>
   <v type="int" >      193 </v>
   <v type="int" >      194 </v>
   <v type="int" >      195 </v>
   <v type="int" >      196 </v>
   <v type="int" >      197 </v>
   <v type="int" >      198 </v>
   <v type="int" >      199 </v>
   <v type="int" >      200 </v>
   <v type="int" >      201 </v>
   <v type="int" >      202 </v>
   <v type="int" >      203 </v>
   <v type="int" >      204 </v>
   <v type="int" >      205 </v>
   <v type="int" >      206 </v>
   <v type="int" >      207 </v>
   <v type="int" >      208 </v>
   <v type="int" >      209 </v>
   <v type="int" >      210 </v>
   <v type="int" >      211 </v>
   <v type="int" >      212 </v>
   <v type="int" >      213 </v>
   <v type="int" >      214 </v>
   <v type="int" >      215 </v>
   <v type="int" >      216 </v>
   <v type="int" >      217 </v>
   <v type="int" >      218 </v>
   <v type="int" >      219 </v>
   <v type="int" >      220 </v>
   <v type="int" >      221 </v>
   <v type="int" >      222 </v>
   <v type="int" >      223 </v>
   <v type="int" >      224 </v>
   <v type="int" >      225 </v>
   <v type="int" >      226 </v>
   <v type="int" >      227 </v>
   <v type="int" >      228 </v>
   <v type="int" >      229 </v>
   <v type="int" >      230 </v>
   <v type="int" >      231 </v>
   <v type="int" >      232 </v>
   <v type="int" >      233 </v>
   <v type="int" >      234 </v>
   <v type="int" >      235 </v>
   <v type="int" >      236 </v>
   <v type="int" >      237 </v>
   <v type="int" >      238 </v>
   <v type="int" >      239 </v>
   <v type="int" >      240 </v>
   <v type="int" >      241 </v>
   <v type="int" >      242 </v>
   <v type="int" >      243 </v>
   <v type="int" >      244 </v>
   <v type="int" >      245 </v>
   <v type="int" >      246 </v>
   <v type="int" >      247 </v>
   <v type="int" >      248 </v>
   <v type="int" >      249 </v>
   <v type="int" >      250 </v>
   <v type="int" >      251 </v>
   <v type="int" >      252 </v>
   <v type="int" >      253 </v>
   <v type="int" >      254 </v>
   <v type="int" >      255 </v>
   <v type="int" >      256 </v>
   <v type="int" >      257 </v>
   <v type="int" >      258 </v>
   <v type="int" >      259 </v>
   <v type="int" >      260 </v>
   <v type="int" >      261 </v>
   <v type="int" >      262 </v>
   <v type="int" >      263 </v>
   <v type="int" >      264 </v>
   <v type="int" >      265 </v>
   <v type="int" >      266 </v>
   <v type="int" >      267 </v>
   <v type="int" >      268 </v>
   <v type="int" >      269 </v>
   <v type="int" >      270 </v>
   <v type="int" >      271 </v>
   <v type="int" >      272 </v>
   <v type="int" >      273 </v>
   <v type="int" >      274 </v>
   <v type="int" >      275 </v>
   <v type="int" >      276 </v>
   <v type="int" >      277 </v>
   <v type="int" >      278 </v>
   <v type="int" >      279 </v>
   <v type="int" >      280 </v>
   <v type="int" >      281 </v>
   <v type="int" >      282 </v>
   <v type="int" >      283 </v>
   <v type="int" >      284 </v>
   <v type="int" >      285 </v>
   <v type="int" >      286 </v>
   <v type="int" >      287 </v>
   <v type="int" >      288 </v>
   <v type="int" >      289 </v>
   <v type="int" >      290 </v>
   <v type="int" >      291 </v>
   <v type="int" >      292 </v>
   <v type="int" >      293 </v>
   <v type="int" >      294 </v>
   <v type="int" >      295 </v>
   <v type="int" >      296 </v>
   <v type="int" >      297 </v>
   <v type="int" >      298 </v>
   <v type="int" >      299 </v>
   <v type="int" >      300 </v>
   <v type="int" >      301 </v>
   <v type="int" >      302 </v>
   <v type="int" >      303 </v>
   <v type="int" >      304 </v>
   <v type="int" >      305 </v>
   <v type="int" >      306 </v>
   <v type="int" >      307 </v>
   <v type="int" >      308 </v>
   <v type="int" >      309 </v>
   <v type="int" >      310 </v>
   <v type="int" >      311 </v>
   <v type="int" >      312 </v>
   <v type="int" >      313 </v>
   <v type="int" >      314 </v>
   <v type="int" >      315 </v>
   <v type="int" >      316 </v>
   <v type="int" >      317 </v>
   <v type="int" >      318 </v>
   <v type="int" >      319 </v>
   <v type="int" >      320 </v>
   <v type="int" >      321 </v>
   <v type="int" >      322 </v>
   <v type="int" >      323 </v>
   <v type="int" >      324 </v>
   <v type="int" >      325 </v>
  </varray>
 </primitive_cell>
 <kpoints>
  <generation param="Gamma">
   <v type="int" name="divisions">       3        3        1 </v>
   <v name="usershift">      0.00000000       0.00000000       0.00000000 </v>
   <v name="genvec1">      0.33333333       0.00000000       0.00000000 </v>
   <v name="genvec2">      0.00000000       0.33333333       0.00000000 </v>
   <v name="genvec3">      0.00000000       0.00000000       1.00000000 </v>
   <v name="shift">      0.00000000       0.00000000       0.00000000 </v>
  </generation>
  <varray name="kpointlist" >
   <v>       0.00000000       0.00000000       0.00000000 </v>
   <v>       0.33333333       0.00000000       0.00000000 </v>
   <v>       0.00000000       0.33333333       0.00000000 </v>
   <v>       0.33333333       0.33333333       0.00000000 </v>
   <v>      -0.33333333       0.33333333       0.00000000 </v>
  </varray>
  <varray name="weights" >
   <v>       0.11111111 </v>
   <v>       0.22222222 </v>
   <v>       0.22222222 </v>
   <v>       0.22222222 </v>
   <v>       0.22222222 </v>
  </varray>
 </kpoints>
 <parameters>
  <separator name="general" >
   <i type="string" name="SYSTEM">PSC</i>
   <i type="logical" name="LCOMPAT"> F  </i>
  </separator>
  <separator name="electronic" >
   <i type="string" name="PREC">normal</i>
   <i name="ENMAX">    500.00000000</i>
   <i name="ENAUG">    644.87300000</i>
   <i name="EDIFF">      0.00010000</i>
   <i type="int" name="IALGO">    38</i>
   <i type="int" name="IWAVPR">    10</i>
   <i type="int" name="NBANDS">   732</i>
   <i type="int" name="NBANDSLOW">    -1</i>
   <i type="int" name="NBANDSHIGH">    -1</i>
   <i name="NELECT">   1134.00000000</i>
   <i type="int" name="TURBO">     0</i>
   <i type="int" name="IRESTART">     0</i>
   <i type="int" name="NREBOOT">     0</i>
   <i type="int" name="NMIN">     0</i>
   <i name="EREF">      0.00000000</i>
   <separator name="electronic smearing" >
    <i type="int" name="ISMEAR">     0</i>
    <i name="SIGMA">      0.05000000</i>
    <i name="KSPACING">      0.50000000</i>
    <i type="logical" name="KGAMMA"> T  </i>
    <i type="logical" name="KBLOWUP"> T  </i>
   </separator>
   <separator name="electronic projectors" >
    <i type="logical" name="LREAL"> T  </i>
    <v name="ROPT">     -0.00050000     -0.00050000     -0.00050000     -0.00050000     -0.00050000</v>
    <i type="int" name="LMAXPAW">  -100</i>
    <i type="int" name="LMAXMIX">     2</i>
    <i type="logical" name="NLSPLINE"> F  </i>
   </separator>
   <separator name="electronic startup" >
    <i type="int" name="ISTART">     0</i>
    <i type="int" name="ICHARG">     1</i>
    <i type="int" name="INIWAV">     1</i>
   </separator>
   <separator name="electronic spin" >
    <i type="int" name="ISPIN">     1</i>
    <i type="logical" name="LNONCOLLINEAR"> F  </i>
    <v name="MAGMOM">      1.00000000      1.00000000      1.00000000      1.00000000      1.00000000      1.00000000      1.00000000      1.00000000      1.00000000      1.00000000      1.00000000      1.00000000      1.00000000      1.00000000      1.00000000      1.00000000      1.00000000      1.00000000      1.00000000      1.00000000
      1.00000000      1.00000000      1.00000000      1.00000000      1.00000000      1.00000000      1.00000000      1.00000000      1.00000000      1.00000000      1.00000000      1.00000000      1.00000000      1.00000000      1.00000000      1.00000000      1.00000000      1.00000000      1.00000000      1.00000000
      1.00000000      1.00000000      1.00000000      1.00000000      1.00000000      1.00000000      1.00000000      1.00000000      1.00000000      1.00000000      1.00000000      1.00000000      1.00000000      1.00000000      1.00000000      1.00000000      1.00000000      1.00000000      1.00000000      1.00000000
      1.00000000      1.00000000      1.00000000      1.00000000      1.00000000      1.00000000      1.00000000      1.00000000      1.00000000      1.00000000      1.00000000      1.00000000      1.00000000      1.00000000      1.00000000      1.00000000      1.00000000      1.00000000      1.00000000      1.00000000
      1.00000000      1.00000000      1.00000000      1.00000000      1.00000000      1.00000000      1.00000000      1.00000000      1.00000000      1.00000000      1.00000000      1.00000000      1.00000000      1.00000000      1.00000000      1.00000000      1.00000000      1.00000000      1.00000000      1.00000000
      1.00000000      1.00000000      1.00000000      1.00000000      1.00000000      1.00000000      1.00000000      1.00000000      1.00000000      1.00000000      1.00000000      1.00000000      1.00000000      1.00000000      1.00000000      1.00000000      1.00000000      1.00000000      1.00000000      1.00000000
      1.00000000      1.00000000      1.00000000      1.00000000      1.00000000      1.00000000      1.00000000      1.00000000      1.00000000      1.00000000      1.00000000      1.00000000      1.00000000      1.00000000      1.00000000      1.00000000      1.00000000      1.00000000      1.00000000      1.00000000
      1.00000000      1.00000000      1.00000000      1.00000000      1.00000000      1.00000000      1.00000000      1.00000000      1.00000000      1.00000000      1.00000000      1.00000000      1.00000000      1.00000000      1.00000000      1.00000000      1.00000000      1.00000000      1.00000000      1.00000000
      1.00000000      1.00000000      1.00000000      1.00000000      1.00000000      1.00000000      1.00000000      1.00000000      1.00000000      1.00000000      1.00000000      1.00000000      1.00000000      1.00000000      1.00000000      1.00000000      1.00000000      1.00000000      1.00000000      1.00000000
      1.00000000      1.00000000      1.00000000      1.00000000      1.00000000      1.00000000      1.00000000      1.00000000      1.00000000      1.00000000      1.00000000      1.00000000      1.00000000      1.00000000      1.00000000      1.00000000      1.00000000      1.00000000      1.00000000      1.00000000
      1.00000000      1.00000000      1.00000000      1.00000000      1.00000000      1.00000000      1.00000000      1.00000000      1.00000000      1.00000000      1.00000000      1.00000000      1.00000000      1.00000000      1.00000000      1.00000000      1.00000000      1.00000000      1.00000000      1.00000000
      1.00000000      1.00000000      1.00000000      1.00000000      1.00000000      1.00000000      1.00000000      1.00000000      1.00000000      1.00000000      1.00000000      1.00000000      1.00000000      1.00000000      1.00000000      1.00000000      1.00000000      1.00000000      1.00000000      1.00000000
      1.00000000      1.00000000      1.00000000      1.00000000      1.00000000      1.00000000      1.00000000      1.00000000      1.00000000      1.00000000      1.00000000      1.00000000      1.00000000      1.00000000      1.00000000      1.00000000      1.00000000      1.00000000      1.00000000      1.00000000
      1.00000000      1.00000000      1.00000000      1.00000000      1.00000000      1.00000000      1.00000000      1.00000000      1.00000000      1.00000000      1.00000000      1.00000000      1.00000000      1.00000000      1.00000000      1.00000000      1.00000000      1.00000000      1.00000000      1.00000000
      1.00000000      1.00000000      1.00000000      1.00000000      1.00000000      1.00000000      1.00000000      1.00000000      1.00000000      1.00000000      1.00000000      1.00000000      1.00000000      1.00000000      1.00000000      1.00000000      1.00000000      1.00000000      1.00000000      1.00000000
      1.00000000      1.00000000      1.00000000      1.00000000      1.00000000      1.00000000      1.00000000      1.00000000      1.00000000      1.00000000      1.00000000      1.00000000      1.00000000      1.00000000      1.00000000      1.00000000      1.00000000      1.00000000      1.00000000      1.00000000
      1.00000000      1.00000000      1.00000000      1.00000000      1.00000000</v>
    <i name="NUPDOWN">     -1.00000000</i>
    <i type="logical" name="LSORBIT"> F  </i>
    <v name="SAXIS">      0.00000000      0.00000000      1.00000000</v>
    <i type="logical" name="LSPIRAL"> F  </i>
    <v name="QSPIRAL">      0.00000000      0.00000000      0.00000000</v>
    <i type="logical" name="LZEROZ"> F  </i>
   </separator>
   <separator name="electronic exchange-correlation" >
    <i type="logical" name="LASPH"> F  </i>
    <i type="logical" name="LMETAGGA"> F  </i>
   </separator>
   <separator name="electronic convergence" >
    <i type="int" name="NELM">   600</i>
    <i type="int" name="NELMDL">     0</i>
    <i type="int" name="NELMIN">     2</i>
    <i name="ENINI">    500.00000000</i>
    <separator name="electronic convergence detail" >
     <i type="logical" name="LDIAG"> T  </i>
     <i type="logical" name="LSUBROT"> F  </i>
     <i name="WEIMIN">      0.00000000</i>
     <i name="EBREAK">      0.00000003</i>
     <i name="DEPER">      0.30000000</i>
     <i type="int" name="NRMM">     4</i>
     <i name="TIME">      0.40000000</i>
    </separator>
   </separator>
   <separator name="electronic mixer" >
    <i name="AMIX">      0.40000000</i>
    <i name="BMIX">      0.01000000</i>
    <i name="AMIN">      0.01000000</i>
    <i name="AMIX_MAG">      1.60000000</i>
    <i name="BMIX_MAG">      0.01000000</i>
    <separator name="electronic mixer details" >
     <i type="int" name="IMIX">     4</i>
     <i type="logical" name="MIXFIRST"> F  </i>
     <i type="int" name="MAXMIX">   -45</i>
     <i name="WC">    100.00000000</i>
     <i type="int" name="INIMIX">     1</i>
     <i type="int" name="MIXPRE">     1</i>
     <i type="int" name="MREMOVE">     5</i>
    </separator>
   </separator>
   <separator name="electronic dipolcorrection" >
    <i type="logical" name="LDIPOL"> T  </i>
    <i type="logical" name="LMONO"> F  </i>
    <i type="int" name="IDIPOL">     3</i>
    <i name="EPSILON">      1.00000000</i>
    <v name="DIPOL">   -100.00000000   -100.00000000   -100.00000000</v>
    <i name="EFIELD">      0.00000000</i>
   </separator>
  </separator>
  <separator name="grids" >
   <i type="int" name="NGX">   100</i>
   <i type="int" name="NGY">   100</i>
   <i type="int" name="NGZ">   350</i>
   <i type="int" name="NGXF">   200</i>
   <i type="int" name="NGYF">   200</i>
   <i type="int" name="NGZF">   700</i>
   <i type="logical" name="ADDGRID"> F  </i>
  </separator>
  <separator name="ionic" >
   <i type="int" name="NSW">     0</i>
   <i type="int" name="IBRION">    -1</i>
   <i type="int" name="MDALGO">     0</i>
   <i type="int" name="ISIF">     2</i>
   <i name="PSTRESS">      0.00000000</i>
   <i name="EDIFFG">      0.00100000</i>
   <i type="int" name="NFREE">     0</i>
   <i name="POTIM">      0.50000000</i>
   <i name="SMASS">     -3.00000000</i>
   <i name="SCALEE">      1.00000000</i>
  </separator>
  <separator name="ionic md" >
   <i name="TEBEG">      0.00010000</i>
   <i name="TEEND">      0.00010000</i>
   <i type="int" name="NBLOCK">     1</i>
   <i type="int" name="KBLOCK">     1</i>
   <i type="int" name="NPACO">   256</i>
   <i name="APACO">     16.00000000</i>
  </separator>
  <separator name="symmetry" >
   <i type="int" name="ISYM">     0</i>
   <i name="SYMPREC">      0.00001000</i>
  </separator>
  <separator name="dos" >
   <i type="int" name="LORBIT">     0</i>
   <v name="RWIGS">     -1.00000000     -1.00000000     -1.00000000     -1.00000000     -1.00000000</v>
   <i type="int" name="NEDOS">   301</i>
   <i name="EMIN">     10.00000000</i>
   <i name="EMAX">    -10.00000000</i>
   <i name="EFERMI">      0.00000000</i>
  </separator>
  <separator name="writing" >
   <i type="int" name="NWRITE">     2</i>
   <i type="logical" name="LWAVE"> F  </i>
   <i type="logical" name="LDOWNSAMPLE"> F  </i>
   <i type="logical" name="LCHARG"> T  </i>
   <i type="logical" name="LPARD"> F  </i>
   <i type="logical" name="LVTOT"> T  </i>
   <i type="logical" name="LVHAR"> F  </i>
   <i type="logical" name="LELF"> F  </i>
   <i type="logical" name="LOPTICS"> F  </i>
   <v name="STM">      0.00000000      0.00000000      0.00000000      0.00000000      0.00000000      0.00000000      0.00000000</v>
  </separator>
  <separator name="performance" >
   <i type="int" name="NPAR">     4</i>
   <i type="int" name="NSIM">     4</i>
   <i type="int" name="NBLK">    -1</i>
   <i type="logical" name="LPLANE"> T  </i>
   <i type="logical" name="LSCALAPACK"> T  </i>
   <i type="logical" name="LSCAAWARE"> F  </i>
   <i type="logical" name="LSCALU"> F  </i>
   <i type="logical" name="LASYNC"> F  </i>
   <i type="logical" name="LORBITALREAL"> F  </i>
  </separator>
  <separator name="miscellaneous" >
   <i type="int" name="IDIOT">     3</i>
   <i type="int" name="PHON_NSTRUCT">    -1</i>
   <i type="logical" name="LMUSIC"> F  </i>
   <v name="POMASS">      1.00000000     12.01100000     14.00100000    126.90400000    207.20000000</v>
   <v name="DARWINR">      0.00000000      0.00000000      0.00000000      0.00000000      0.00000000</v>
   <v name="DARWINV">      1.00000000      1.00000000      1.00000000      1.00000000      1.00000000</v>
   <i type="logical" name="LCORR"> T  </i>
  </separator>
  <i type="logical" name="GGA_COMPAT"> F  </i>
  <i type="logical" name="LBERRY"> F  </i>
  <i type="int" name="ICORELEVEL">     0</i>
  <i type="logical" name="LDAU"> F  </i>
  <i type="int" name="I_CONSTRAINED_M">     0</i>
  <separator name="electronic exchange-correlation" >
   <i type="string" name="GGA">--</i>
   <i type="int" name="VOSKOWN">     0</i>
   <i type="logical" name="LHFCALC"> F  </i>
   <i type="string" name="PRECFOCK"></i>
   <i type="logical" name="LSYMGRAD"> F  </i>
   <i type="logical" name="LHFONE"> F  </i>
   <i type="logical" name="LRHFCALC"> F  </i>
   <i type="logical" name="LTHOMAS"> F  </i>
   <i type="logical" name="LMODELHF"> F  </i>
   <i type="logical" name="LFOCKACE"> F  </i>
   <i name="ENCUT4O">     -1.00000000</i>
   <i type="int" name="EXXOEP">     0</i>
   <i type="int" name="FOURORBIT">     0</i>
   <i name="AEXX">      0.00000000</i>
   <i name="HFALPHA">      0.00000000</i>
   <i name="MCALPHA">      0.00000000</i>
   <i name="ALDAX">      1.00000000</i>
   <i name="AGGAX">      1.00000000</i>
   <i name="ALDAC">      1.00000000</i>
   <i name="AGGAC">      1.00000000</i>
   <i type="int" name="NKREDX">     1</i>
   <i type="int" name="NKREDY">     1</i>
   <i type="int" name="NKREDZ">     1</i>
   <i type="logical" name="SHIFTRED"> F  </i>
   <i type="logical" name="ODDONLY"> F  </i>
   <i type="logical" name="EVENONLY"> F  </i>
   <i type="int" name="LMAXFOCK">     0</i>
   <i type="int" name="NMAXFOCKAE">     0</i>
   <i type="logical" name="LFOCKAEDFT"> F  </i>
   <i name="HFSCREEN">      0.00000000</i>
   <i name="HFSCREENC">      0.00000000</i>
   <i type="int" name="NBANDSGWLOW">     0</i>
  </separator>
  <separator name="vdW DFT" >
   <i type="logical" name="LUSE_VDW"> F  </i>
   <i name="Zab_VDW">     -0.84910000</i>
   <i name="PARAM1">      0.12340000</i>
   <i name="PARAM2">      1.00000000</i>
   <i name="PARAM3">      0.00000000</i>
  </separator>
  <separator name="model GW" >
   <i type="int" name="MODEL_GW">     0</i>
   <i name="MODEL_EPS0">     37.63423484</i>
   <i name="MODEL_ALPHA">      1.00000000</i>
  </separator>
  <separator name="linear response parameters" >
   <i type="logical" name="LEPSILON"> F  </i>
   <i type="logical" name="LRPA"> F  </i>
   <i type="logical" name="LNABLA"> F  </i>
   <i type="logical" name="LVEL"> F  </i>
   <i type="int" name="KINTER">     0</i>
   <i name="CSHIFT">      0.10000000</i>
   <i name="OMEGAMAX">     -1.00000000</i>
   <i name="DEG_THRESHOLD">      0.00200000</i>
   <i name="RTIME">     -0.10000000</i>
   <i name="WPLASMAI">      0.00000000</i>
   <v name="DFIELD">      0.00000000      0.00000000      0.00000000</v>
   <v name="WPLASMA">      0.00000000      0.00000000      0.00000000      0.00000000      0.00000000      0.00000000      0.00000000      0.00000000      0.00000000</v>
  </separator>
  <separator name="orbital magnetization" >
   <i type="logical" name="NUCIND"> F  </i>
   <v name="MAGPOS">      0.00000000      0.00000000      0.00000000</v>
   <i type="logical" name="LNICSALL"> T  </i>
   <i type="logical" name="ORBITALMAG"> F  </i>
   <i type="logical" name="LMAGBLOCH"> F  </i>
   <i type="logical" name="LCHIMAG"> F  </i>
   <i type="logical" name="LGAUGE"> T  </i>
   <i type="int" name="MAGATOM">     0</i>
   <v name="MAGDIPOL">      0.00000000      0.00000000      0.00000000</v>
   <v name="AVECCONST">      0.00000000      0.00000000      0.00000000</v>
  </separator>
  <separator name="response functions" >
   <i type="logical" name="LFINITE_TEMPERATURE"> F  </i>
   <i type="logical" name="LADDER"> F  </i>
   <i type="logical" name="LRPAFORCE"> F  </i>
   <i type="logical" name="LFXC"> F  </i>
   <i type="logical" name="LHARTREE"> T  </i>
   <i type="int" name="IBSE">     0</i>
   <v type="int" name="KPOINT">    -1     0     0     0</v>
   <i type="logical" name="LTCTC"> F  </i>
   <i type="logical" name="LTCTE"> F  </i>
   <i type="logical" name="LTETE"> F  </i>
   <i type="logical" name="LTRIPLET"> F  </i>
   <i type="logical" name="LFXCEPS"> F  </i>
   <i type="logical" name="LFXHEG"> F  </i>
   <i type="int" name="NATURALO">     2</i>
   <i type="logical" name="LHOLEGF"> F  </i>
   <i type="logical" name="L2ORDER"> F  </i>
   <i type="logical" name="LDMP1"> F  </i>
   <i type="logical" name="LMP2LT"> F  </i>
   <i type="logical" name="LSMP2LT"> F  </i>
   <i type="logical" name="LGWLF"> F  </i>
   <i name="ENCUTGW">     -2.00000000</i>
   <i name="ENCUTGWSOFT">     -2.00000000</i>
   <i name="ENCUTLF">     -1.00000000</i>
   <i type="logical" name="LESF_SPLINES"> F  </i>
   <i type="int" name="LMAXMP2">    -1</i>
   <i name="SCISSOR">      0.00000000</i>
   <i type="int" name="NOMEGA">     0</i>
   <i type="int" name="NOMEGAR">     0</i>
   <i type="int" name="NBANDSGW">    -1</i>
   <i type="int" name="NBANDSO">    -1</i>
   <i type="int" name="NBANDSV">    -1</i>
   <i type="int" name="NELM">   600</i>
   <i type="int" name="NELMHF">     1</i>
   <i type="int" name="DIM">     3</i>
   <i type="int" name="IESPILON">     4</i>
   <i type="int" name="ANTIRES">     0</i>
   <i name="OMEGAMAX">    -30.00000000</i>
   <i name="OMEGAMIN">    -30.00000000</i>
   <i name="OMEGATL">   -200.00000000</i>
   <i type="int" name="OMEGAGRID">     0</i>
   <i name="CSHIFT">     -0.10000000</i>
   <i type="logical" name="LSELFENERGY"> F  </i>
   <i type="logical" name="LSPECTRAL"> F  </i>
   <i type="logical" name="LSPECTRALGW"> F  </i>
   <i type="logical" name="LSINGLES"> F  </i>
   <i type="logical" name="LFERMIGW"> F  </i>
   <i type="logical" name="ODDONLYGW"> F  </i>
   <i type="logical" name="EVENONLYGW"> F  </i>
   <i type="int" name="NKREDLFX">     1</i>
   <i type="int" name="NKREDLFY">     1</i>
   <i type="int" name="NKREDLFZ">     1</i>
   <i type="int" name="MAXMEM">  2800</i>
   <i type="int" name="TELESCOPE">     0</i>
   <i type="int" name="NTAUPAR">    -1</i>
   <i type="int" name="NOMEGAPAR">    -1</i>
   <i name="DAMP_NEWTON">      0.80000001</i>
   <i name="LAMBDA">      1.00000000</i>
  </separator>
  <separator name="External order field" >
   <i name="OFIELD_KAPPA">      0.00000000</i>
   <v name="OFIELD_K">      0.00000000      0.00000000      0.00000000</v>
   <i name="OFIELD_Q6_NEAR">      0.00000000</i>
   <i name="OFIELD_Q6_FAR">      0.00000000</i>
   <i name="OFIELD_A">      0.00000000</i>
  </separator>
 </parameters>
 <atominfo>
  <atoms>     325 </atoms>
  <types>       5 </types>
  <array name="atoms" >
   <dimension dim="1">ion</dimension>
   <field type="string">element</field>
   <field type="int">atomtype</field>
   <set>
    <rc><c>H </c><c>   1</c></rc>
    <rc><c>H </c><c>   1</c></rc>
    <rc><c>H </c><c>   1</c></rc>
    <rc><c>H </c><c>   1</c></rc>
    <rc><c>H </c><c>   1</c></rc>
    <rc><c>H </c><c>   1</c></rc>
    <rc><c>H </c><c>   1</c></rc>
    <rc><c>H </c><c>   1</c></rc>
    <rc><c>H </c><c>   1</c></rc>
    <rc><c>H </c><c>   1</c></rc>
    <rc><c>H </c><c>   1</c></rc>
    <rc><c>H </c><c>   1</c></rc>
    <rc><c>H </c><c>   1</c></rc>
    <rc><c>H </c><c>   1</c></rc>
    <rc><c>H </c><c>   1</c></rc>
    <rc><c>H </c><c>   1</c></rc>
    <rc><c>H </c><c>   1</c></rc>
    <rc><c>H </c><c>   1</c></rc>
    <rc><c>H </c><c>   1</c></rc>
    <rc><c>H </c><c>   1</c></rc>
    <rc><c>H </c><c>   1</c></rc>
    <rc><c>H </c><c>   1</c></rc>
    <rc><c>H </c><c>   1</c></rc>
    <rc><c>H </c><c>   1</c></rc>
    <rc><c>H </c><c>   1</c></rc>
    <rc><c>H </c><c>   1</c></rc>
    <rc><c>H </c><c>   1</c></rc>
    <rc><c>H </c><c>   1</c></rc>
    <rc><c>H </c><c>   1</c></rc>
    <rc><c>H </c><c>   1</c></rc>
    <rc><c>H </c><c>   1</c></rc>
    <rc><c>H </c><c>   1</c></rc>
    <rc><c>H </c><c>   1</c></rc>
    <rc><c>H </c><c>   1</c></rc>
    <rc><c>H </c><c>   1</c></rc>
    <rc><c>H </c><c>   1</c></rc>
    <rc><c>H </c><c>   1</c></rc>
    <rc><c>H </c><c>   1</c></rc>
    <rc><c>H </c><c>   1</c></rc>
    <rc><c>H </c><c>   1</c></rc>
    <rc><c>H </c><c>   1</c></rc>
    <rc><c>H </c><c>   1</c></rc>
    <rc><c>H </c><c>   1</c></rc>
    <rc><c>H </c><c>   1</c></rc>
    <rc><c>H </c><c>   1</c></rc>
    <rc><c>H </c><c>   1</c></rc>
    <rc><c>H </c><c>   1</c></rc>
    <rc><c>H </c><c>   1</c></rc>
    <rc><c>H </c><c>   1</c></rc>
    <rc><c>H </c><c>   1</c></rc>
    <rc><c>H </c><c>   1</c></rc>
    <rc><c>H </c><c>   1</c></rc>
    <rc><c>H </c><c>   1</c></rc>
    <rc><c>H </c><c>   1</c></rc>
    <rc><c>H </c><c>   1</c></rc>
    <rc><c>H </c><c>   1</c></rc>
    <rc><c>H </c><c>   1</c></rc>
    <rc><c>H </c><c>   1</c></rc>
    <rc><c>H </c><c>   1</c></rc>
    <rc><c>H </c><c>   1</c></rc>
    <rc><c>H </c><c>   1</c></rc>
    <rc><c>H </c><c>   1</c></rc>
    <rc><c>H </c><c>   1</c></rc>
    <rc><c>H </c><c>   1</c></rc>
    <rc><c>H </c><c>   1</c></rc>
    <rc><c>H </c><c>   1</c></rc>
    <rc><c>H </c><c>   1</c></rc>
    <rc><c>H </c><c>   1</c></rc>
    <rc><c>H </c><c>   1</c></rc>
    <rc><c>H </c><c>   1</c></rc>
    <rc><c>H </c><c>   1</c></rc>
    <rc><c>H </c><c>   1</c></rc>
    <rc><c>H </c><c>   1</c></rc>
    <rc><c>H </c><c>   1</c></rc>
    <rc><c>H </c><c>   1</c></rc>
    <rc><c>H </c><c>   1</c></rc>
    <rc><c>H </c><c>   1</c></rc>
    <rc><c>H </c><c>   1</c></rc>
    <rc><c>H </c><c>   1</c></rc>
    <rc><c>H </c><c>   1</c></rc>
    <rc><c>H </c><c>   1</c></rc>
    <rc><c>H </c><c>   1</c></rc>
    <rc><c>H </c><c>   1</c></rc>
    <rc><c>H </c><c>   1</c></rc>
    <rc><c>H </c><c>   1</c></rc>
    <rc><c>H </c><c>   1</c></rc>
    <rc><c>H </c><c>   1</c></rc>
    <rc><c>H </c><c>   1</c></rc>
    <rc><c>H </c><c>   1</c></rc>
    <rc><c>H </c><c>   1</c></rc>
    <rc><c>H </c><c>   1</c></rc>
    <rc><c>H </c><c>   1</c></rc>
    <rc><c>H </c><c>   1</c></rc>
    <rc><c>H </c><c>   1</c></rc>
    <rc><c>H </c><c>   1</c></rc>
    <rc><c>H </c><c>   1</c></rc>
    <rc><c>H </c><c>   1</c></rc>
    <rc><c>H </c><c>   1</c></rc>
    <rc><c>H </c><c>   1</c></rc>
    <rc><c>H </c><c>   1</c></rc>
    <rc><c>H </c><c>   1</c></rc>
    <rc><c>H </c><c>   1</c></rc>
    <rc><c>H </c><c>   1</c></rc>
    <rc><c>H </c><c>   1</c></rc>
    <rc><c>H </c><c>   1</c></rc>
    <rc><c>H </c><c>   1</c></rc>
    <rc><c>H </c><c>   1</c></rc>
    <rc><c>H </c><c>   1</c></rc>
    <rc><c>H </c><c>   1</c></rc>
    <rc><c>H </c><c>   1</c></rc>
    <rc><c>H </c><c>   1</c></rc>
    <rc><c>H </c><c>   1</c></rc>
    <rc><c>H </c><c>   1</c></rc>
    <rc><c>H </c><c>   1</c></rc>
    <rc><c>H </c><c>   1</c></rc>
    <rc><c>H </c><c>   1</c></rc>
    <rc><c>H </c><c>   1</c></rc>
    <rc><c>H </c><c>   1</c></rc>
    <rc><c>H </c><c>   1</c></rc>
    <rc><c>H </c><c>   1</c></rc>
    <rc><c>H </c><c>   1</c></rc>
    <rc><c>H </c><c>   1</c></rc>
    <rc><c>H </c><c>   1</c></rc>
    <rc><c>H </c><c>   1</c></rc>
    <rc><c>H </c><c>   1</c></rc>
    <rc><c>H </c><c>   1</c></rc>
    <rc><c>H </c><c>   1</c></rc>
    <rc><c>H </c><c>   1</c></rc>
    <rc><c>H </c><c>   1</c></rc>
    <rc><c>H </c><c>   1</c></rc>
    <rc><c>H </c><c>   1</c></rc>
    <rc><c>H </c><c>   1</c></rc>
    <rc><c>H </c><c>   1</c></rc>
    <rc><c>H </c><c>   1</c></rc>
    <rc><c>H </c><c>   1</c></rc>
    <rc><c>H </c><c>   1</c></rc>
    <rc><c>H </c><c>   1</c></rc>
    <rc><c>H </c><c>   1</c></rc>
    <rc><c>H </c><c>   1</c></rc>
    <rc><c>H </c><c>   1</c></rc>
    <rc><c>H </c><c>   1</c></rc>
    <rc><c>H </c><c>   1</c></rc>
    <rc><c>H </c><c>   1</c></rc>
    <rc><c>C </c><c>   2</c></rc>
    <rc><c>C </c><c>   2</c></rc>
    <rc><c>C </c><c>   2</c></rc>
    <rc><c>C </c><c>   2</c></rc>
    <rc><c>C </c><c>   2</c></rc>
    <rc><c>C </c><c>   2</c></rc>
    <rc><c>C </c><c>   2</c></rc>
    <rc><c>C </c><c>   2</c></rc>
    <rc><c>C </c><c>   2</c></rc>
    <rc><c>C </c><c>   2</c></rc>
    <rc><c>C </c><c>   2</c></rc>
    <rc><c>C </c><c>   2</c></rc>
    <rc><c>C </c><c>   2</c></rc>
    <rc><c>C </c><c>   2</c></rc>
    <rc><c>C </c><c>   2</c></rc>
    <rc><c>C </c><c>   2</c></rc>
    <rc><c>C </c><c>   2</c></rc>
    <rc><c>C </c><c>   2</c></rc>
    <rc><c>C </c><c>   2</c></rc>
    <rc><c>C </c><c>   2</c></rc>
    <rc><c>C </c><c>   2</c></rc>
    <rc><c>C </c><c>   2</c></rc>
    <rc><c>C </c><c>   2</c></rc>
    <rc><c>C </c><c>   2</c></rc>
    <rc><c>C </c><c>   2</c></rc>
    <rc><c>C </c><c>   2</c></rc>
    <rc><c>C </c><c>   2</c></rc>
    <rc><c>C </c><c>   2</c></rc>
    <rc><c>C </c><c>   2</c></rc>
    <rc><c>C </c><c>   2</c></rc>
    <rc><c>C </c><c>   2</c></rc>
    <rc><c>C </c><c>   2</c></rc>
    <rc><c>C </c><c>   2</c></rc>
    <rc><c>C </c><c>   2</c></rc>
    <rc><c>C </c><c>   2</c></rc>
    <rc><c>C </c><c>   2</c></rc>
    <rc><c>C </c><c>   2</c></rc>
    <rc><c>C </c><c>   2</c></rc>
    <rc><c>C </c><c>   2</c></rc>
    <rc><c>N </c><c>   3</c></rc>
    <rc><c>N </c><c>   3</c></rc>
    <rc><c>N </c><c>   3</c></rc>
    <rc><c>N </c><c>   3</c></rc>
    <rc><c>N </c><c>   3</c></rc>
    <rc><c>N </c><c>   3</c></rc>
    <rc><c>N </c><c>   3</c></rc>
    <rc><c>N </c><c>   3</c></rc>
    <rc><c>N </c><c>   3</c></rc>
    <rc><c>N </c><c>   3</c></rc>
    <rc><c>N </c><c>   3</c></rc>
    <rc><c>N </c><c>   3</c></rc>
    <rc><c>N </c><c>   3</c></rc>
    <rc><c>N </c><c>   3</c></rc>
    <rc><c>N </c><c>   3</c></rc>
    <rc><c>N </c><c>   3</c></rc>
    <rc><c>N </c><c>   3</c></rc>
    <rc><c>N </c><c>   3</c></rc>
    <rc><c>N </c><c>   3</c></rc>
    <rc><c>N </c><c>   3</c></rc>
    <rc><c>N </c><c>   3</c></rc>
    <rc><c>N </c><c>   3</c></rc>
    <rc><c>N </c><c>   3</c></rc>
    <rc><c>N </c><c>   3</c></rc>
    <rc><c>N </c><c>   3</c></rc>
    <rc><c>N </c><c>   3</c></rc>
    <rc><c>N </c><c>   3</c></rc>
    <rc><c>N </c><c>   3</c></rc>
    <rc><c>N </c><c>   3</c></rc>
    <rc><c>N </c><c>   3</c></rc>
    <rc><c>N </c><c>   3</c></rc>
    <rc><c>N </c><c>   3</c></rc>
    <rc><c>N </c><c>   3</c></rc>
    <rc><c>N </c><c>   3</c></rc>
    <rc><c>N </c><c>   3</c></rc>
    <rc><c>N </c><c>   3</c></rc>
    <rc><c>N </c><c>   3</c></rc>
    <rc><c>N </c><c>   3</c></rc>
    <rc><c>N </c><c>   3</c></rc>
    <rc><c>N </c><c>   3</c></rc>
    <rc><c>N </c><c>   3</c></rc>
    <rc><c>N </c><c>   3</c></rc>
    <rc><c>N </c><c>   3</c></rc>
    <rc><c>N </c><c>   3</c></rc>
    <rc><c>N </c><c>   3</c></rc>
    <rc><c>N </c><c>   3</c></rc>
    <rc><c>N </c><c>   3</c></rc>
    <rc><c>I </c><c>   4</c></rc>
    <rc><c>I </c><c>   4</c></rc>
    <rc><c>I </c><c>   4</c></rc>
    <rc><c>I </c><c>   4</c></rc>
    <rc><c>I </c><c>   4</c></rc>
    <rc><c>I </c><c>   4</c></rc>
    <rc><c>I </c><c>   4</c></rc>
    <rc><c>I </c><c>   4</c></rc>
    <rc><c>I </c><c>   4</c></rc>
    <rc><c>I </c><c>   4</c></rc>
    <rc><c>I </c><c>   4</c></rc>
    <rc><c>I </c><c>   4</c></rc>
    <rc><c>I </c><c>   4</c></rc>
    <rc><c>I </c><c>   4</c></rc>
    <rc><c>I </c><c>   4</c></rc>
    <rc><c>I </c><c>   4</c></rc>
    <rc><c>I </c><c>   4</c></rc>
    <rc><c>I </c><c>   4</c></rc>
    <rc><c>I </c><c>   4</c></rc>
    <rc><c>I </c><c>   4</c></rc>
    <rc><c>I </c><c>   4</c></rc>
    <rc><c>I </c><c>   4</c></rc>
    <rc><c>I </c><c>   4</c></rc>
    <rc><c>I </c><c>   4</c></rc>
    <rc><c>I </c><c>   4</c></rc>
    <rc><c>I </c><c>   4</c></rc>
    <rc><c>I </c><c>   4</c></rc>
    <rc><c>I </c><c>   4</c></rc>
    <rc><c>I </c><c>   4</c></rc>
    <rc><c>I </c><c>   4</c></rc>
    <rc><c>I </c><c>   4</c></rc>
    <rc><c>I </c><c>   4</c></rc>
    <rc><c>I </c><c>   4</c></rc>
    <rc><c>I </c><c>   4</c></rc>
    <rc><c>I </c><c>   4</c></rc>
    <rc><c>I </c><c>   4</c></rc>
    <rc><c>I </c><c>   4</c></rc>
    <rc><c>I </c><c>   4</c></rc>
    <rc><c>I </c><c>   4</c></rc>
    <rc><c>I </c><c>   4</c></rc>
    <rc><c>I </c><c>   4</c></rc>
    <rc><c>I </c><c>   4</c></rc>
    <rc><c>I </c><c>   4</c></rc>
    <rc><c>I </c><c>   4</c></rc>
    <rc><c>I </c><c>   4</c></rc>
    <rc><c>I </c><c>   4</c></rc>
    <rc><c>I </c><c>   4</c></rc>
    <rc><c>I </c><c>   4</c></rc>
    <rc><c>I </c><c>   4</c></rc>
    <rc><c>I </c><c>   4</c></rc>
    <rc><c>I </c><c>   4</c></rc>
    <rc><c>I </c><c>   4</c></rc>
    <rc><c>I </c><c>   4</c></rc>
    <rc><c>I </c><c>   4</c></rc>
    <rc><c>I </c><c>   4</c></rc>
    <rc><c>I </c><c>   4</c></rc>
    <rc><c>I </c><c>   4</c></rc>
    <rc><c>I </c><c>   4</c></rc>
    <rc><c>I </c><c>   4</c></rc>
    <rc><c>I </c><c>   4</c></rc>
    <rc><c>I </c><c>   4</c></rc>
    <rc><c>I </c><c>   4</c></rc>
    <rc><c>I </c><c>   4</c></rc>
    <rc><c>I </c><c>   4</c></rc>
    <rc><c>I </c><c>   4</c></rc>
    <rc><c>I </c><c>   4</c></rc>
    <rc><c>I </c><c>   4</c></rc>
    <rc><c>I </c><c>   4</c></rc>
    <rc><c>I </c><c>   4</c></rc>
    <rc><c>I </c><c>   4</c></rc>
    <rc><c>I </c><c>   4</c></rc>
    <rc><c>I </c><c>   4</c></rc>
    <rc><c>Pb</c><c>   5</c></rc>
    <rc><c>Pb</c><c>   5</c></rc>
    <rc><c>Pb</c><c>   5</c></rc>
    <rc><c>Pb</c><c>   5</c></rc>
    <rc><c>Pb</c><c>   5</c></rc>
    <rc><c>Pb</c><c>   5</c></rc>
    <rc><c>Pb</c><c>   5</c></rc>
    <rc><c>Pb</c><c>   5</c></rc>
    <rc><c>Pb</c><c>   5</c></rc>
    <rc><c>Pb</c><c>   5</c></rc>
    <rc><c>Pb</c><c>   5</c></rc>
    <rc><c>Pb</c><c>   5</c></rc>
    <rc><c>Pb</c><c>   5</c></rc>
    <rc><c>Pb</c><c>   5</c></rc>
    <rc><c>Pb</c><c>   5</c></rc>
    <rc><c>Pb</c><c>   5</c></rc>
    <rc><c>Pb</c><c>   5</c></rc>
    <rc><c>Pb</c><c>   5</c></rc>
    <rc><c>Pb</c><c>   5</c></rc>
    <rc><c>Pb</c><c>   5</c></rc>
    <rc><c>Pb</c><c>   5</c></rc>
    <rc><c>Pb</c><c>   5</c></rc>
    <rc><c>Pb</c><c>   5</c></rc>
    <rc><c>Pb</c><c>   5</c></rc>
   </set>
  </array>
  <array name="atomtypes" >
   <dimension dim="1">type</dimension>
   <field type="int">atomspertype</field>
   <field type="string">element</field>
   <field>mass</field>
   <field>valence</field>
   <field type="string">pseudopotential</field>
   <set>
    <rc><c> 143</c><c>H </c><c>      1.00000000</c><c>      1.00000000</c><c>  PAW_PBE H 15Jun2001                   </c></rc>
    <rc><c>  39</c><c>C </c><c>     12.01100000</c><c>      4.00000000</c><c>  PAW_PBE C 08Apr2002                   </c></rc>
    <rc><c>  47</c><c>N </c><c>     14.00100000</c><c>      5.00000000</c><c>  PAW_PBE N 08Apr2002                   </c></rc>
    <rc><c>  72</c><c>I </c><c>    126.90400000</c><c>      7.00000000</c><c>  PAW_PBE I 08Apr2002                   </c></rc>
    <rc><c>  24</c><c>Pb</c><c>    207.20000000</c><c>      4.00000000</c><c>  PAW_PBE Pb 08Apr2002                  </c></rc>
   </set>
  </array>
 </atominfo>
 <structure name="initialpos" >
  <crystal>
   <varray name="basis" >
    <v>      18.06080055       0.00000000       0.00000000 </v>
    <v>      -0.00491865      18.06279945       0.00000000 </v>
    <v>       0.00000000       0.00000000      62.48749924 </v>
   </varray>
   <i name="volume">  20385.21054034 </i>
   <varray name="rec_basis" >
    <v>       0.05536853       0.00001508      -0.00000000 </v>
    <v>       0.00000000       0.05536240       0.00000000 </v>
    <v>       0.00000000      -0.00000000       0.01600320 </v>
   </varray>
  </crystal>
  <varray name="positions" >
   <v>       0.43452777       0.27793006       0.58396140 </v>
   <v>       0.42826029       0.77558263       0.58110372 </v>
   <v>       0.94091488       0.29524758       0.58395274 </v>
   <v>       0.95055522       0.80593893       0.58168739 </v>
   <v>       0.30404415       0.05014829       0.58219329 </v>
   <v>       0.30611505       0.56618942       0.57792089 </v>
   <v>       0.77718430       0.06612419       0.58203908 </v>
   <v>       0.09049974       0.17665449       0.56035579 </v>
   <v>       0.08837248       0.67915169       0.55843115 </v>
   <v>       0.59701393       0.18433100       0.55947115 </v>
   <v>       0.60973672       0.71630416       0.55914925 </v>
   <v>       0.35873047       0.04555465       0.55863151 </v>
   <v>       0.30597155       0.59767749       0.55119924 </v>
   <v>       0.82950595       0.08081671       0.55854452 </v>
   <v>       0.06566545       0.21915936       0.58499640 </v>
   <v>       0.03667070       0.69220444       0.58161242 </v>
   <v>       0.54493712       0.18839840       0.58358401 </v>
   <v>       0.55370244       0.70796440       0.58183470 </v>
   <v>       0.23774829       0.44558933       0.58455869 </v>
   <v>       0.18250348       0.98238526       0.58145297 </v>
   <v>       0.69028913       0.95709978       0.58182017 </v>
   <v>       0.41568670       0.31980503       0.55927312 </v>
   <v>       0.40908191       0.82260046       0.55745421 </v>
   <v>       0.89875316       0.29140491       0.55844898 </v>
   <v>       0.94931647       0.85721421       0.55797903 </v>
   <v>       0.19673535       0.40200942       0.56219088 </v>
   <v>       0.15931252       0.93650205       0.55729366 </v>
   <v>       0.68994122       0.90148839       0.55825448 </v>
   <v>       0.51667698       0.26247562       0.54142659 </v>
   <v>       0.52103748       0.78802541       0.54118722 </v>
   <v>       0.98454086       0.21424761       0.54274418 </v>
   <v>       0.04069272       0.78519307       0.54137800 </v>
   <v>       0.23794086       0.49694470       0.53881541 </v>
   <v>       0.27128537       0.97363496       0.54087362 </v>
   <v>       0.77736937       0.97634653       0.54153165 </v>
   <v>       0.43871950       0.29286661       0.67411115 </v>
   <v>       0.43877102       0.81175650       0.67278050 </v>
   <v>       0.94961516       0.29488100       0.67656135 </v>
   <v>       0.94231827       0.79863574       0.67636776 </v>
   <v>       0.30117213       0.05505542       0.67407409 </v>
   <v>       0.30012544       0.55591187       0.67513937 </v>
   <v>       0.80925373       0.04903001       0.67497320 </v>
   <v>       0.80592323       0.55423169       0.67428782 </v>
   <v>       0.08263844       0.17092158       0.64817829 </v>
   <v>       0.08892916       0.68727836       0.65190847 </v>
   <v>       0.57962552       0.17407768       0.64761623 </v>
   <v>       0.57104726       0.66496304       0.65588784 </v>
   <v>       0.17368829       0.41760604       0.65083995 </v>
   <v>       0.17265936       0.91891213       0.65040298 </v>
   <v>       0.66479849       0.41490761       0.65669635 </v>
   <v>       0.66312700       0.93271168       0.65007503 </v>
   <v>       0.05706950       0.19274426       0.67412086 </v>
   <v>       0.04949606       0.70075123       0.67686860 </v>
   <v>       0.54175916       0.18886840       0.67293843 </v>
   <v>       0.53708807       0.70427827       0.67933686 </v>
   <v>       0.19903532       0.44936431       0.67626649 </v>
   <v>       0.19838973       0.95185668       0.67567665 </v>
   <v>       0.70366399       0.44798006       0.68047747 </v>
   <v>       0.69449369       0.95701553       0.67560968 </v>
   <v>       0.42240257       0.33153174       0.64938892 </v>
   <v>       0.42482318       0.83211175       0.64584573 </v>
   <v>       0.92046118       0.32401739       0.65151215 </v>
   <v>       0.92505263       0.83677611       0.65154487 </v>
   <v>       0.32932119       0.07751950       0.64794405 </v>
   <v>       0.32671916       0.57998329       0.64936395 </v>
   <v>       0.83739927       0.07340401       0.64909144 </v>
   <v>       0.81405038       0.57882475       0.64748485 </v>
   <v>       0.99907472       0.25144700       0.63204738 </v>
   <v>       0.01763064       0.77127565       0.63451430 </v>
   <v>       0.50835006       0.26301997       0.63088760 </v>
   <v>       0.50786018       0.74087500       0.63339085 </v>
   <v>       0.25136514       0.99227376       0.63158543 </v>
   <v>       0.24843161       0.49521943       0.63220506 </v>
   <v>       0.74834354       0.00005963       0.63176540 </v>
   <v>       0.73006936       0.49607724       0.63482955 </v>
   <v>       0.44874502       0.30128397       0.76888902 </v>
   <v>       0.44874501       0.80128391       0.76888902 </v>
   <v>       0.94874497       0.30128397       0.76888902 </v>
   <v>       0.94874501       0.80128391       0.76888902 </v>
   <v>       0.30127600       0.05129450       0.76887296 </v>
   <v>       0.30127601       0.55129450       0.76887296 </v>
   <v>       0.80127594       0.05129450       0.76887296 </v>
   <v>       0.80127598       0.55129450       0.76887296 </v>
   <v>       0.07877100       0.17118050       0.74344197 </v>
   <v>       0.07877101       0.67118045       0.74344197 </v>
   <v>       0.57877100       0.17118050       0.74344197 </v>
   <v>       0.57877099       0.67118045       0.74344197 </v>
   <v>       0.17119950       0.42117448       0.74342103 </v>
   <v>       0.17119950       0.92117451       0.74342103 </v>
   <v>       0.67119951       0.42117448       0.74342103 </v>
   <v>       0.67119950       0.92117451       0.74342103 </v>
   <v>       0.05125600       0.19871499       0.76888902 </v>
   <v>       0.05125600       0.69871493       0.76888902 </v>
   <v>       0.55125603       0.19871499       0.76888902 </v>
   <v>       0.55125602       0.69871493       0.76888902 </v>
   <v>       0.19872349       0.44870397       0.76887205 </v>
   <v>       0.19872349       0.94870397       0.76887205 </v>
   <v>       0.69872352       0.44870397       0.76887205 </v>
   <v>       0.69872351       0.94870397       0.76887205 </v>
   <v>       0.42123152       0.32881747       0.74344197 </v>
   <v>       0.42123151       0.82881744       0.74344197 </v>
   <v>       0.92123147       0.32881747       0.74344197 </v>
   <v>       0.92123151       0.82881744       0.74344197 </v>
   <v>       0.32880050       0.07882500       0.74342103 </v>
   <v>       0.32880049       0.57882496       0.74342103 </v>
   <v>       0.82880048       0.07882500       0.74342103 </v>
   <v>       0.82880052       0.57882496       0.74342103 </v>
   <v>       0.00000350       0.25000148       0.72582199 </v>
   <v>       0.00000350       0.75000145       0.72582199 </v>
   <v>       0.50000351       0.25000148       0.72582199 </v>
   <v>       0.50000350       0.75000145       0.72582199 </v>
   <v>       0.25000050       0.00000000       0.72580398 </v>
   <v>       0.25000052       0.50000000       0.72580398 </v>
   <v>       0.75000050       0.00000000       0.72580398 </v>
   <v>       0.75000049       0.50000000       0.72580398 </v>
   <v>       0.77624955       0.51722932       0.52272040 </v>
   <v>       0.86986528       0.51589174       0.53518309 </v>
   <v>       0.76608960       0.63001065       0.54071563 </v>
   <v>       0.77101764       0.63404202       0.56850043 </v>
   <v>       0.68152910       0.46478319       0.56270715 </v>
   <v>       0.67566846       0.56104666       0.56888106 </v>
   <v>       0.80937424       0.43102004       0.57379366 </v>
   <v>       0.87248371       0.50506430       0.57502267 </v>
   <v>       0.85767875       0.39297642       0.54563550 </v>
   <v>       0.76080362       0.38617137       0.54068303 </v>
   <v>       0.77475282       0.39288724       0.50369584 </v>
   <v>       0.86596513       0.43088950       0.50476853 </v>
   <v>       0.89589086       0.63331214       0.53559412 </v>
   <v>       0.91803501       0.61134618       0.56240051 </v>
   <v>       0.87464867       0.69805168       0.55571796 </v>
   <v>       0.59594790       0.53631590       0.53779036 </v>
   <v>       0.66816883       0.48876602       0.52375381 </v>
   <v>       0.66998073       0.58765195       0.52701367 </v>
   <v>       0.73224302       0.48020382       0.60150214 </v>
   <v>       0.75218341       0.57182140       0.59255816 </v>
   <v>       0.81507086       0.52765591       0.60945338 </v>
   <v>       0.83807685       0.27196770       0.52105069 </v>
   <v>       0.84250234       0.29086624       0.49308086 </v>
   <v>       0.93871181       0.18473349       0.50366995 </v>
   <v>       0.97022148       0.41934169       0.51569580 </v>
   <v>       0.07417912       0.16738817       0.50559694 </v>
   <v>       0.10137441       0.40151951       0.51834012 </v>
   <v>       0.15860070       0.27403304       0.51298090 </v>
   <v>       0.99278541       0.23290545       0.55994842 </v>
   <v>       0.02028549       0.76918882       0.55690393 </v>
   <v>       0.50488636       0.25177757       0.55827774 </v>
   <v>       0.50771602       0.76893402       0.55724457 </v>
   <v>       0.25153985       0.50080094       0.55589921 </v>
   <v>       0.25859164       0.99147736       0.55720733 </v>
   <v>       0.75919497       0.99183334       0.55766263 </v>
   <v>       0.00092334       0.24850226       0.64945564 </v>
   <v>       0.00623038       0.76341386       0.65104837 </v>
   <v>       0.50039018       0.25386316       0.64760487 </v>
   <v>       0.49804150       0.75008408       0.65023442 </v>
   <v>       0.25129218       0.49972756       0.64935803 </v>
   <v>       0.25105199       0.99886224       0.64852504 </v>
   <v>       0.73902003       0.49626842       0.65204771 </v>
   <v>       0.75127820       0.00314739       0.64890652 </v>
   <v>       0.49998898       0.24999498       0.74327702 </v>
   <v>       0.49998903       0.74999496       0.74327702 </v>
   <v>       0.99998898       0.24999498       0.74327702 </v>
   <v>       0.99998903       0.74999496       0.74327702 </v>
   <v>       0.25000050       0.00000100       0.74325596 </v>
   <v>       0.25000052       0.50000100       0.74325596 </v>
   <v>       0.75000050       0.00000100       0.74325596 </v>
   <v>       0.75000049       0.50000100       0.74325596 </v>
   <v>       0.94236387       0.30479644       0.50935755 </v>
   <v>       0.97502800       0.23249883       0.50612470 </v>
   <v>       0.99061479       0.36409103       0.51214565 </v>
   <v>       0.05130953       0.22337240       0.50709480 </v>
   <v>       0.06817037       0.35263438       0.51398501 </v>
   <v>       0.09893298       0.28364827       0.51186941 </v>
   <v>       0.81244599       0.49293002       0.53563503 </v>
   <v>       0.79773491       0.61075385       0.55464176 </v>
   <v>       0.69491434       0.52166781       0.55656969 </v>
   <v>       0.81333506       0.49182401       0.57533242 </v>
   <v>       0.81213904       0.41185553       0.53528761 </v>
   <v>       0.82911808       0.38590577       0.51186868 </v>
   <v>       0.87649242       0.63798046       0.55212624 </v>
   <v>       0.65646903       0.53466359       0.53510996 </v>
   <v>       0.77572114       0.51682964       0.59606447 </v>
   <v>       0.86086649       0.31170618       0.50876027 </v>
   <v>       0.05296414       0.20735235       0.56924832 </v>
   <v>       0.04934714       0.71160559       0.56622922 </v>
   <v>       0.54944676       0.20411027       0.56787457 </v>
   <v>       0.55896796       0.72618335       0.56662114 </v>
   <v>       0.44932387       0.28448883       0.56743729 </v>
   <v>       0.44542484       0.78969767       0.56529220 </v>
   <v>       0.94136278       0.27514485       0.56835574 </v>
   <v>       0.97118287       0.81157434       0.56600701 </v>
   <v>       0.22736716       0.44680288       0.56889088 </v>
   <v>       0.19693207       0.96921825       0.56649032 </v>
   <v>       0.70978132       0.94945041       0.56702082 </v>
   <v>       0.30879068       0.03151618       0.56719438 </v>
   <v>       0.28923678       0.55711444       0.56272260 </v>
   <v>       0.78994776       0.04907647       0.56727850 </v>
   <v>       0.05084337       0.20027576       0.65791736 </v>
   <v>       0.05160495       0.71296318       0.66087358 </v>
   <v>       0.54431550       0.20111887       0.65679262 </v>
   <v>       0.53656930       0.70457214       0.66281360 </v>
   <v>       0.20491084       0.45218793       0.65943243 </v>
   <v>       0.20408623       0.95365568       0.65885877 </v>
   <v>       0.70226249       0.45268745       0.66437428 </v>
   <v>       0.69927021       0.96133758       0.65880413 </v>
   <v>       0.45235190       0.29364725       0.65749924 </v>
   <v>       0.45200507       0.79963055       0.65650136 </v>
   <v>       0.95642477       0.28952249       0.66008045 </v>
   <v>       0.95480788       0.80137351       0.66073134 </v>
   <v>       0.29685387       0.04757082       0.65739614 </v>
   <v>       0.29410547       0.54691704       0.65832729 </v>
   <v>       0.80140857       0.04271901       0.65801925 </v>
   <v>       0.78997017       0.54684946       0.65864016 </v>
   <v>       0.04586250       0.20411950       0.75272599 </v>
   <v>       0.04586250       0.70411946       0.75272599 </v>
   <v>       0.54586251       0.20411950       0.75272599 </v>
   <v>       0.54586250       0.70411946       0.75272599 </v>
   <v>       0.20411900       0.45410100       0.75270499 </v>
   <v>       0.20411899       0.95410095       0.75270499 </v>
   <v>       0.70411898       0.45410100       0.75270499 </v>
   <v>       0.70411896       0.95410095       0.75270499 </v>
   <v>       0.45414002       0.29588849       0.75272697 </v>
   <v>       0.45414001       0.79588852       0.75272697 </v>
   <v>       0.95414002       0.29588849       0.75272697 </v>
[...]
   <v>       0.59701393       0.18433100       0.55947115 </v>
   <v>       0.60973672       0.71630416       0.55914925 </v>
   <v>       0.35873047       0.04555465       0.55863151 </v>
   <v>       0.30597155       0.59767749       0.55119924 </v>
   <v>       0.82950595       0.08081671       0.55854452 </v>
   <v>       0.06566545       0.21915936       0.58499640 </v>
   <v>       0.03667070       0.69220444       0.58161242 </v>
   <v>       0.54493712       0.18839840       0.58358401 </v>
   <v>       0.55370244       0.70796440       0.58183470 </v>
   <v>       0.23774829       0.44558933       0.58455869 </v>
   <v>       0.18250348       0.98238526       0.58145297 </v>
   <v>       0.69028913       0.95709978       0.58182017 </v>
   <v>       0.41568670       0.31980503       0.55927312 </v>
   <v>       0.40908191       0.82260046       0.55745421 </v>
   <v>       0.89875316       0.29140491       0.55844898 </v>
   <v>       0.94931647       0.85721421       0.55797903 </v>
   <v>       0.19673535       0.40200942       0.56219088 </v>
   <v>       0.15931252       0.93650205       0.55729366 </v>
   <v>       0.68994122       0.90148839       0.55825448 </v>
   <v>       0.51667698       0.26247562       0.54142659 </v>
   <v>       0.52103748       0.78802541       0.54118722 </v>
   <v>       0.98454086       0.21424761       0.54274418 </v>
   <v>       0.04069272       0.78519307       0.54137800 </v>
   <v>       0.23794086       0.49694470       0.53881541 </v>
   <v>       0.27128537       0.97363496       0.54087362 </v>
   <v>       0.77736937       0.97634653       0.54153165 </v>
   <v>       0.43871950       0.29286661       0.67411115 </v>
   <v>       0.43877102       0.81175650       0.67278050 </v>
   <v>       0.94961516       0.29488100       0.67656135 </v>
   <v>       0.94231827       0.79863574       0.67636776 </v>
   <v>       0.30117213       0.05505542       0.67407409 </v>
   <v>       0.30012544       0.55591187       0.67513937 </v>
   <v>       0.80925373       0.04903001       0.67497320 </v>
   <v>       0.80592323       0.55423169       0.67428782 </v>
   <v>       0.08263844       0.17092158       0.64817829 </v>
   <v>       0.08892916       0.68727836       0.65190847 </v>
   <v>       0.57962552       0.17407768       0.64761623 </v>
   <v>       0.57104726       0.66496304       0.65588784 </v>
   <v>       0.17368829       0.41760604       0.65083995 </v>
   <v>       0.17265936       0.91891213       0.65040298 </v>
   <v>       0.66479849       0.41490761       0.65669635 </v>
   <v>       0.66312700       0.93271168       0.65007503 </v>
   <v>       0.05706950       0.19274426       0.67412086 </v>
   <v>       0.04949606       0.70075123       0.67686860 </v>
   <v>       0.54175916       0.18886840       0.67293843 </v>
   <v>       0.53708807       0.70427827       0.67933686 </v>
   <v>       0.19903532       0.44936431       0.67626649 </v>
   <v>       0.19838973       0.95185668       0.67567665 </v>
   <v>       0.70366399       0.44798006       0.68047747 </v>
   <v>       0.69449369       0.95701553       0.67560968 </v>
   <v>       0.42240257       0.33153174       0.64938892 </v>
   <v>       0.42482318       0.83211175       0.64584573 </v>
   <v>       0.92046118       0.32401739       0.65151215 </v>
   <v>       0.92505263       0.83677611       0.65154487 </v>
   <v>       0.32932119       0.07751950       0.64794405 </v>
   <v>       0.32671916       0.57998329       0.64936395 </v>
   <v>       0.83739927       0.07340401       0.64909144 </v>
   <v>       0.81405038       0.57882475       0.64748485 </v>
   <v>       0.99907472       0.25144700       0.63204738 </v>
   <v>       0.01763064       0.77127565       0.63451430 </v>
   <v>       0.50835006       0.26301997       0.63088760 </v>
   <v>       0.50786018       0.74087500       0.63339085 </v>
   <v>       0.25136514       0.99227376       0.63158543 </v>
   <v>       0.24843161       0.49521943       0.63220506 </v>
   <v>       0.74834354       0.00005963       0.63176540 </v>
   <v>       0.73006936       0.49607724       0.63482955 </v>
   <v>       0.44874502       0.30128397       0.76888902 </v>
   <v>       0.44874501       0.80128391       0.76888902 </v>
   <v>       0.94874497       0.30128397       0.76888902 </v>
   <v>       0.94874501       0.80128391       0.76888902 </v>
   <v>       0.30127600       0.05129450       0.76887296 </v>
   <v>       0.30127601       0.55129450       0.76887296 </v>
   <v>       0.80127594       0.05129450       0.76887296 </v>
   <v>       0.80127598       0.55129450       0.76887296 </v>
   <v>       0.07877100       0.17118050       0.74344197 </v>
   <v>       0.07877101       0.67118045       0.74344197 </v>
   <v>       0.57877100       0.17118050       0.74344197 </v>
   <v>       0.57877099       0.67118045       0.74344197 </v>
   <v>       0.17119950       0.42117448       0.74342103 </v>
   <v>       0.17119950       0.92117451       0.74342103 </v>
   <v>       0.67119951       0.42117448       0.74342103 </v>
   <v>       0.67119950       0.92117451       0.74342103 </v>
   <v>       0.05125600       0.19871499       0.76888902 </v>
   <v>       0.05125600       0.69871493       0.76888902 </v>
   <v>       0.55125603       0.19871499       0.76888902 </v>
   <v>       0.55125602       0.69871493       0.76888902 </v>
   <v>       0.19872349       0.44870397       0.76887205 </v>
   <v>       0.19872349       0.94870397       0.76887205 </v>
   <v>       0.69872352       0.44870397       0.76887205 </v>
   <v>       0.69872351       0.94870397       0.76887205 </v>
   <v>       0.42123152       0.32881747       0.74344197 </v>
   <v>       0.42123151       0.82881744       0.74344197 </v>
   <v>       0.92123147       0.32881747       0.74344197 </v>
   <v>       0.92123151       0.82881744       0.74344197 </v>
   <v>       0.32880050       0.07882500       0.74342103 </v>
   <v>       0.32880049       0.57882496       0.74342103 </v>
   <v>       0.82880048       0.07882500       0.74342103 </v>
   <v>       0.82880052       0.57882496       0.74342103 </v>
   <v>       0.00000350       0.25000148       0.72582199 </v>
   <v>       0.00000350       0.75000145       0.72582199 </v>
   <v>       0.50000351       0.25000148       0.72582199 </v>
   <v>       0.50000350       0.75000145       0.72582199 </v>
   <v>       0.25000050       0.00000000       0.72580398 </v>
   <v>       0.25000052       0.50000000       0.72580398 </v>
   <v>       0.75000050       0.00000000       0.72580398 </v>
   <v>       0.75000049       0.50000000       0.72580398 </v>
   <v>       0.77624955       0.51722932       0.52272040 </v>
   <v>       0.86986528       0.51589174       0.53518309 </v>
   <v>       0.76608960       0.63001065       0.54071563 </v>
   <v>       0.77101764       0.63404202       0.56850043 </v>
   <v>       0.68152910       0.46478319       0.56270715 </v>
   <v>       0.67566846       0.56104666       0.56888106 </v>
   <v>       0.80937424       0.43102004       0.57379366 </v>
   <v>       0.87248371       0.50506430       0.57502267 </v>
   <v>       0.85767875       0.39297642       0.54563550 </v>
   <v>       0.76080362       0.38617137       0.54068303 </v>
   <v>       0.77475282       0.39288724       0.50369584 </v>
   <v>       0.86596513       0.43088950       0.50476853 </v>
   <v>       0.89589086       0.63331214       0.53559412 </v>
   <v>       0.91803501       0.61134618       0.56240051 </v>
   <v>       0.87464867       0.69805168       0.55571796 </v>
   <v>       0.59594790       0.53631590       0.53779036 </v>
   <v>       0.66816883       0.48876602       0.52375381 </v>
   <v>       0.66998073       0.58765195       0.52701367 </v>
   <v>       0.73224302       0.48020382       0.60150214 </v>
   <v>       0.75218341       0.57182140       0.59255816 </v>
   <v>       0.81507086       0.52765591       0.60945338 </v>
   <v>       0.83807685       0.27196770       0.52105069 </v>
   <v>       0.84250234       0.29086624       0.49308086 </v>
   <v>       0.93871181       0.18473349       0.50366995 </v>
   <v>       0.97022148       0.41934169       0.51569580 </v>
   <v>       0.07417912       0.16738817       0.50559694 </v>
   <v>       0.10137441       0.40151951       0.51834012 </v>
   <v>       0.15860070       0.27403304       0.51298090 </v>
   <v>       0.99278541       0.23290545       0.55994842 </v>
   <v>       0.02028549       0.76918882       0.55690393 </v>
   <v>       0.50488636       0.25177757       0.55827774 </v>
   <v>       0.50771602       0.76893402       0.55724457 </v>
   <v>       0.25153985       0.50080094       0.55589921 </v>
   <v>       0.25859164       0.99147736       0.55720733 </v>
   <v>       0.75919497       0.99183334       0.55766263 </v>
   <v>       0.00092334       0.24850226       0.64945564 </v>
   <v>       0.00623038       0.76341386       0.65104837 </v>
   <v>       0.50039018       0.25386316       0.64760487 </v>
   <v>       0.49804150       0.75008408       0.65023442 </v>
   <v>       0.25129218       0.49972756       0.64935803 </v>
   <v>       0.25105199       0.99886224       0.64852504 </v>
   <v>       0.73902003       0.49626842       0.65204771 </v>
   <v>       0.75127820       0.00314739       0.64890652 </v>
   <v>       0.49998898       0.24999498       0.74327702 </v>
   <v>       0.49998903       0.74999496       0.74327702 </v>
   <v>       0.99998898       0.24999498       0.74327702 </v>
   <v>       0.99998903       0.74999496       0.74327702 </v>
   <v>       0.25000050       0.00000100       0.74325596 </v>
   <v>       0.25000052       0.50000100       0.74325596 </v>
   <v>       0.75000050       0.00000100       0.74325596 </v>
   <v>       0.75000049       0.50000100       0.74325596 </v>
   <v>       0.94236387       0.30479644       0.50935755 </v>
   <v>       0.97502800       0.23249883       0.50612470 </v>
   <v>       0.99061479       0.36409103       0.51214565 </v>
   <v>       0.05130953       0.22337240       0.50709480 </v>
   <v>       0.06817037       0.35263438       0.51398501 </v>
   <v>       0.09893298       0.28364827       0.51186941 </v>
   <v>       0.81244599       0.49293002       0.53563503 </v>
   <v>       0.79773491       0.61075385       0.55464176 </v>
   <v>       0.69491434       0.52166781       0.55656969 </v>
   <v>       0.81333506       0.49182401       0.57533242 </v>
   <v>       0.81213904       0.41185553       0.53528761 </v>
   <v>       0.82911808       0.38590577       0.51186868 </v>
   <v>       0.87649242       0.63798046       0.55212624 </v>
   <v>       0.65646903       0.53466359       0.53510996 </v>
   <v>       0.77572114       0.51682964       0.59606447 </v>
   <v>       0.86086649       0.31170618       0.50876027 </v>
   <v>       0.05296414       0.20735235       0.56924832 </v>
   <v>       0.04934714       0.71160559       0.56622922 </v>
   <v>       0.54944676       0.20411027       0.56787457 </v>
   <v>       0.55896796       0.72618335       0.56662114 </v>
   <v>       0.44932387       0.28448883       0.56743729 </v>
   <v>       0.44542484       0.78969767       0.56529220 </v>
   <v>       0.94136278       0.27514485       0.56835574 </v>
   <v>       0.97118287       0.81157434       0.56600701 </v>
   <v>       0.22736716       0.44680288       0.56889088 </v>
   <v>       0.19693207       0.96921825       0.56649032 </v>
   <v>       0.70978132       0.94945041       0.56702082 </v>
   <v>       0.30879068       0.03151618       0.56719438 </v>
   <v>       0.28923678       0.55711444       0.56272260 </v>
   <v>       0.78994776       0.04907647       0.56727850 </v>
   <v>       0.05084337       0.20027576       0.65791736 </v>
   <v>       0.05160495       0.71296318       0.66087358 </v>
   <v>       0.54431550       0.20111887       0.65679262 </v>
   <v>       0.53656930       0.70457214       0.66281360 </v>
   <v>       0.20491084       0.45218793       0.65943243 </v>
   <v>       0.20408623       0.95365568       0.65885877 </v>
   <v>       0.70226249       0.45268745       0.66437428 </v>
   <v>       0.69927021       0.96133758       0.65880413 </v>
   <v>       0.45235190       0.29364725       0.65749924 </v>
   <v>       0.45200507       0.79963055       0.65650136 </v>
   <v>       0.95642477       0.28952249       0.66008045 </v>
   <v>       0.95480788       0.80137351       0.66073134 </v>
   <v>       0.29685387       0.04757082       0.65739614 </v>
   <v>       0.29410547       0.54691704       0.65832729 </v>
   <v>       0.80140857       0.04271901       0.65801925 </v>
   <v>       0.78997017       0.54684946       0.65864016 </v>
   <v>       0.04586250       0.20411950       0.75272599 </v>
   <v>       0.04586250       0.70411946       0.75272599 </v>
   <v>       0.54586251       0.20411950       0.75272599 </v>
   <v>       0.54586250       0.70411946       0.75272599 </v>
   <v>       0.20411900       0.45410100       0.75270499 </v>
   <v>       0.20411899       0.95410095       0.75270499 </v>
   <v>       0.70411898       0.45410100       0.75270499 </v>
   <v>       0.70411896       0.95410095       0.75270499 </v>
   <v>       0.45414002       0.29588849       0.75272697 </v>
   <v>       0.45414001       0.79588852       0.75272697 </v>
   <v>       0.95414002       0.29588849       0.75272697 </v>
   <v>       0.95414006       0.79588852       0.75272697 </v>
   <v>       0.29588249       0.04590050       0.75270499 </v>
   <v>       0.29588248       0.54590053       0.75270499 </v>
   <v>       0.79588244       0.04590050       0.75270499 </v>
   <v>       0.79588248       0.54590053       0.75270499 </v>
   <v>       0.78161845       0.52944417       0.55582638 </v>
   <v>       0.49604315       0.00150556       0.55227629 </v>
   <v>       0.47176179       0.48089927       0.55553274 </v>
   <v>       0.99464655       0.00403306       0.55098148 </v>
   <v>       0.02446790       0.49547122       0.55838439 </v>
   <v>       0.25874649       0.24558083       0.55429080 </v>
   <v>       0.24555513       0.75887374       0.55143610 </v>
   <v>       0.73623439       0.22891458       0.55544233 </v>
   <v>       0.72424529       0.77587148       0.54654553 </v>
   <v>       0.00487959       0.00337846       0.65432167 </v>
   <v>       0.00479909       0.50202796       0.65660350 </v>
   <v>       0.50473160       0.00437135       0.65415983 </v>
   <v>       0.50141722       0.49995834       0.65551166 </v>
   <v>       0.24736728       0.24803212       0.65526436 </v>
   <v>       0.24757780       0.75153332       0.65459101 </v>
   <v>       0.74127599       0.24917155       0.65590249 </v>
   <v>       0.74856779       0.75890198       0.65316262 </v>
   <v>       0.14568804       0.10263219       0.60907214 </v>
   <v>       0.14903540       0.60508533       0.60907190 </v>
   <v>       0.64091456       0.10532297       0.60921810 </v>
   <v>       0.61790650       0.63336921       0.61429486 </v>
   <v>       0.35663105       0.38892575       0.61109140 </v>
   <v>       0.35686872       0.89168678       0.60847687 </v>
   <v>       0.88218513       0.37027264       0.61413425 </v>
   <v>       0.85542728       0.89541018       0.60776200 </v>
   <v>       0.11158047       0.35409624       0.61012838 </v>
   <v>       0.10841032       0.85834271       0.60783624 </v>
   <v>       0.61531881       0.36501832       0.60679306 </v>
   <v>       0.60939763       0.86236737       0.61014291 </v>
   <v>       0.39392830       0.14002316       0.61011788 </v>
   <v>       0.38787600       0.64565925       0.60621024 </v>
   <v>       0.89124873       0.13518482       0.60989555 </v>
   <v>       0.91140110       0.66216688       0.61360466 </v>
   <v>       0.00000000       0.00000000       0.75492797 </v>
   <v>       0.00000000       0.50000000       0.75492797 </v>
   <v>       0.50000000       0.00000000       0.75492797 </v>
   <v>       0.49999999       0.50000000       0.75492797 </v>
   <v>       0.25000050       0.25000000       0.75493902 </v>
   <v>       0.25000051       0.74999997       0.75493902 </v>
   <v>       0.75000047       0.25000000       0.75493902 </v>
   <v>       0.75000046       0.74999997       0.75493902 </v>
   <v>       0.13579050       0.11421000       0.70478299 </v>
   <v>       0.13579050       0.61420998       0.70478299 </v>
   <v>       0.63579045       0.11421000       0.70478299 </v>
   <v>       0.63579049       0.61420998       0.70478299 </v>
   <v>       0.36420952       0.38578999       0.70478299 </v>
   <v>       0.36420950       0.88578996       0.70478299 </v>
   <v>       0.86420954       0.38578999       0.70478299 </v>
   <v>       0.86420953       0.88578996       0.70478299 </v>
   <v>       0.11421799       0.36421899       0.70478098 </v>
   <v>       0.11421799       0.86421899       0.70478098 </v>
   <v>       0.61421800       0.36421899       0.70478098 </v>
   <v>       0.61421799       0.86421899       0.70478098 </v>
   <v>       0.38578201       0.13578149       0.70478202 </v>
   <v>       0.38578200       0.63578149       0.70478202 </v>
   <v>       0.88578199       0.13578149       0.70478202 </v>
   <v>       0.88578203       0.63578149       0.70478202 </v>
   <v>       0.13466700       0.11533200       0.80125603 </v>
   <v>       0.13466699       0.61533199       0.80125603 </v>
   <v>       0.63466699       0.11533200       0.80125603 </v>
   <v>       0.63466698       0.61533199       0.80125603 </v>
   <v>       0.36533300       0.38466799       0.80125603 </v>
   <v>       0.36533299       0.88466796       0.80125603 </v>
   <v>       0.86533295       0.38466799       0.80125603 </v>
   <v>       0.86533294       0.88466796       0.80125603 </v>
   <v>       0.11532850       0.36533700       0.80126500 </v>
   <v>       0.11532850       0.86533698       0.80126500 </v>
   <v>       0.61532850       0.36533700       0.80126500 </v>
   <v>       0.61532849       0.86533698       0.80126500 </v>
   <v>       0.38467151       0.13466300       0.80126500 </v>
   <v>       0.38467150       0.63466297       0.80126500 </v>
   <v>       0.88467149       0.13466300       0.80126500 </v>
   <v>       0.88467153       0.63466297       0.80126500 </v>
   <v>       0.99922486       0.00282808       0.60269245 </v>
   <v>       0.01029031       0.50300799       0.60720378 </v>
   <v>       0.50059468       0.00157277       0.60218075 </v>
   <v>       0.49993087       0.49671044       0.60365956 </v>
   <v>       0.25586105       0.24783643       0.60443291 </v>
   <v>       0.25012911       0.75590909       0.60335432 </v>
   <v>       0.74855889       0.25121039       0.60598668 </v>
   <v>       0.74907698       0.75816878       0.60477288 </v>
   <v>       0.00000050       0.00000050       0.70482896 </v>
   <v>       0.00000050       0.50000048       0.70482896 </v>
   <v>       0.50000048       0.00000050       0.70482896 </v>
   <v>       0.50000046       0.50000048       0.70482896 </v>
   <v>       0.24999999       0.24999947       0.70482499 </v>
   <v>       0.25000001       0.74999950       0.70482499 </v>
   <v>       0.74999999       0.24999947       0.70482499 </v>
   <v>       0.74999998       0.74999950       0.70482499 </v>
   <v>       0.00000000       0.00000000       0.80731797 </v>
   <v>       0.00000000       0.50000000       0.80731797 </v>
   <v>       0.50000000       0.00000000       0.80731797 </v>
   <v>       0.49999999       0.50000000       0.80731797 </v>
   <v>       0.24999999       0.25000000       0.80731797 </v>
   <v>       0.25000001       0.74999997       0.80731797 </v>
   <v>       0.74999999       0.25000000       0.80731797 </v>
   <v>       0.74999998       0.74999997       0.80731797 </v>
  </varray>
 </structure>
</modeling>
