 vasp.6.2.1 16May21 (build Nov 15 2021 14:57:28) complex                         
 executed on             LinuxPGI date 2023.07.30  11:22:12
 running on    4 total cores
 distrk:  each k-point on    4 cores,    1 groups
 distr:  one band on NCORE=   1 cores,    4 groups


--------------------------------------------------------------------------------------------------------


 INCAR:
   SYSTEM = PSC
   ISTART = 1
   ICHARG = 1
   PREC = Normal
   ENCUT = 500
   GGA_COMPAT = F
   NELM = 600
   ISYM = 0
   LREAL = Auto
   ISMEAR = 0
   SIGMA = 0.05
   AMIN = 0.01
   BMIX = 0.01
   LVTOT = T
   LWAVE = F
   LDIPOL = T
   IDIPOL = 3
   LVDW = T
   IVDW = 12

 POTCAR:    PAW_PBE H 15Jun2001                   
 POTCAR:    PAW_PBE C 08Apr2002                   
 POTCAR:    PAW_PBE N 08Apr2002                   
 POTCAR:    PAW_PBE I 08Apr2002                   
 POTCAR:    PAW_PBE Pb 08Apr2002                  
 WARNING: For LVTOT=.TRUE., VASP.5.x writes the TOTAL local potential to the
     file LOCPOT. If you want only the Hartree contributions, use LVHAR=.TRUE.
     instead. 

 POTCAR:    PAW_PBE H 15Jun2001                   
   SHA256 =  030f79b5d3ab3cf0e668861823c8fb652ff669f3e15e46930bd03bfd63a607b6 H/POTCAR              
   COPYR  = (c) Copyright 15Jun2001 Georg Kresse                                                    
   COPYR  = This file is part of the software VASP. Any use, copying, and all other rights are regul
   COPYR  = If you do not have a valid VASP license, you may not use, copy or distribute this file. 
   VRHFIN =H: ultrasoft test                                                                        
   LEXCH  = PE                                                                                      
   EATOM  =    12.4884 eV,    0.9179 Ry                                                             
                                                                                                    
   TITEL  = PAW_PBE H 15Jun2001                                                                     
   LULTRA =        F    use ultrasoft PP ?                                                          
   IUNSCR =        0    unscreen: 0-lin 1-nonlin 2-no                                               
   RPACOR =    0.000    partial core radius                                                         
   POMASS =    1.000; ZVAL   =    1.000    mass and valenz                                          
   RCORE  =    1.100    outmost cutoff radius                                                       
   RWIGS  =    0.700; RWIGS  =    0.370    wigner-seitz radius (au A)                               
   ENMAX  =  250.000; ENMIN  =  200.000 eV                                                          
   RCLOC  =    0.701    cutoff for local pot                                                        
   LCOR   =        T    correct aug charges                                                         
   LPAW   =        T    paw PP                                                                      
   EAUG   =  400.000                                                                                
   RMAX   =    1.123    core radius for proj-oper                                                   
   RAUG   =    1.200    factor for augmentation sphere                                              
   RDEP   =    1.112    radius for radial grids                                                     
   RDEPT  =    0.926    core radius for aug-charge                                                  
                                                                                                    
   Atomic configuration                                                                             
    2 entries                                                                                       
     n  l   j            E        occ.                                                              
     1  0  0.50        -6.4927   1.0000                                                             
     2  1  0.50        -3.4015   0.0000                                                             
   Description                                                                                      
     l       E           TYP  RCUT    TYP  RCUT                                                     
     0     -6.4927494     23  1.100                                                                 
     0      6.8029130     23  1.100                                                                 
     1     -4.0817478     23  1.100                                                                 
  local pseudopotential read in
  atomic valenz-charges read in
  non local Contribution for L=            0  read in
    real space projection operators read in
  non local Contribution for L=            0  read in
    real space projection operators read in
  non local Contribution for L=            1  read in
    real space projection operators read in
    PAW grid and wavefunctions read in
 
   number of l-projection  operators is LMAX  =            3
   number of lm-projection operators is LMMAX =            5
 
 POTCAR:    PAW_PBE C 08Apr2002                   
   SHA256 =  253f7b50bb8d59471dbedb8285d89021f4a42ed1a2c5d38a03a736e69125dd95 C/POTCAR              
   COPYR  = (c) Copyright 08Apr2002 Georg Kresse                                                    
   COPYR  = This file is part of the software VASP. Any use, copying, and all other rights are regul
   COPYR  = If you do not have a valid VASP license, you may not use, copy or distribute this file. 
   VRHFIN =C: s2p2                                                                                  
   LEXCH  = PE                                                                                      
   EATOM  =   147.1560 eV,   10.8157 Ry                                                             
                                                                                                    
   TITEL  = PAW_PBE C 08Apr2002                                                                     
   LULTRA =        F    use ultrasoft PP ?                                                          
   IUNSCR =        1    unscreen: 0-lin 1-nonlin 2-no                                               
   RPACOR =    1.200    partial core radius                                                         
   POMASS =   12.011; ZVAL   =    4.000    mass and valenz                                          
   RCORE  =    1.500    outmost cutoff radius                                                       
   RWIGS  =    1.630; RWIGS  =    0.863    wigner-seitz radius (au A)                               
   ENMAX  =  400.000; ENMIN  =  300.000 eV                                                          
   ICORE  =        2    local potential                                                             
   LCOR   =        T    correct aug charges                                                         
   LPAW   =        T    paw PP                                                                      
   EAUG   =  644.873                                                                                
   DEXC   =    0.000                                                                                
   RMAX   =    1.529    core radius for proj-oper                                                   
   RAUG   =    1.300    factor for augmentation sphere                                              
   RDEP   =    1.501    radius for radial grids                                                     
   RDEPT  =    1.300    core radius for aug-charge                                                  
                                                                                                    
   Atomic configuration                                                                             
    4 entries                                                                                       
     n  l   j            E        occ.                                                              
     1  0  0.50      -273.3789   2.0000                                                             
     2  0  0.50       -13.7508   2.0000                                                             
     2  1  0.50        -5.2854   2.0000                                                             
     3  2  1.50        -5.4423   0.0000                                                             
   Description                                                                                      
     l       E           TYP  RCUT    TYP  RCUT                                                     
     0    -13.7508458     23  1.200                                                                 
     0     -8.2022199     23  1.200                                                                 
     1     -5.2854383     23  1.500                                                                 
     1     34.0145650     23  1.500                                                                 
     2     -5.4423304      7  1.500                                                                 
  local pseudopotential read in
  partial core-charges read in
  partial kinetic energy density read in
  atomic valenz-charges read in
  non local Contribution for L=            0  read in
    real space projection operators read in
  non local Contribution for L=            0  read in
    real space projection operators read in
  non local Contribution for L=            1  read in
    real space projection operators read in
  non local Contribution for L=            1  read in
    real space projection operators read in
    PAW grid and wavefunctions read in
 
   number of l-projection  operators is LMAX  =            4
   number of lm-projection operators is LMMAX =            8
 
 POTCAR:    PAW_PBE N 08Apr2002                   
   SHA256 =  e053789ff3a61a86a1b75d8a110fcc91f86041011e7b0817c7c99e4e8a6349d7 N/POTCAR              
   COPYR  = (c) Copyright 08Apr2002 Georg Kresse                                                    
   COPYR  = This file is part of the software VASP. Any use, copying, and all other rights are regul
   COPYR  = If you do not have a valid VASP license, you may not use, copy or distribute this file. 
   VRHFIN =N: s2p3                                                                                  
   LEXCH  = PE                                                                                      
   EATOM  =   264.5486 eV,   19.4438 Ry                                                             
                                                                                                    
   TITEL  = PAW_PBE N 08Apr2002                                                                     
   LULTRA =        F    use ultrasoft PP ?                                                          
   IUNSCR =        1    unscreen: 0-lin 1-nonlin 2-no                                               
   RPACOR =    1.200    partial core radius                                                         
   POMASS =   14.001; ZVAL   =    5.000    mass and valenz                                          
   RCORE  =    1.500    outmost cutoff radius                                                       
   RWIGS  =    1.400; RWIGS  =    0.741    wigner-seitz radius (au A)                               
   ENMAX  =  400.000; ENMIN  =  300.000 eV                                                          
   ICORE  =        2    local potential                                                             
   LCOR   =        T    correct aug charges                                                         
   LPAW   =        T    paw PP                                                                      
   EAUG   =  627.112                                                                                
   DEXC   =    0.000                                                                                
   RMAX   =    1.529    core radius for proj-oper                                                   
   RAUG   =    1.300    factor for augmentation sphere                                              
   RDEP   =    1.514    radius for radial grids                                                     
   RDEPT  =    1.338    core radius for aug-charge                                                  
                                                                                                    
   Atomic configuration                                                                             
    4 entries                                                                                       
     n  l   j            E        occ.                                                              
     1  0  0.50      -384.7179   2.0000                                                             
     2  0  0.50       -18.5828   2.0000                                                             
     2  1  0.50        -7.0898   3.0000                                                             
     3  2  1.50        -6.8029   0.0000                                                             
   Description                                                                                      
     l       E           TYP  RCUT    TYP  RCUT                                                     
     0    -18.5828119     23  1.200                                                                 
     0    -13.5018863     23  1.200                                                                 
     1     -7.0897853     23  1.500                                                                 
     1      9.5240782     23  1.500                                                                 
     2     -6.8029130      7  1.500                                                                 
  local pseudopotential read in
  partial core-charges read in
  partial kinetic energy density read in
  atomic valenz-charges read in
  non local Contribution for L=            0  read in
    real space projection operators read in
  non local Contribution for L=            0  read in
    real space projection operators read in
  non local Contribution for L=            1  read in
    real space projection operators read in
  non local Contribution for L=            1  read in
    real space projection operators read in
    PAW grid and wavefunctions read in
 
   number of l-projection  operators is LMAX  =            4
   number of lm-projection operators is LMMAX =            8
 
 POTCAR:    PAW_PBE I 08Apr2002                   
   SHA256 =  e40f3f59b681c1fc3e3091736183c4589116986673d2b852a5012aec72758799 I/POTCAR              
   COPYR  = (c) Copyright 08Apr2002 Georg Kresse                                                    
   COPYR  = This file is part of the software VASP. Any use, copying, and all other rights are regul
   COPYR  = If you do not have a valid VASP license, you may not use, copy or distribute this file. 
   VRHFIN =I : s2p5                                                                                 
   LEXCH  = PE                                                                                      
   EATOM  =   315.8678 eV,   23.2156 Ry                                                             
                                                                                                    
   TITEL  = PAW_PBE I 08Apr2002                                                                     
   LULTRA =        F    use ultrasoft PP ?                                                          
   IUNSCR =        1    unscreen: 0-lin 1-nonlin 2-no                                               
   RPACOR =    2.200    partial core radius                                                         
   POMASS =  126.904; ZVAL   =    7.000    mass and valenz                                          
   RCORE  =    2.300    outmost cutoff radius                                                       
   RWIGS  =    2.810; RWIGS  =    1.487    wigner-seitz radius (au A)                               
   ENMAX  =  175.647; ENMIN  =  131.735 eV                                                          
   ICORE  =        3    local potential                                                             
   LCOR   =        T    correct aug charges                                                         
   LPAW   =        T    paw PP                                                                      
   EAUG   =  370.139                                                                                
   DEXC   =    0.000                                                                                
   RMAX   =    2.359    core radius for proj-oper                                                   
   RAUG   =    1.300    factor for augmentation sphere                                              
   RDEP   =    2.392    radius for radial grids                                                     
   RDEPT  =    2.170    core radius for aug-charge                                                  
                                                                                                    
   Atomic configuration                                                                             
   13 entries                                                                                       
     n  l   j            E        occ.                                                              
     1  0  0.50    -32976.3739   2.0000                                                             
     2  0  0.50     -5094.5933   2.0000                                                             
     2  1  1.50     -4572.0131   6.0000                                                             
     3  0  0.50     -1028.2813   2.0000                                                             
     3  1  1.50      -859.0250   6.0000                                                             
     3  2  2.50      -605.7620  10.0000                                                             
     4  0  0.50      -180.5540   2.0000                                                             
     4  1  1.50      -127.5306   6.0000                                                             
     4  2  2.50       -50.2720  10.0000                                                             
     5  0  0.50       -17.4058   2.0000                                                             
     5  1  0.50        -7.0851   5.0000                                                             
     5  2  1.50        -7.0750   0.0000                                                             
     4  3  2.50        -7.0750   0.0000                                                             
   Description                                                                                      
     l       E           TYP  RCUT    TYP  RCUT                                                     
     0    -17.4058016     23  2.300                                                                 
     0    -18.7663842     23  2.300                                                                 
     1     -7.0850686     23  2.300                                                                 
     1     -4.2150896     23  2.300                                                                 
     2     -7.0750295     23  2.300                                                                 
     3     -1.3605826     23  2.300                                                                 
  local pseudopotential read in
  partial core-charges read in
  partial kinetic energy density read in
  atomic valenz-charges read in
  non local Contribution for L=            0  read in
    real space projection operators read in
  non local Contribution for L=            0  read in
    real space projection operators read in
  non local Contribution for L=            1  read in
    real space projection operators read in
  non local Contribution for L=            1  read in
    real space projection operators read in
  non local Contribution for L=            2  read in
    real space projection operators read in
    PAW grid and wavefunctions read in
 
   number of l-projection  operators is LMAX  =            5
   number of lm-projection operators is LMMAX =           13
 
 POTCAR:    PAW_PBE Pb 08Apr2002                  
   SHA256 =  797118a27cf1bcd06b9881c67a26cdde129e3cd1a551dd4a281f9681ce847303 Pb/POTCAR             
   COPYR  = (c) Copyright 08Apr2002 Georg Kresse                                                    
   COPYR  = This file is part of the software VASP. Any use, copying, and all other rights are regul
   COPYR  = If you do not have a valid VASP license, you may not use, copy or distribute this file. 
   VRHFIN =Pb:                                                                                      
   LEXCH  = PE                                                                                      
   EATOM  =    96.9868 eV,    7.1283 Ry                                                             
                                                                                                    
   TITEL  = PAW_PBE Pb 08Apr2002                                                                    
   LULTRA =        F    use ultrasoft PP ?                                                          
   IUNSCR =        1    unscreen: 0-lin 1-nonlin 2-no                                               
   RPACOR =    2.200    partial core radius                                                         
   POMASS =  207.200; ZVAL   =    4.000    mass and valenz                                          
   RCORE  =    3.100    outmost cutoff radius                                                       
   RWIGS  =    3.260; RWIGS  =    1.725    wigner-seitz radius (au A)                               
   ENMAX  =   97.973; ENMIN  =   73.480 eV                                                          
   ICORE  =        3    local potential                                                             
   LCOR   =        T    correct aug charges                                                         
   LPAW   =        T    paw PP                                                                      
   EAUG   =  234.873                                                                                
   DEXC   =    0.000                                                                                
   RMAX   =    3.158    core radius for proj-oper                                                   
   RAUG   =    1.300    factor for augmentation sphere                                              
   RDEP   =    3.202    radius for radial grids                                                     
   RDEPT  =    2.659    core radius for aug-charge                                                  
                                                                                                    
   Atomic configuration                                                                             
   17 entries                                                                                       
     n  l   j            E        occ.                                                              
     1  0  0.50    -88091.8466   2.0000                                                             
     2  0  0.50    -15753.4197   2.0000                                                             
     2  1  1.50    -13508.1797   6.0000                                                             
     3  0  0.50     -3781.7194   2.0000                                                             
     3  1  1.50     -3138.2529   6.0000                                                             
     3  2  2.50     -2483.2977  10.0000                                                             
     4  0  0.50      -856.2895   2.0000                                                             
     4  1  1.50      -645.4943   6.0000                                                             
     4  2  2.50      -401.8768  10.0000                                                             
     4  3  3.50      -132.9059  14.0000                                                             
     5  0  0.50      -144.0950   2.0000                                                             
     5  1  1.50       -85.7879   6.0000                                                             
     5  2  2.50       -21.1769  10.0000                                                             
     6  0  0.50       -12.0372   2.0000                                                             
     6  1  1.50        -3.4971   2.0000                                                             
     6  2  2.50        -1.3606   0.0000                                                             
     5  3  2.50        -2.7212   0.0000                                                             
   Description                                                                                      
     l       E           TYP  RCUT    TYP  RCUT                                                     
     0    -12.0371566     23  3.100                                                                 
     0    -13.3977392     23  3.100                                                                 
     1     -3.4971341     23  3.100                                                                 
     1     -5.4423304     23  3.100                                                                 
     2     -1.3605826     23  3.100                                                                 
     3     -1.3605826     23  3.100                                                                 
  local pseudopotential read in
  partial core-charges read in
  partial kinetic energy density read in
  atomic valenz-charges read in
  non local Contribution for L=            0  read in
    real space projection operators read in
  non local Contribution for L=            0  read in
    real space projection operators read in
  non local Contribution for L=            1  read in
    real space projection operators read in
  non local Contribution for L=            1  read in
    real space projection operators read in
  non local Contribution for L=            2  read in
    real space projection operators read in
    PAW grid and wavefunctions read in
 
   number of l-projection  operators is LMAX  =            5
   number of lm-projection operators is LMMAX =           13
 
 Optimization of the real space projectors (new method)

 maximal supplied QI-value         = 34.20
 optimisation between [QCUT,QGAM] = [ 11.29, 22.57] = [ 35.68,142.71] Ry 
 Optimized for a Real-space Cutoff    1.16 Angstroem

   l    n(q)    QCUT    max X(q) W(low)/X(q) W(high)/X(q)  e(spline) 
   0      8    11.287    19.460    0.40E-03    0.73E-03    0.16E-06
   0      8    11.287    12.209    0.38E-03    0.70E-03    0.15E-06
   1      7    11.287     4.655    0.22E-03    0.25E-04    0.22E-06
 Optimization of the real space projectors (new method)

 maximal supplied QI-value         = 25.13
 optimisation between [QCUT,QGAM] = [ 11.31, 22.87] = [ 35.82,146.48] Ry 
 Optimized for a Real-space Cutoff    1.00 Angstroem

   l    n(q)    QCUT    max X(q) W(low)/X(q) W(high)/X(q)  e(spline) 
   0      7    11.310   115.676    0.43E-03    0.13E-02    0.19E-06
   0      7    11.310    87.132    0.43E-03    0.13E-02    0.18E-06
   1      6    11.310     4.429    0.42E-03    0.74E-03    0.11E-06
   1      6    11.310     2.733    0.34E-03    0.55E-03    0.92E-07
 Optimization of the real space projectors (new method)

 maximal supplied QI-value         = 25.13
 optimisation between [QCUT,QGAM] = [ 11.31, 22.87] = [ 35.82,146.48] Ry 
 Optimized for a Real-space Cutoff    1.27 Angstroem

   l    n(q)    QCUT    max X(q) W(low)/X(q) W(high)/X(q)  e(spline) 
   0      9    11.310    79.467    0.75E-04    0.16E-03    0.36E-06
   0      9    11.310    66.151    0.74E-04    0.16E-03    0.36E-06
   1      8    11.310    17.416    0.35E-03    0.12E-03    0.95E-06
   1      8    11.310    12.382    0.37E-03    0.13E-03    0.98E-06
 Optimization of the real space projectors (new method)

 maximal supplied QI-value         = 16.25
 optimisation between [QCUT,QGAM] = [ 11.38, 22.75] = [ 36.24,144.96] Ry 
 Optimized for a Real-space Cutoff    1.31 Angstroem

   l    n(q)    QCUT    max X(q) W(low)/X(q) W(high)/X(q)  e(spline) 
   0      9    11.376   194.483    0.24E-03    0.23E-03    0.67E-07
   0      9    11.376   190.334    0.23E-03    0.22E-03    0.65E-07
   1      8    11.376   116.687    0.25E-03    0.63E-04    0.16E-06
   1      8    11.376    88.696    0.25E-03    0.61E-04    0.16E-06
   2      8    11.376     4.877    0.17E-03    0.14E-03    0.29E-07
 Optimization of the real space projectors (new method)

 maximal supplied QI-value         = 12.09
 optimisation between [QCUT,QGAM] = [ 11.37, 22.86] = [ 36.19,146.31] Ry 
 Optimized for a Real-space Cutoff    1.66 Angstroem

   l    n(q)    QCUT    max X(q) W(low)/X(q) W(high)/X(q)  e(spline) 
   0     11    11.369   135.111    0.12E-03    0.69E-04    0.19E-05
   0     11    11.369   146.850    0.11E-03    0.65E-04    0.18E-05
   1     11    11.369   148.016    0.17E-03    0.32E-03    0.89E-06
   1     11    11.369   122.989    0.17E-03    0.32E-03    0.91E-06
   2     10    11.369     8.916    0.12E-03    0.45E-04    0.33E-06
  PAW_PBE H 15Jun2001                   :
 energy of atom  1       EATOM=  -12.4884
 kinetic energy error for atom=    0.0020 (will be added to EATOM!!)
  PAW_PBE C 08Apr2002                   :
 energy of atom  2       EATOM= -147.1560
 kinetic energy error for atom=    0.0076 (will be added to EATOM!!)
  PAW_PBE N 08Apr2002                   :
 energy of atom  3       EATOM= -264.5486
 kinetic energy error for atom=    0.0138 (will be added to EATOM!!)
  PAW_PBE I 08Apr2002                   :
 energy of atom  4       EATOM= -315.8678
 kinetic energy error for atom=    0.0009 (will be added to EATOM!!)
  PAW_PBE Pb 08Apr2002                  :
 energy of atom  5       EATOM=  -96.9868
 kinetic energy error for atom=    0.0000 (will be added to EATOM!!)
 
 
 POSCAR:  H  C  N  I Pb
  positions in cartesian coordinates
  No initial velocities read in
 exchange correlation table for  LEXCH =        8
   RHO(1)=    0.500       N(1)  =     2000
   RHO(2)=  100.500       N(2)  =     4000
 


--------------------------------------------------------------------------------------------------------


 ion  position               nearest neighbor table
   1  0.422  0.258  0.579- 187 1.05
   2  0.411  0.729  0.576- 188 1.04
   3  0.929  0.285  0.581- 189 1.03
   4  0.941  0.814  0.578- 190 1.04
   5  0.316  0.066  0.576- 194 1.01
   6  0.306  0.582  0.574- 195 1.01
   7  0.794  0.077  0.580- 196 1.00
   8  0.107  0.212  0.565- 183 1.01
   9  0.082  0.674  0.568- 184 1.01
  10  0.607  0.199  0.564- 185 1.04
  11  0.605  0.745  0.563- 186 1.05
  12  0.373  0.013  0.560- 194 1.04
  13  0.261  0.619  0.552- 195 1.05
  14  0.867  0.044  0.564- 196 1.04
  15  0.064  0.266  0.585- 183 1.04
  16  0.003  0.690  0.583- 184 1.04
  17  0.531  0.176  0.581- 185 1.02
  18  0.542  0.693  0.579- 186 1.04
  19  0.281  0.448  0.582- 191 1.01
  20  0.180  0.039  0.574- 192 1.01
  21  0.676  0.009  0.578- 193 1.01
  22  0.427  0.333  0.562- 187 1.02
  23  0.390  0.799  0.557- 188 1.02
  24  0.885  0.241  0.559- 189 1.03
  25  0.983  0.872  0.559- 190 1.03
  26  0.218  0.402  0.566- 191 1.03
  27  0.152  0.971  0.556- 192 1.04
  28  0.675  0.929  0.562- 193 1.04
  29  0.544  0.298  0.549- 146 1.09
  30  0.517  0.812  0.547- 147 1.09
  31  0.996  0.195  0.546- 144 1.09
  32  0.074  0.787  0.550- 145 1.07
  33  0.198  0.508  0.545- 148 1.10
  34  0.275  0.946  0.546- 149 1.10
  35  0.795  0.945  0.551- 150 1.10
  36  0.438  0.281  0.676- 205 1.04
  37  0.431  0.821  0.672- 206 1.04
  38  0.975  0.273  0.683- 207 1.03
  39  0.932  0.776  0.674- 208 1.00
  40  0.294  0.046  0.677- 209 1.02
  41  0.300  0.552  0.674- 210 1.03
  42  0.793  0.057  0.676- 211 1.03
  43  0.810  0.548  0.677- 212 1.03
  44  0.084  0.166  0.644- 197 1.01
  45  0.101  0.691  0.654- 198 1.01
  46  0.582  0.174  0.649- 199 1.00
  47  0.562  0.677  0.655- 200 1.03
  48  0.181  0.408  0.651- 201 1.02
  49  0.171  0.923  0.646- 202 1.03
  50  0.669  0.431  0.651- 203 1.04
  51  0.669  0.923  0.650- 204 1.02
  52  0.074  0.175  0.672- 197 1.03
  53  0.037  0.680  0.675- 198 1.02
  54  0.537  0.179  0.673- 199 1.02
  55  0.525  0.717  0.678- 200 1.02
  56  0.213  0.436  0.676- 201 1.02
  57  0.185  0.948  0.672- 202 1.03
  58  0.710  0.444  0.676- 203 1.01
  59  0.688  0.958  0.675- 204 1.02
  60  0.428  0.334  0.653- 205 1.01
  61  0.416  0.840  0.645- 206 1.02
  62  0.933  0.317  0.661- 207 1.02
  63  0.936  0.838  0.653- 208 1.02
  64  0.337  0.069  0.653- 209 1.02
  65  0.312  0.587  0.649- 210 1.01
  66  0.832  0.074  0.651- 211 1.01
  67  0.822  0.595  0.652- 212 1.03
  68  0.999  0.253  0.635- 151 1.09
  69  0.041  0.788  0.638- 152 1.09
  70  0.517  0.271  0.634- 153 1.07
  71  0.497  0.752  0.632- 154 1.09
  72  0.263  0.995  0.632- 156 1.08
  73  0.240  0.499  0.632- 155 1.08
  74  0.757  0.992  0.633- 158 1.08
  75  0.733  0.525  0.634- 157 1.10
  76  0.449  0.301  0.769- 221 1.02
  77  0.449  0.801  0.769- 222 1.02
  78  0.949  0.301  0.769- 223 1.02
  79  0.949  0.801  0.769- 224 1.02
  80  0.301  0.051  0.769- 225 1.02
  81  0.301  0.551  0.769- 226 1.02
  82  0.801  0.051  0.769- 227 1.02
  83  0.801  0.551  0.769- 228 1.02
  84  0.079  0.171  0.743- 213 1.02
  85  0.079  0.671  0.743- 214 1.02
  86  0.579  0.171  0.743- 215 1.02
  87  0.579  0.671  0.743- 216 1.02
  88  0.171  0.421  0.743- 217 1.02
  89  0.171  0.921  0.743- 218 1.02
  90  0.671  0.421  0.743- 219 1.02
  91  0.671  0.921  0.743- 220 1.02
  92  0.051  0.199  0.769- 213 1.02
  93  0.051  0.699  0.769- 214 1.02
  94  0.551  0.199  0.769- 215 1.02
  95  0.551  0.699  0.769- 216 1.02
  96  0.199  0.449  0.769- 217 1.02
  97  0.199  0.949  0.769- 218 1.02
  98  0.699  0.449  0.769- 219 1.02
  99  0.699  0.949  0.769- 220 1.02
 100  0.421  0.329  0.743- 221 1.02
 101  0.421  0.829  0.743- 222 1.02
 102  0.921  0.329  0.743- 223 1.02
 103  0.921  0.829  0.743- 224 1.02
 104  0.329  0.079  0.743- 225 1.02
 105  0.329  0.579  0.743- 226 1.02
 106  0.829  0.079  0.743- 227 1.02
 107  0.829  0.579  0.743- 228 1.02
 108  0.000  0.250  0.726- 161 1.09
 109  0.000  0.750  0.726- 162 1.09
 110  0.500  0.250  0.726- 159 1.09
 111  0.500  0.750  0.726- 160 1.09
 112  0.250  0.000  0.726- 163 1.09
 113  0.250  0.500  0.726- 164 1.09
 114  0.750  0.000  0.726- 165 1.09
 115  0.750  0.500  0.726- 166 1.09
 116  0.789  0.509  0.517- 173 1.11
 117  0.872  0.505  0.532- 173 1.10
 118  0.752  0.626  0.538- 174 1.09
 119  0.768  0.625  0.565- 174 1.10
 120  0.681  0.453  0.556- 175 1.10
 121  0.669  0.548  0.562- 175 1.10
 122  0.798  0.429  0.570- 176 1.10
 123  0.864  0.501  0.571- 176 1.09
 124  0.861  0.379  0.541- 177 1.09
 125  0.766  0.375  0.536- 177 1.10
 126  0.779  0.379  0.499- 178 1.10
 127  0.868  0.418  0.499- 178 1.13
 128  0.893  0.611  0.532- 179 1.09
 129  0.902  0.610  0.561- 179 1.10
 130  0.868  0.689  0.548- 179 1.10
 131  0.596  0.521  0.531- 180 1.09
 132  0.671  0.485  0.516- 180 1.09
 133  0.667  0.580  0.523- 180 1.09
 134  0.719  0.484  0.596- 181 1.10
 135  0.755  0.576  0.592- 181 1.10
 136  0.809  0.506  0.605- 181 1.11
 137  0.833  0.262  0.516- 182 1.10
 138  0.848  0.278  0.489- 182 1.10
 139  0.937  0.172  0.502- 168 1.09
 140  0.974  0.402  0.515- 169 1.09
 141  0.071  0.148  0.504- 170 1.08
 142  0.108  0.378  0.518- 171 1.09
 143  0.158  0.253  0.512- 172 1.09
 144  0.997  0.227  0.561-  31 1.09 189 1.31 183 1.31
 145  0.033  0.772  0.562-  32 1.07 184 1.31 190 1.32
 146  0.516  0.265  0.561-  29 1.09 187 1.30 185 1.32
 147  0.499  0.771  0.559-  30 1.09 188 1.30 186 1.31
 148  0.237  0.511  0.558-  33 1.10 195 1.30 191 1.32
 149  0.263  0.990  0.557-  34 1.10 194 1.31 192 1.31
 150  0.771  0.986  0.562-  35 1.10 196 1.30 193 1.31
 151  0.008  0.242  0.652-  68 1.09 207 1.30 197 1.33
 152  0.017  0.764  0.653-  69 1.09 208 1.31 198 1.33
 153  0.505  0.255  0.650-  70 1.07 205 1.29 199 1.33
 154  0.489  0.759  0.650-  71 1.09 206 1.29 200 1.31
 155  0.247  0.498  0.649-  73 1.08 210 1.29 201 1.32
 156  0.254  0.996  0.649-  72 1.08 202 1.30 209 1.31
 157  0.745  0.513  0.651-  75 1.10 203 1.30 212 1.33
 158  0.751  0.999  0.650-  74 1.08 211 1.29 204 1.31
 159  0.500  0.250  0.743- 110 1.09 221 1.31 215 1.31
 160  0.500  0.750  0.743- 111 1.09 222 1.31 216 1.31
 161  1.000  0.250  0.743- 108 1.09 223 1.31 213 1.31
 162  1.000  0.750  0.743- 109 1.09 224 1.31 214 1.31
 163  0.250  0.000  0.743- 112 1.09 225 1.31 218 1.31
 164  0.250  0.500  0.743- 113 1.09 226 1.31 217 1.31
 165  0.750  0.000  0.743- 114 1.09 227 1.31 220 1.31
 166  0.750  0.500  0.743- 115 1.09 228 1.31 219 1.31
 167  0.944  0.289  0.508- 169 1.39 168 1.43 182 1.50
 168  0.974  0.217  0.505- 139 1.09 170 1.40 167 1.43
 169  0.993  0.346  0.513- 140 1.09 167 1.39 171 1.41
 170  0.051  0.204  0.506- 141 1.08 172 1.39 168 1.40
 171  0.070  0.333  0.514- 142 1.09 172 1.39 169 1.41
 172  0.098  0.262  0.511- 143 1.09 171 1.39 170 1.39
 173  0.815  0.485  0.532- 117 1.10 116 1.11 177 1.50 229 1.54
 174  0.789  0.604  0.550- 118 1.09 119 1.10 179 1.50 229 1.51
 175  0.691  0.510  0.550- 121 1.10 120 1.10 180 1.51 229 1.52
 176  0.805  0.490  0.571- 123 1.09 122 1.10 229 1.51 181 1.52
 177  0.817  0.402  0.531- 124 1.09 125 1.10 173 1.50 178 1.54
 178  0.831  0.377  0.508- 126 1.10 127 1.13 182 1.52 177 1.54
 179  0.868  0.628  0.548- 128 1.09 130 1.10 129 1.10 174 1.50
 180  0.656  0.525  0.529- 131 1.09 132 1.09 133 1.09 175 1.51
 181  0.769  0.516  0.592- 134 1.10 135 1.10 136 1.11 176 1.52
 182  0.862  0.299  0.505- 138 1.10 137 1.10 167 1.50 178 1.52
 183  0.060  0.232  0.571-   8 1.01  15 1.04 144 1.31
 184  0.039  0.708  0.571-   9 1.01  16 1.04 145 1.31
 185  0.552  0.207  0.569-  17 1.02  10 1.04 146 1.32
 186  0.551  0.728  0.567-  18 1.04  11 1.05 147 1.31
 187  0.451  0.286  0.567-  22 1.02   1 1.05 146 1.30
 188  0.429  0.767  0.564-  23 1.02   2 1.04 147 1.30
 189  0.933  0.255  0.567-   3 1.03  24 1.03 144 1.31
 190  0.980  0.820  0.566-  25 1.03   4 1.04 145 1.32
 191  0.246  0.451  0.570-  19 1.01  26 1.03 148 1.32
 192  0.195  0.001  0.563-  20 1.01  27 1.04 149 1.31
 193  0.701  0.977  0.567-  21 1.01  28 1.04 150 1.31
 194  0.320  0.028  0.565-   5 1.01  12 1.04 149 1.31
 195  0.270  0.573  0.562-   6 1.01  13 1.05 148 1.30
 196  0.812  0.039  0.569-   7 1.00  14 1.04 150 1.30
 197  0.059  0.191  0.657-  44 1.01  52 1.03 151 1.33
 198  0.054  0.708  0.661-  45 1.01  53 1.02 152 1.33
 199  0.544  0.199  0.658-  46 1.00  54 1.02 153 1.33
 200  0.528  0.716  0.662-  55 1.02  47 1.03 154 1.31
 201  0.212  0.444  0.659-  48 1.02  56 1.02 155 1.32
 202  0.201  0.954  0.657-  57 1.03  49 1.03 156 1.30
 203  0.707  0.460  0.660-  58 1.01  50 1.04 157 1.30
 204  0.700  0.957  0.659-  51 1.02  59 1.02 158 1.31
 205  0.454  0.292  0.660-  60 1.01  36 1.04 153 1.29
 206  0.443  0.810  0.656-  61 1.02  37 1.04 154 1.29
 207  0.970  0.279  0.666-  62 1.02  38 1.03 151 1.30
 208  0.956  0.793  0.661-  39 1.00  63 1.02 152 1.31
 209  0.297  0.039  0.661-  40 1.02  64 1.02 156 1.31
 210  0.288  0.548  0.658-  65 1.01  41 1.03 155 1.29
 211  0.794  0.045  0.659-  66 1.01  42 1.03 158 1.29
 212  0.795  0.554  0.661-  43 1.03  67 1.03 157 1.33
 213  0.046  0.204  0.753-  92 1.02  84 1.02 161 1.31
 214  0.046  0.704  0.753-  93 1.02  85 1.02 162 1.31
 215  0.546  0.204  0.753-  94 1.02  86 1.02 159 1.31
 216  0.546  0.704  0.753-  95 1.02  87 1.02 160 1.31
 217  0.204  0.454  0.753-  96 1.02  88 1.02 164 1.31
 218  0.204  0.954  0.753-  97 1.02  89 1.02 163 1.31
 219  0.704  0.454  0.753-  98 1.02  90 1.02 166 1.31
 220  0.704  0.954  0.753-  99 1.02  91 1.02 165 1.31
 221  0.454  0.296  0.753-  76 1.02 100 1.02 159 1.31
 222  0.454  0.796  0.753-  77 1.02 101 1.02 160 1.31
 223  0.954  0.296  0.753-  78 1.02 102 1.02 161 1.31
 224  0.954  0.796  0.753-  79 1.02 103 1.02 162 1.31
 225  0.296  0.046  0.753-  80 1.02 104 1.02 163 1.31
 226  0.296  0.546  0.753-  81 1.02 105 1.02 164 1.31
 227  0.796  0.046  0.753-  82 1.02 106 1.02 165 1.31
 228  0.796  0.546  0.753-  83 1.02 107 1.02 166 1.31
 229  0.775  0.522  0.551- 174 1.51 176 1.51 175 1.52 173 1.54
 230  0.504  0.982  0.554- 304 3.15
 231  0.455  0.479  0.554- 305 3.14
 232  0.999  0.012  0.552- 302 3.31
 233  0.037  0.492  0.557- 303 3.10
 234  0.245  0.246  0.556- 306 3.12
 235  0.234  0.771  0.552- 307 3.27
 236  0.745  0.225  0.555- 308 3.27
 237  0.715  0.792  0.546- 309 3.81
 238  0.001  0.996  0.655- 310 3.12 302 3.13
 239  0.003  0.504  0.656- 311 3.06 303 3.12
 240  0.497  0.006  0.655- 312 3.13 304 3.16
 241  0.498  0.501  0.655- 313 3.12 305 3.25
 242  0.256  0.239  0.656- 314 3.06 306 3.13
 243  0.249  0.752  0.654- 315 3.15 307 3.17
 244  0.742  0.255  0.656- 316 3.07 308 3.10
 245  0.755  0.754  0.654- 309 3.04 317 3.20
 246  0.144  0.105  0.610- 302 3.23 306 3.26
 247  0.147  0.607  0.610- 303 3.12 307 3.25
 248  0.647  0.106  0.610- 304 3.29 308 3.31
 249  0.610  0.640  0.614- 309 3.31 305 3.35
 250  0.362  0.388  0.613- 305 3.20 306 3.22
 251  0.361  0.887  0.608- 307 3.19 304 3.23
 252  0.890  0.361  0.616- 308 3.21 303 3.42
 253  0.863  0.888  0.608- 309 3.18 302 3.22
 254  0.118  0.363  0.614- 306 3.22 303 3.26
 255  0.118  0.875  0.608- 307 3.10 302 3.26
 256  0.617  0.370  0.606- 308 3.18 305 3.23
 257  0.621  0.867  0.613- 309 3.11 304 3.18
 258  0.396  0.141  0.608- 306 3.25 304 3.28
 259  0.381  0.637  0.607- 305 3.23 307 3.32
 260  0.887  0.137  0.613- 302 3.10 308 3.30
 261  0.915  0.664  0.614- 303 3.39 309 3.46
 262  0.000  0.000  0.755- 310 3.13 318 3.27
 263  0.000  0.500  0.755- 311 3.13 319 3.27
 264  0.500  0.000  0.755- 312 3.13 320 3.27
 265  0.500  0.500  0.755- 313 3.13 321 3.27
 266  0.250  0.250  0.755- 314 3.13 322 3.27
 267  0.250  0.750  0.755- 315 3.13 323 3.27
 268  0.750  0.250  0.755- 316 3.13 324 3.27
 269  0.750  0.750  0.755- 317 3.13 325 3.27
 270  0.136  0.114  0.705- 310 3.20 314 3.20
 271  0.136  0.614  0.705- 311 3.20 315 3.20
 272  0.636  0.114  0.705- 312 3.20 316 3.20
 273  0.636  0.614  0.705- 313 3.20 317 3.20
 274  0.364  0.386  0.705- 313 3.20 314 3.20
 275  0.364  0.886  0.705- 312 3.20 315 3.20
 276  0.864  0.386  0.705- 311 3.20 316 3.20
 277  0.864  0.886  0.705- 310 3.20 317 3.20
 278  0.114  0.364  0.705- 314 3.21 311 3.21
 279  0.114  0.864  0.705- 315 3.21 310 3.21
 280  0.614  0.364  0.705- 316 3.21 313 3.21
 281  0.614  0.864  0.705- 317 3.21 312 3.21
 282  0.386  0.136  0.705- 314 3.21 312 3.21
 283  0.386  0.636  0.705- 315 3.21 313 3.21
 284  0.886  0.136  0.705- 316 3.21 310 3.21
 285  0.886  0.636  0.705- 317 3.21 311 3.21
 286  0.135  0.115  0.801- 318 3.22 322 3.22
 287  0.135  0.615  0.801- 319 3.22 323 3.22
 288  0.635  0.115  0.801- 320 3.22 324 3.22
 289  0.635  0.615  0.801- 321 3.22 325 3.22
 290  0.365  0.385  0.801- 321 3.22 322 3.22
 291  0.365  0.885  0.801- 320 3.22 323 3.22
 292  0.865  0.385  0.801- 319 3.22 324 3.22
 293  0.865  0.885  0.801- 318 3.22 325 3.22
 294  0.115  0.365  0.801- 319 3.23 322 3.23
 295  0.115  0.865  0.801- 318 3.23 323 3.23
 296  0.615  0.365  0.801- 321 3.23 324 3.23
 297  0.615  0.865  0.801- 320 3.23 325 3.23
 298  0.385  0.135  0.801- 320 3.23 322 3.23
 299  0.385  0.635  0.801- 321 3.23 323 3.23
 300  0.885  0.135  0.801- 318 3.23 324 3.23
 301  0.885  0.635  0.801- 319 3.23 325 3.23
 302  0.996  0.007  0.605- 260 3.10 238 3.13 253 3.22 246 3.23 255 3.26 232 3.31
 303  0.009  0.504  0.606- 233 3.10 247 3.12 239 3.12 254 3.26 261 3.39 252 3.42
 304  0.504  0.995  0.604- 230 3.15 240 3.16 257 3.18 251 3.23 258 3.28 248 3.29
 305  0.495  0.500  0.603- 231 3.14 250 3.20 256 3.23 259 3.23 241 3.25 249 3.35
 306  0.253  0.249  0.606- 234 3.12 242 3.13 254 3.22 250 3.22 258 3.25 246 3.26
 307  0.242  0.758  0.604- 255 3.10 243 3.17 251 3.19 247 3.25 235 3.27 259 3.32
 308  0.751  0.256  0.606- 244 3.10 256 3.18 252 3.21 236 3.27 260 3.30 248 3.31
 309  0.749  0.755  0.605- 245 3.04 257 3.11 253 3.18 249 3.31 261 3.46 237 3.81
 310  0.000  0.000  0.705- 238 3.12 262 3.13 270 3.20 277 3.20 279 3.21 284 3.21
 311  0.000  0.500  0.705- 239 3.06 263 3.13 271 3.20 276 3.20 278 3.21 285 3.21
 312  0.500  0.000  0.705- 240 3.13 264 3.13 272 3.20 275 3.20 281 3.21 282 3.21
 313  0.500  0.500  0.705- 241 3.12 265 3.13 273 3.20 274 3.20 280 3.21 283 3.21
 314  0.250  0.250  0.705- 242 3.06 266 3.13 270 3.20 274 3.20 282 3.21 278 3.21
 315  0.250  0.750  0.705- 267 3.13 243 3.15 271 3.20 275 3.20 283 3.21 279 3.21
 316  0.750  0.250  0.705- 244 3.07 268 3.13 272 3.20 276 3.20 284 3.21 280 3.21
 317  0.750  0.750  0.705- 269 3.13 245 3.20 273 3.20 277 3.20 285 3.21 281 3.21
 318  0.000  0.000  0.807- 286 3.22 293 3.22 300 3.23 295 3.23 262 3.27
 319  0.000  0.500  0.807- 287 3.22 292 3.22 301 3.23 294 3.23 263 3.27
 320  0.500  0.000  0.807- 288 3.22 291 3.22 298 3.23 297 3.23 264 3.27
 321  0.500  0.500  0.807- 289 3.22 290 3.22 299 3.23 296 3.23 265 3.27
 322  0.250  0.250  0.807- 290 3.22 286 3.22 294 3.23 298 3.23 266 3.27
 323  0.250  0.750  0.807- 291 3.22 287 3.22 299 3.23 295 3.23 267 3.27
 324  0.750  0.250  0.807- 292 3.22 288 3.22 296 3.23 300 3.23 268 3.27
 325  0.750  0.750  0.807- 293 3.22 289 3.22 297 3.23 301 3.23 269 3.27
 

IMPORTANT INFORMATION: All symmetrisations will be switched off!
NOSYMM: (Re-)initialisation of all symmetry stuff for point group C_1.


----------------------------------------------------------------------------------------

                                     Primitive cell                                     

  volume of cell :   20385.2105

  direct lattice vectors                    reciprocal lattice vectors
    18.060800552  0.000000000  0.000000000     0.055368531  0.000015077 -0.000000000
    -0.004918649 18.062799454  0.000000000     0.000000000  0.055362404  0.000000000
     0.000000000  0.000000000 62.487499237     0.000000000 -0.000000000  0.016003201

  length of vectors
    18.060800552 18.062800123 62.487499237     0.055368533  0.055362404  0.016003201

  position of ions in fractional coordinates (direct lattice)
     0.421724110  0.257706564  0.579351412
     0.411089479  0.729063520  0.575784353
     0.929399410  0.284516841  0.581284050
     0.941378225  0.814274155  0.577950131
     0.315671813  0.066465233  0.576231098
     0.305978569  0.581661626  0.574187782
     0.793769011  0.076658318  0.579599325
     0.107233616  0.211979661  0.565046122
     0.082081487  0.673809404  0.567579099
     0.607173384  0.199440194  0.564382964
     0.605254620  0.745472412  0.562614300
     0.373130131  0.012786002  0.560204333
     0.261108202  0.618795676  0.552029419
     0.866668700  0.043931068  0.563835858
     0.064059969  0.266310425  0.584801416
     0.002626097  0.690118297  0.583049661
     0.531392257  0.176126576  0.581098588
     0.541985339  0.692859026  0.579425340
     0.281269778  0.448052076  0.582230223
     0.180255700  0.038861927  0.574279841
     0.675677289  0.009098454  0.577670656
     0.426669347  0.332935054  0.561527718
     0.390129938  0.798699888  0.557274731
     0.885187709  0.240972517  0.559470116
     0.982710397  0.872383359  0.559141681
     0.218459494  0.402087267  0.565867148
     0.151971548  0.970717483  0.556229050
     0.675219538  0.928838887  0.561613794
     0.543889559  0.297972547  0.548785057
     0.516568257  0.811752959  0.547091053
     0.996372138  0.194880254  0.546309281
     0.074481998  0.786640471  0.550271011
     0.198299728  0.507785232  0.544714235
     0.274581351  0.945930229  0.545565052
     0.795286698  0.945226970  0.550635769
     0.437819608  0.281458798  0.675983533
     0.430781992  0.821298731  0.671858501
     0.974582565  0.273101661  0.682749656
     0.931771119  0.775946190  0.674232145
     0.293912048  0.045800562  0.676981596
     0.300085668  0.551906002  0.674454662
     0.793452324  0.056791829  0.675633609
     0.809844740  0.548413751  0.676526854
     0.084339869  0.165844593  0.644134877
     0.100582607  0.690571830  0.653928951
     0.581786906  0.174383566  0.648762085
     0.561906482  0.676580544  0.655137688
     0.181454858  0.407503520  0.650741545
     0.170890602  0.922553703  0.645935225
     0.668654811  0.430897047  0.650939827
     0.668506818  0.923157755  0.649502955
     0.073551944  0.175093008  0.671764000
     0.037487495  0.680068783  0.674828089
     0.536905943  0.179201580  0.673086530
     0.524586006  0.716572534  0.678228427
     0.213370457  0.435620382  0.675572989
     0.185483321  0.948283310  0.672322705
     0.709814836  0.444000328  0.675502235
     0.687600432  0.957899768  0.674768080
     0.427817963  0.333542729  0.652758978
     0.416207407  0.840248460  0.644859326
     0.932632981  0.317092100  0.660948848
     0.935662452  0.837899807  0.652793225
     0.337308787  0.069015956  0.653468226
     0.311942230  0.587293082  0.649191370
     0.831777253  0.073503470  0.650865227
     0.821710290  0.594992940  0.651930321
     0.998509558  0.252972775  0.635336120
     0.041105345  0.787802970  0.638474688
     0.517003740  0.270845853  0.634027997
     0.497091116  0.751556133  0.632433135
     0.263009710  0.994857832  0.632402489
     0.239709913  0.499377357  0.632264522
     0.756525273  0.991646503  0.632656874
     0.733298096  0.524819725  0.634105528
     0.448745018  0.301283966  0.768889017
     0.448745007  0.801283913  0.768889017
     0.948744965  0.301283966  0.768889017
     0.948745007  0.801283913  0.768889017
     0.301275995  0.051294496  0.768872961
     0.301276011  0.551294499  0.768872961
     0.801275943  0.051294496  0.768872961
     0.801275984  0.551294499  0.768872961
     0.078771004  0.171180501  0.743441971
     0.078771006  0.671180448  0.743441971
     0.578771004  0.171180501  0.743441971
     0.578770992  0.671180448  0.743441971
     0.171199499  0.421174482  0.743421032
     0.171199501  0.921174508  0.743421032
     0.671199512  0.421174482  0.743421032
     0.671199501  0.921174508  0.743421032
     0.051256000  0.198714991  0.768889017
     0.051256002  0.698714925  0.768889017
     0.551256027  0.198714991  0.768889017
     0.551256016  0.698714925  0.768889017
     0.198723491  0.448703970  0.768872046
     0.198723493  0.948703970  0.768872046
     0.698723518  0.448703970  0.768872046
     0.698723507  0.948703970  0.768872046
     0.421231519  0.328817467  0.743441971
     0.421231508  0.828817440  0.743441971
     0.921231466  0.328817467  0.743441971
     0.921231508  0.828817440  0.743441971
     0.328800503  0.078824997  0.743421032
     0.328800492  0.578824964  0.743421032
     0.828800477  0.078824997  0.743421032
     0.828800519  0.578824964  0.743421032
     0.000003500  0.250001478  0.725821992
     0.000003500  0.750001452  0.725821992
     0.500003506  0.250001478  0.725821992
     0.500003495  0.750001452  0.725821992
     0.250000502  0.000000000  0.725803983
     0.250000517  0.500000000  0.725803983
     0.750000502  0.000000000  0.725803983
     0.750000490  0.500000000  0.725803983
     0.789205153  0.508857554  0.517381376
     0.872139317  0.505040385  0.532126207
     0.752417249  0.626388672  0.537744335
     0.767546883  0.625003207  0.565437313
     0.680784943  0.453178522  0.555926622
     0.668991367  0.547761013  0.562376459
     0.798342463  0.429265334  0.570045107
     0.863816804  0.500821743  0.570601859
     0.861385629  0.379271585  0.541023067
     0.765940458  0.374755797  0.536286158
     0.778601441  0.378681016  0.498979013
     0.867858804  0.418395131  0.498868640
     0.893058999  0.610804532  0.532495361
     0.902325998  0.609942452  0.561027190
     0.867833272  0.688963401  0.547780950
     0.596088598  0.521484230  0.531064654
     0.671434712  0.484625520  0.516318297
     0.666883636  0.580438145  0.522618812
     0.718583860  0.484297805  0.595770834
     0.755028201  0.575500451  0.592318910
     0.809175519  0.505798033  0.605222431
     0.833192692  0.261722832  0.516397292
     0.848037914  0.278130537  0.489374065
     0.936714789  0.171582529  0.501595290
     0.973660117  0.402143391  0.515172804
     0.071080587  0.148290690  0.503873883
     0.108102017  0.378314679  0.517614149
     0.157583042  0.252613143  0.512129349
     0.996829246  0.227213251  0.561125049
     0.032518849  0.772054208  0.561586262
     0.516141820  0.265193278  0.561103316
     0.498651785  0.770582841  0.558820084
     0.237237645  0.510599614  0.558136903
     0.263404699  0.990076096  0.557261484
     0.770870165  0.985504232  0.561809573
     0.007870173  0.242121659  0.652295079
     0.017113637  0.764480852  0.652928812
     0.504873160  0.255061003  0.650126676
     0.488903323  0.759227323  0.649557532
     0.247167293  0.497974152  0.649435803
     0.254157868  0.995678471  0.649440199
     0.744612841  0.512803285  0.651104228
     0.751236937  0.998598134  0.649777974
     0.499988984  0.249994984  0.743277021
     0.499989025  0.749994958  0.743277021
     0.999988984  0.249994984  0.743277021
     0.999989025  0.749994958  0.743277021
     0.250000502  0.000001000  0.743255960
     0.250000517  0.500001003  0.743255960
     0.750000502  0.000001000  0.743255960
     0.750000491  0.500001003  0.743255960
     0.944205592  0.289419161  0.508022784
     0.974477515  0.217170098  0.505181304
     0.993417188  0.345881711  0.512788294
     0.050586578  0.204124578  0.506133826
     0.070311747  0.332799100  0.514234811
     0.098356204  0.262486947  0.510685670
     0.814863001  0.484515384  0.531937510
     0.788996487  0.604302443  0.550113814
     0.691265765  0.510006854  0.550157401
     0.804532565  0.489741090  0.571355123
     0.817397698  0.401802292  0.530903428
     0.831497832  0.377385044  0.507678416
     0.868193777  0.628331469  0.547542010
     0.655835919  0.524598027  0.528613053
     0.768947870  0.516050343  0.592134853
     0.862339938  0.299357431  0.505318691
     0.059806919  0.232032572  0.571499927
     0.038896433  0.707578234  0.571112948
     0.552214330  0.207334401  0.568799497
     0.551249691  0.728228682  0.566591108
     0.450869548  0.286085910  0.567433989
     0.429396902  0.767108541  0.564494375
     0.933188468  0.254586906  0.567380268
     0.979883672  0.820252755  0.565744870
     0.245642946  0.450519207  0.569862209
     0.194586162  0.000624158  0.563230329
     0.700954486  0.976843083  0.566792992
     0.319526680  0.027678135  0.564741617
     0.270264473  0.572956605  0.561944915
     0.812038778  0.039251568  0.569070669
     0.058583344  0.190743462  0.656515100
     0.054114808  0.707591275  0.661376790
     0.543687239  0.198979824  0.657988417
     0.528145997  0.715710083  0.662004785
     0.212295229  0.444092671  0.659378099
     0.200923899  0.953817176  0.656599773
     0.706559394  0.460294808  0.660094735
     0.699927993  0.957486118  0.658783987
     0.454189268  0.291563962  0.660270856
     0.443337179  0.809600872  0.656040701
     0.970171777  0.278978679  0.666401538
     0.956289581  0.793177777  0.660685795
     0.297327153  0.038759566  0.660876995
     0.288338706  0.547756948  0.658317218
     0.794364908  0.044894405  0.659467900
     0.795443381  0.554290505  0.660666931
     0.045862501  0.204119496  0.752725994
     0.045862500  0.704119456  0.752725994
     0.545862507  0.204119496  0.752725994
     0.545862496  0.704119456  0.752725994
     0.204119002  0.454101003  0.752704994
     0.204118991  0.954100951  0.752704994
     0.704118976  0.454101003  0.752704994
     0.704118964  0.954100951  0.752704994
     0.454140018  0.295888490  0.752726971
     0.454140007  0.795888516  0.752726971
     0.954140018  0.295888490  0.752726971
     0.954140060  0.795888516  0.752726971
     0.295882492  0.045900498  0.752704994
     0.295882481  0.545900528  0.752704994
     0.795882439  0.045900498  0.752704994
     0.795882481  0.545900528  0.752704994
     0.774833265  0.521931004  0.550755910
     0.504180383  0.981891239  0.554262593
     0.455075715  0.478794331  0.554306730
     0.999454505  0.011913073  0.551995355
     0.036746134  0.491658597  0.557194637
     0.245003577  0.246072273  0.556087970
     0.233692480  0.770844454  0.551535790
     0.744684322  0.225211505  0.554664529
     0.715153210  0.791988139  0.545827861
     0.001417711  0.995504214  0.654869385
     0.002867793  0.503714688  0.655932525
     0.497024104  0.006226161  0.654803454
     0.498354252  0.501324747  0.654824515
     0.255769531  0.238888037  0.655935333
     0.248622641  0.751885380  0.654385829
     0.742039045  0.254763145  0.655732473
     0.754813880  0.754103517  0.653699962
     0.144291062  0.105326626  0.609866304
     0.146922265  0.607026382  0.610000059
     0.646766766  0.106235340  0.610142666
     0.610315542  0.639679385  0.614444002
     0.362468829  0.387664809  0.612909455
     0.361129238  0.887446280  0.607614450
     0.890489732  0.360864695  0.616156259
     0.863392381  0.888448274  0.608429310
     0.117793594  0.362611956  0.613613331
     0.118173878  0.874647377  0.608485901
     0.616772195  0.369761557  0.606373968
     0.620820509  0.866790657  0.613203459
     0.395944925  0.140530906  0.607575380
     0.380901305  0.637390921  0.606849893
     0.887038073  0.136739147  0.613414377
     0.914504707  0.663822877  0.614094201
     0.000000000  0.000000000  0.754927972
     0.000000000  0.500000000  0.754927972
     0.500000000  0.000000000  0.754927972
     0.499999989  0.500000000  0.754927972
     0.250000496  0.250000000  0.754939022
     0.250000511  0.749999974  0.754939022
     0.750000470  0.250000000  0.754939022
     0.750000458  0.749999974  0.754939022
     0.135790500  0.114209997  0.704782994
     0.135790502  0.614209984  0.704782994
     0.635790447  0.114209997  0.704782994
     0.635790488  0.614209984  0.704782994
     0.364209516  0.385789989  0.704782994
     0.364209505  0.885789963  0.704782994
     0.864209542  0.385789989  0.704782994
     0.864209531  0.885789963  0.704782994
     0.114217990  0.364218986  0.704780979
     0.114217992  0.864218986  0.704780979
     0.614218004  0.364218986  0.704780979
     0.614217992  0.864218986  0.704780979
     0.385782012  0.135781489  0.704782017
     0.385782001  0.635781489  0.704782017
     0.885781985  0.135781489  0.704782017
     0.885782027  0.635781489  0.704782017
     0.134667000  0.115332001  0.801256025
     0.134666989  0.615331988  0.801256025
     0.634666987  0.115332001  0.801256025
     0.634666976  0.615331988  0.801256025
     0.365333002  0.384667985  0.801256025
     0.365332990  0.884667959  0.801256025
     0.865332949  0.384667985  0.801256025
     0.865332938  0.884667959  0.801256025
     0.115328503  0.365337004  0.801264999
     0.115328505  0.865336978  0.801264999
     0.615328503  0.365337004  0.801264999
     0.615328492  0.865336978  0.801264999
     0.384671513  0.134662996  0.801264999
     0.384671501  0.634662970  0.801264999
     0.884671486  0.134662996  0.801264999
     0.884671528  0.634662970  0.801264999
     0.995845306  0.007006072  0.604911456
     0.008708341  0.504186541  0.605954023
     0.504014571  0.994850520  0.604459217
     0.494964272  0.500190864  0.602847506
     0.252759494  0.248884543  0.605943095
     0.242410968  0.757719051  0.603732509
     0.751189253  0.256265899  0.606218602
     0.748979608  0.755432435  0.605024699
     0.000000500  0.000000500  0.704828963
     0.000000500  0.500000475  0.704828963
     0.500000475  0.000000500  0.704828963
     0.500000464  0.500000475  0.704828963
     0.249999994  0.249999472  0.704824995
     0.250000010  0.749999498  0.704824995
     0.749999994  0.249999472  0.704824995
     0.749999983  0.749999498  0.704824995
     0.000000000  0.000000000  0.807317968
     0.000000000  0.500000000  0.807317968
     0.500000000  0.000000000  0.807317968
     0.499999989  0.500000000  0.807317968
     0.249999994  0.250000000  0.807317968
     0.250000010  0.749999974  0.807317968
     0.749999994  0.250000000  0.807317968
     0.749999983  0.749999974  0.807317968

  ion indices of the primitive-cell ions
   primitive index   ion index
                 1           1
                 2           2
                 3           3
                 4           4
                 5           5
                 6           6
                 7           7
                 8           8
                 9           9
                10          10
                11          11
                12          12
                13          13
                14          14
                15          15
                16          16
                17          17
                18          18
                19          19
                20          20
                21          21
                22          22
                23          23
                24          24
                25          25
                26          26
                27          27
                28          28
                29          29
                30          30
                31          31
                32          32
                33          33
                34          34
                35          35
                36          36
                37          37
                38          38
                39          39
                40          40
                41          41
                42          42
                43          43
                44          44
                45          45
                46          46
                47          47
                48          48
                49          49
                50          50
                51          51
                52          52
                53          53
                54          54
                55          55
                56          56
                57          57
                58          58
                59          59
                60          60
                61          61
                62          62
                63          63
                64          64
                65          65
                66          66
                67          67
                68          68
                69          69
                70          70
                71          71
                72          72
                73          73
                74          74
                75          75
                76          76
                77          77
                78          78
                79          79
                80          80
                81          81
                82          82
                83          83
                84          84
                85          85
                86          86
                87          87
                88          88
                89          89
                90          90
                91          91
                92          92
                93          93
                94          94
                95          95
                96          96
                97          97
                98          98
                99          99
               100         100
               101         101
               102         102
               103         103
               104         104
               105         105
               106         106
               107         107
               108         108
               109         109
               110         110
               111         111
               112         112
               113         113
               114         114
               115         115
               116         116
               117         117
               118         118
               119         119
               120         120
               121         121
               122         122
               123         123
               124         124
               125         125
               126         126
               127         127
               128         128
               129         129
               130         130
               131         131
               132         132
               133         133
               134         134
               135         135
               136         136
               137         137
               138         138
               139         139
               140         140
               141         141
               142         142
               143         143
               144         144
               145         145
               146         146
               147         147
               148         148
               149         149
               150         150
               151         151
               152         152
               153         153
               154         154
               155         155
               156         156
               157         157
               158         158
               159         159
               160         160
               161         161
               162         162
               163         163
               164         164
               165         165
               166         166
               167         167
               168         168
               169         169
               170         170
               171         171
               172         172
               173         173
               174         174
               175         175
               176         176
               177         177
               178         178
               179         179
               180         180
               181         181
               182         182
               183         183
               184         184
               185         185
               186         186
               187         187
               188         188
               189         189
               190         190
               191         191
               192         192
               193         193
               194         194
               195         195
               196         196
               197         197
               198         198
               199         199
               200         200
               201         201
               202         202
               203         203
               204         204
               205         205
               206         206
               207         207
               208         208
               209         209
               210         210
               211         211
               212         212
               213         213
               214         214
               215         215
               216         216
               217         217
               218         218
               219         219
               220         220
               221         221
               222         222
               223         223
               224         224
               225         225
               226         226
               227         227
               228         228
               229         229
               230         230
               231         231
               232         232
               233         233
               234         234
               235         235
               236         236
               237         237
               238         238
               239         239
               240         240
               241         241
               242         242
               243         243
               244         244
               245         245
               246         246
               247         247
               248         248
               249         249
               250         250
               251         251
               252         252
               253         253
               254         254
               255         255
               256         256
               257         257
               258         258
               259         259
               260         260
               261         261
               262         262
               263         263
               264         264
               265         265
               266         266
               267         267
               268         268
               269         269
               270         270
               271         271
               272         272
               273         273
               274         274
               275         275
               276         276
               277         277
               278         278
               279         279
               280         280
               281         281
               282         282
               283         283
               284         284
               285         285
               286         286
               287         287
               288         288
               289         289
               290         290
               291         291
               292         292
               293         293
               294         294
               295         295
               296         296
               297         297
               298         298
               299         299
               300         300
               301         301
               302         302
               303         303
               304         304
               305         305
               306         306
               307         307
               308         308
               309         309
               310         310
               311         311
               312         312
               313         313
               314         314
               315         315
               316         316
               317         317
               318         318
               319         319
               320         320
               321         321
               322         322
               323         323
               324         324
               325         325

----------------------------------------------------------------------------------------

 
 
 KPOINTS: Automatic Mesh                          

Automatic generation of k-mesh.
 Grid dimensions read from file:
 generate k-points for:    3    3    1

 Generating k-lattice:

  Cartesian coordinates                     Fractional coordinates (reciprocal lattice)
     0.018456177  0.000005026 -0.000000000     0.333333333  0.000000000  0.000000000
     0.000000000  0.018454135  0.000000000     0.000000000  0.333333333  0.000000000
     0.000000000 -0.000000000  0.016003201     0.000000000  0.000000000  1.000000000

  Length of vectors
     0.018456178  0.018454135  0.016003201

  Shift w.r.t. Gamma in fractional coordinates (k-lattice)
     0.000000000  0.000000000  0.000000000

 
 Subroutine IBZKPT returns following result:
 ===========================================
 
 Found      5 irreducible k-points:
 
 Following reciprocal coordinates:
            Coordinates               Weight
  0.000000  0.000000  0.000000      1.000000
  0.333333  0.000000  0.000000      2.000000
  0.000000  0.333333  0.000000      2.000000
  0.333333  0.333333  0.000000      2.000000
 -0.333333  0.333333  0.000000      2.000000
 
 Following cartesian coordinates:
            Coordinates               Weight
  0.000000  0.000000  0.000000      1.000000
  0.018456  0.000005  0.000000      2.000000
  0.000000  0.018454  0.000000      2.000000
  0.018456  0.018459  0.000000      2.000000
 -0.018456  0.018449  0.000000      2.000000
 


--------------------------------------------------------------------------------------------------------




 Dimension of arrays:
   k-points           NKPTS =      5   k-points in BZ     NKDIM =      5   number of bands    NBANDS=    732
   number of dos      NEDOS =    301   number of ions     NIONS =    325
   non local maximal  LDIM  =      5   non local SUM 2l+1 LMDIM =     13
   total plane-waves  NPLWV = ******
   max r-space proj   IRMAX =   3336   max aug-charges    IRDMAX=  19845
   dimension x,y,z NGX =   100 NGY =  100 NGZ =  350
   dimension x,y,z NGXF=   200 NGYF=  200 NGZF=  700
   support grid    NGXF=   200 NGYF=  200 NGZF=  700
   ions per type =             143  39  47  72  24
   NGX,Y,Z   is equivalent  to a cutoff of   9.20,  9.20,  9.31 a.u.
   NGXF,Y,Z  is equivalent  to a cutoff of  18.41, 18.41, 18.62 a.u.

 SYSTEM =  PSC                                     
 POSCAR =   H  C  N  I Pb                          

 Startparameter for this run:
   NWRITE =      2    write-flag & timer
   PREC   = normal    normal or accurate (medium, high low for compatibility)
   ISTART =      0    job   : 0-new  1-cont  2-samecut
   ICHARG =      1    charge: 1-file 2-atom 10-const
   ISPIN  =      1    spin polarized calculation?
   LNONCOLLINEAR =      F non collinear calculations
   LSORBIT =      F    spin-orbit coupling
   INIWAV =      1    electr: 0-lowe 1-rand  2-diag
   LASPH  =      F    aspherical Exc in radial PAW
 Electronic Relaxation 1
   ENCUT  =  500.0 eV  36.75 Ry    6.06 a.u.  32.93 32.93113.93*2*pi/ulx,y,z
   ENINI  =  500.0     initial cutoff
   ENAUG  =  644.9 eV  augmentation charge cutoff
   NELM   =    600;   NELMIN=  2; NELMDL=  0     # of ELM steps 
   EDIFF  = 0.1E-03   stopping-criterion for ELM
   LREAL  =      T    real-space projection
   NLSPLINE    = F    spline interpolate recip. space projectors
   LCOMPAT=      F    compatible to vasp.4.4
   GGA_COMPAT  = F    GGA compatible to vasp.4.4-vasp.4.6
   LMAXPAW     = -100 max onsite density
   LMAXMIX     =    2 max onsite mixed and CHGCAR
   VOSKOWN=      0    Vosko Wilk Nusair interpolation
   ROPT   =   -0.00050  -0.00050  -0.00050  -0.00050
   ROPT   =   -0.00050
 Ionic relaxation
   EDIFFG = 0.1E-02   stopping-criterion for IOM
   NSW    =      0    number of steps for IOM
   NBLOCK =      1;   KBLOCK =      1    inner block; outer block 
   IBRION =     -1    ionic relax: 0-MD 1-quasi-New 2-CG
   NFREE  =      0    steps in history (QN), initial steepest desc. (CG)
   ISIF   =      2    stress and relaxation
   IWAVPR =     10    prediction:  0-non 1-charg 2-wave 3-comb
   ISYM   =      0    0-nonsym 1-usesym 2-fastsym
   LCORR  =      T    Harris-Foulkes like correction to forces

   POTIM  = 0.5000    time-step for ionic-motion
   TEIN   =    0.0    initial temperature
   TEBEG  =    0.0;   TEEND  =   0.0 temperature during run
   SMASS  =  -3.00    Nose mass-parameter (am)
   estimated Nose-frequenzy (Omega)   =  0.10E-29 period in steps = 0.13E+47 mass=  -0.745E-26a.u.
   SCALEE = 1.0000    scale energy and forces
   NPACO  =    256;   APACO  = 16.0  distance and # of slots for P.C.
   PSTRESS=    0.0 pullay stress

  Mass of Ions in am
   POMASS =   1.00 12.01 14.00126.90207.20
  Ionic Valenz
   ZVAL   =   1.00  4.00  5.00  7.00  4.00
  Atomic Wigner-Seitz radii
   RWIGS  =  -1.00 -1.00 -1.00 -1.00 -1.00
  virtual crystal weights 
   VCA    =   1.00  1.00  1.00  1.00  1.00
   NELECT =    1134.0000    total number of electrons
   NUPDOWN=      -1.0000    fix difference up-down

 DOS related values:
   EMIN   =  10.00;   EMAX   =-10.00  energy-range for DOS
   EFERMI =   0.00
   ISMEAR =     0;   SIGMA  =   0.05  broadening in eV -4-tet -1-fermi 0-gaus

 Electronic relaxation 2 (details)
   IALGO  =     38    algorithm
   LDIAG  =      T    sub-space diagonalisation (order eigenvalues)
   LSUBROT=      F    optimize rotation matrix (better conditioning)
   TURBO    =      0    0=normal 1=particle mesh
   IRESTART =      0    0=no restart 2=restart with 2 vectors
   NREBOOT  =      0    no. of reboots
   NMIN     =      0    reboot dimension
   EREF     =   0.00    reference energy to select bands
   IMIX   =      4    mixing-type and parameters
     AMIX     =   0.40;   BMIX     =  0.01
     AMIX_MAG =   1.60;   BMIX_MAG =  0.01
     AMIN     =   0.01
     WC   =   100.;   INIMIX=   1;  MIXPRE=   1;  MAXMIX= -45

 Intra band minimization:
   WEIMIN = 0.0000     energy-eigenvalue tresh-hold
   EBREAK =  0.34E-07  absolut break condition
   DEPER  =   0.30     relativ break condition  

   TIME   =   0.40     timestep for ELM

  volume/ion in A,a.u.               =      62.72       423.28
  Fermi-wavevector in a.u.,A,eV,Ry     =   0.624944  1.180972  5.313816  0.390554
  Thomas-Fermi vector in A             =   1.685677
 
 Write flags
   LWAVE        =      F    write WAVECAR
   LDOWNSAMPLE  =      F    k-point downsampling of WAVECAR
   LCHARG       =      T    write CHGCAR
   LVTOT        =      T    write LOCPOT, total local potential
   LVHAR        =      F    write LOCPOT, Hartree potential only
   LELF         =      F    write electronic localiz. function (ELF)
   LORBIT       =      0    0 simple, 1 ext, 2 COOP (PROOUT), +10 PAW based schemes


 Dipole corrections
   LMONO  =      F    monopole corrections only (constant potential shift)
   LDIPOL =      T    correct potential (dipole corrections)
   IDIPOL =      3    1-x, 2-y, 3-z, 4-all directions 
   EPSILON=  1.0000000 bulk dielectric constant

 Exchange correlation treatment:
   GGA     =    --    GGA type
   LEXCH   =     8    internal setting for exchange type
   VOSKOWN=      0    Vosko Wilk Nusair interpolation
   LHFCALC =     F    Hartree Fock is set to
   LHFONE  =     F    Hartree Fock one center treatment
   AEXX    =    0.0000 exact exchange contribution

 Linear response parameters
   LEPSILON=     F    determine dielectric tensor
   LRPA    =     F    only Hartree local field effects (RPA)
   LNABLA  =     F    use nabla operator in PAW spheres
   LVEL    =     F    velocity operator in full k-point grid
   LINTERFAST=   F  fast interpolation
   KINTER  =     0    interpolate to denser k-point grid
   CSHIFT  =0.1000    complex shift for real part using Kramers Kronig
   OMEGAMAX=  -1.0    maximum frequency
   DEG_THRESHOLD= 0.2000000E-02 threshold for treating states as degnerate
   RTIME   =   -0.100 relaxation time in fs
  (WPLASMAI=    0.000 imaginary part of plasma frequency in eV, 0.658/RTIME)
   DFIELD  = 0.0000000 0.0000000 0.0000000 field for delta impulse in time
 
 Orbital magnetization related:
   ORBITALMAG=     F  switch on orbital magnetization
   LCHIMAG   =     F  perturbation theory with respect to B field
   DQ        =  0.001000  dq finite difference perturbation B field
   LLRAUG    =     F  two centre corrections for induced B field



--------------------------------------------------------------------------------------------------------


 Static calculation
 charge density and potential will be updated during run
 non-spin polarized calculation
 Variant of blocked Davidson
 Davidson routine will perform the subspace rotation
 perform sub-space diagonalisation
    after iterative eigenvector-optimisation
 modified Broyden-mixing scheme, WC =      100.0
 initial mixing is a Kerker type mixing with AMIX =  0.4000 and BMIX =      0.0100
 Hartree-type preconditioning will be used
 using additional bands           165
 real space projection scheme for non local part
[...]
     13.54561      0.00000     45.35368         0.000030     -0.005712      0.012880
     13.54315      9.03140     45.35368        -0.010222     -0.003352      0.017578
     14.25117      9.19139     32.32987         0.069970     -0.217170      0.347837
     15.74905      9.12244     33.25124        -0.090881      0.022301      0.207373
     13.58618     11.31433     33.60230         0.124576      0.139191     -0.129540
     13.85944     11.28931     35.33276        -0.052355      0.062274     -0.149471
     12.29329      8.18567     34.73846         0.055207      0.134484     -0.155192
     12.07983      9.89410     35.14150        -0.005173     -0.042417     -0.048225
     14.41659      7.75373     35.62069        -0.022747      0.117595     -0.018084
     15.59876      9.04624     35.65548         0.287573      0.073957      0.173358
     15.55545      6.85071     33.80718         0.148828      0.094735      0.209484
     13.83165      6.76914     33.51118         0.034749      0.114015      0.023868
     14.06030      6.84004     31.17995        -0.100295      0.131567      0.011825
     15.67217      7.55739     31.17305        -0.372748     -0.546270      0.499939
     16.12636     11.03284     33.27430         0.159262      0.002228     -0.122884
     16.29373     11.01727     35.05719         0.129804     -0.056296     -0.087948
     15.67037     12.44461     34.22946        -0.032443      0.138159     -0.018185
     10.76327      9.41947     33.18490        -0.281874     -0.124357     -0.020975
     12.12426      8.75369     32.26344         0.012485     -0.173012     -0.057735
     12.04160     10.48434     32.65714         0.071578      0.113471     -0.040612
     12.97582      8.74777     37.22823         0.019391      0.094142     -0.037971
     13.63358     10.39515     37.01253         0.130143     -0.231168      0.045184
     14.61187      9.13613     37.81884        -0.237336      0.074463     -0.332649
     15.04684      4.72745     32.26838        -0.039810      0.056891      0.047849
     15.31488      5.02382     30.57976        -0.052098      0.019263     -0.152607
     16.91698      3.09926     31.34344        -0.003020     -0.046473      0.008660
     17.58310      7.26384     32.19186        -0.026134      0.103653      0.079723
      1.28304      2.67854     31.48582         0.143728     -0.205369     -0.060709
      1.95055      6.83342     32.34441        -0.066111      0.070709      0.115894
      2.84483      4.56290     32.00168         0.085768     -0.003620     -0.055446
     18.00242      4.10411     35.06330         0.071582     -0.620769     -0.369379
      0.58352     13.94546     35.09212        -0.682767     -0.238999      0.912548
      9.32063      4.79013     35.06194         0.766091     -0.420125      0.149748
      9.00226     13.91888     34.91927         0.665279     -0.058718     -0.054048
      4.28219      9.22286     34.87658        -0.440474     -1.009787      0.078918
      4.75243     17.88355     34.82188        -0.017463     -0.145088      0.003866
     13.91768     17.80097     35.10608        -0.119609     -0.208070     -0.221527
      0.14095      4.37339     40.76029         1.350767     -1.342614     -0.281288
      0.30533     13.80866     40.79989         0.794733     -1.386831      0.680809
      9.11716      4.60712     40.62479         0.844131     -1.329065      0.559577
      8.82625     13.71377     40.58923         0.705869     -0.685760     -0.045435
      4.46159      8.99481     40.58162        -0.747026     -1.163751     -0.013865
      4.58540     17.98474     40.58189         0.111626      0.268513      0.256475
     13.44578      9.26266     40.68587         0.789087      0.963725     -0.212558
     13.56303     18.03748     40.60300        -0.961633     -0.854920     -0.039300
      9.02897      4.51561     46.44552         0.009014      0.008719      0.038282
      9.02651     13.54701     46.44552         0.019157     -0.005416      0.050045
     18.05937      4.51561     46.44552         0.003404      0.013335      0.073004
     18.05691     13.54701     46.44552         0.024611     -0.006214      0.043972
      4.51521      0.00002     46.44421        -0.008043     -0.008643      0.066672
      4.51275      9.03142     46.44421        -0.007197     -0.005542      0.046716
     13.54561      0.00002     46.44421         0.001750      0.000759      0.043322
     13.54315      9.03142     46.44421        -0.027191     -0.025692      0.045064
     17.05169      5.22772     31.74507         0.501382     -1.057716      0.010373
     17.59878      3.92270     31.56752        -0.230255      0.422759     -0.102123
     17.94021      6.24759     32.04286         0.618246      0.413615      0.041749
      0.91263      3.68706     31.62704        -0.665117      0.036638      0.116579
      1.26825      6.01128     32.13325        -0.483467      0.192161     -0.145305
      1.77510      4.74125     31.91147         0.417309     -0.019494      0.118646
     14.71469      8.75170     33.23944        -0.068469      1.087787     -0.365953
     14.24694     10.91539     34.37524        -0.330368      0.128473      0.184304
     12.48230      9.21215     34.37796         0.064496     -0.156870     -0.002976
     14.52809      8.84610     35.70255         0.179112     -0.412459      0.203036
     14.76088      7.25767     33.17483        -0.336037     -0.675865     -0.140663
     15.01566      6.81663     31.72355         0.209144      0.519891     -0.649209
     15.67718     11.34943     34.21453         0.022859      0.172553      0.148426
     11.84234      9.47571     33.03171        -0.031535      0.125215      0.153486
     13.88528      9.32131     37.00103         0.160664      0.110504     -0.024956
     15.57308      5.40723     31.57610        -0.125638     -0.111308     -0.028138
      1.07902      4.19116     35.71160        -0.798317      0.766939      0.542821
      0.69902     12.78084     35.68742        -0.291150     -0.102986      0.065552
      9.97241      3.74504     35.54286         0.257799      0.141616     -0.301172
      9.95243     13.15385     35.40486         0.219916      0.070054      0.245916
      8.14166      5.16751     35.45753        -1.183374     -0.342746      0.719361
      7.75148     13.85613     35.27384        -0.753758     -0.339716      0.186656
     16.85288      4.59855     35.45417         0.211866      0.192011      0.018436
     17.69345     14.81606     35.35198        -0.386961      0.074024      0.114098
      4.43429      8.13764     35.60926        -0.793112     -0.250876     -0.973125
      3.51438      0.01127     35.19485        -0.564280     -0.938107     -1.033652
     12.65499     17.64452     35.41748         0.080791     -1.171954     -0.700543
      5.77077      0.49994     35.28929         0.723748     -0.620920     -0.746355
      4.87837     10.34920     35.11453        -0.082167      1.605987     -1.189988
     14.66588      0.70899     35.55980         1.295471     -0.201893     -0.862449
      1.05712      3.44536     41.02399        -0.934585      0.926544      0.474263
      0.97388     12.78108     41.32778        -1.180677      1.028229     -0.246467
      9.81845      3.59413     41.11605        -0.876483      0.919109      0.058450
      9.53522     12.92773     41.36702         0.239975     -0.338919     -0.046485
      3.83204      8.02156     41.20289         0.080369      0.032834      0.331188
      3.62415     17.22861     41.02928        -0.599728     -0.501599      0.323192
     12.75876      8.31421     41.24767        -1.042727     -0.898477     -0.844722
     12.63655     17.29488     41.16576        -0.035543      0.064976      0.371348
      8.20159      5.26646     41.25867        -0.747137      0.173848      1.299698
      8.00304     14.62366     40.99434        -0.696353      0.717657      0.621656
     17.52071      5.03914     41.64177        -0.703055      0.672662      0.618134
     17.26745     14.32701     41.28460         0.439909      0.354037     -0.734519
      5.36978      0.70011     41.29655         0.057164      0.075394     -0.121361
      5.20493      9.89402     41.13660         0.719375      0.744288      1.071454
     14.34665      0.81092     41.20850         0.358048      0.605926      1.185806
     14.36362     10.01204     41.28342        -0.261381     -0.240599     -0.436523
      0.82731      3.68697     47.03596         0.021103     -0.029245     -0.107705
      0.82485     12.71837     47.03596         0.010200     -0.012985     -0.085999
      9.85771      3.68697     47.03596         0.020831     -0.027262     -0.089102
      9.85525     12.71837     47.03596         0.014678     -0.010722     -0.085325
      3.68432      8.20234     47.03465        -0.007332     -0.008731     -0.074300
      3.68186     17.23373     47.03465        -0.003403     -0.001683     -0.076260
     12.71472      8.20234     47.03465         0.007044      0.004711     -0.073830
     12.71226     17.23373     47.03465        -0.012184     -0.014718     -0.069799
      8.20068      5.34457     47.03603        -0.019388      0.014703     -0.094253
      8.19822     14.37597     47.03603        -0.025452      0.023291     -0.094041
     17.23108      5.34457     47.03603        -0.013425      0.008516     -0.109491
     17.22862     14.37597     47.03603        -0.027632      0.019662     -0.082412
      5.34365      0.82909     47.03465         0.014364      0.013413     -0.085632
      5.34119      9.86049     47.03465         0.013387      0.014514     -0.068314
     14.37405      0.82909     47.03465         0.010395      0.009431     -0.073594
     14.37159      9.86049     47.03465         0.027001      0.032831     -0.076528
     13.99154      9.42754     34.41536         0.111553     -0.591540     -0.034369
      9.10107     17.73570     34.63448         0.049220      0.019656      0.004570
      8.21668      8.64837     34.63724         0.111538      0.072347      0.034168
     18.05089      0.21518     34.49281        -0.017641      0.038123      0.051911
      0.66125      8.88073     34.81770        -0.152816      0.042300     -0.130592
      4.42375      4.44475     34.74855         0.146322      0.001471     -0.010758
      4.21688     13.92361     34.46409         0.082469     -0.037022      0.044501
     13.44849      4.06795     34.65960        -0.116646     -0.032343      0.118600
     12.91234     14.30552     34.10742         0.128934      0.048337      0.300946
      0.02071     17.98159     40.92115        -0.026229     -0.055574     -0.023848
      0.04932      9.09850     40.98758        -0.011931     -0.010354      0.115977
      8.97662      0.11246     40.91703        -0.010685     -0.036068      0.131077
      8.99821      9.05533     40.91835        -0.023695     -0.018503     -0.018755
      4.61823      4.31499     40.98776         0.030528     -0.002182      0.023419
      4.48663     13.58115     40.89093         0.040888     -0.009525     -0.036286
     13.40057      4.60174     40.97508         0.004814     -0.033886     -0.070812
     13.62883     13.62122     40.84808         0.006786     -0.014719      0.092119
      2.60549      1.90249     38.10902         0.061718      0.081425     -0.048990
      2.65055     10.96460     38.11738         0.004985      0.084849     -0.029375
     11.68060      1.91891     38.12629        -0.063159      0.039592     -0.035449
     11.01964     11.55440     38.39507         0.204220     -0.218527     -0.223771
      6.54457      7.00231     38.29918         0.069066     -0.029783      0.026964
      6.51792     16.02976     37.96831         0.090069      0.046621     -0.002533
     16.08118      6.51823     38.50206        -0.102394      0.172116     -0.247749
     15.58919     16.04786     38.01923         0.027228     -0.003619     -0.035078
      2.12566      6.54979     38.34316         0.027480     -0.053495     -0.102484
      2.13001     15.79858     38.02276        -0.056835     -0.021601     -0.061922
     11.13758      6.67893     37.89079        -0.025730      0.001409      0.015990
     11.20825     15.65667     38.31755        -0.125611      0.053253     -0.117720
      7.15039      2.53838     37.96587         0.042752      0.030561     -0.031360
      6.87625     11.51306     37.92053        -0.013661     -0.013886     -0.000823
     16.01995      2.46989     38.33073        -0.058334      0.043526      0.027794
     16.51342     11.99050     38.37321        -0.189973     -0.233522     -0.306355
      0.00000      0.00000     47.17356         0.000410      0.003000      0.401870
     -0.00246      9.03140     47.17356        -0.004649      0.001624      0.534722
      9.03040      0.00000     47.17356        -0.003576     -0.001795      0.440985
      9.02794      9.03140     47.17356        -0.002893      0.002082      0.482356
      4.51398      4.51570     47.17425        -0.000491     -0.009008      0.501883
      4.51152     13.54710     47.17425         0.001944      0.004794      0.393246
     13.54438      4.51570     47.17425         0.001570     -0.003662      0.454858
     13.54192     13.54710     47.17425         0.000836     -0.000369      0.267730
      2.45192      2.06295     44.04013         0.018854     -0.061963      0.030073
      2.44946     11.09435     44.04013         0.073252     -0.043555      0.081665
     11.48232      2.06295     44.04013        -0.002784     -0.059137     -0.025466
     11.47986     11.09435     44.04013         0.030871      0.048393     -0.036241
      6.57602      6.96845     44.04013        -0.060905     -0.015070     -0.016992
      6.57356     15.99985     44.04013         0.001786      0.010995     -0.007996
     15.60642      6.96845     44.04013        -0.056713      0.041122     -0.022580
     15.60396     15.99985     44.04013        -0.040843      0.008601      0.013157
      2.06108      6.57881     44.04000         0.021221     -0.046352      0.020108
      2.05862     15.61021     44.04000         0.039597      0.064256     -0.018845
     11.09148      6.57881     44.04000         0.019059      0.005871      0.003668
     11.08902     15.61021     44.04000        -0.015412     -0.008647     -0.025080
      6.96686      2.45259     44.04007         0.064945      0.026871      0.018788
      6.96440     11.48399     44.04007        -0.043289      0.012842     -0.042847
     15.99726      2.45259     44.04007         0.005863     -0.011853     -0.010435
     15.99481     11.48399     44.04007         0.055705      0.111816      0.021422
      2.43163      2.08322     50.06849        -0.002765     -0.023195      0.018665
      2.42917     11.11462     50.06849         0.019329      0.001129      0.021541
     11.46203      2.08322     50.06849         0.005970     -0.015973      0.020614
     11.45957     11.11462     50.06849         0.027637      0.008410      0.020738
      6.59631      6.94818     50.06849        -0.008127      0.011736      0.021747
      6.59385     15.97958     50.06849        -0.011276      0.009332      0.019379
     15.62671      6.94818     50.06849        -0.015137      0.004490      0.020267
     15.62425     15.97958     50.06849        -0.019445      0.002544      0.020381
      2.08113      6.59901     50.06905        -0.011022     -0.011242      0.021367
      2.07867     15.63041     50.06905        -0.012888     -0.006847      0.020258
     11.11153      6.59901     50.06905        -0.008180     -0.011982      0.022031
     11.10907     15.63041     50.06905         0.001550     -0.022631      0.019512
      6.94681      2.43239     50.06905         0.017721     -0.000759      0.019689
      6.94435     11.46379     50.06905         0.003098      0.019092      0.021960
     15.97721      2.43239     50.06905         0.017215      0.001486      0.020602
     15.97475     11.46379     50.06905        -0.011401      0.031536      0.020160
     17.98573      0.12655     37.79940         0.062379     -0.040578     -0.066605
      0.15480      9.10702     37.86455        -0.026647      0.009622     -0.008884
      9.09801     17.96979     37.77114        -0.029406     -0.031964     -0.085803
      8.93699      9.03485     37.67043        -0.033585     -0.021951      0.040604
      4.56381      4.49555     37.86387        -0.062287      0.025764     -0.010379
      4.37441     13.68653     37.72573         0.001722     -0.053205     -0.054759
     13.56582      4.62888     37.88108         0.022504     -0.104930     -0.064699
     13.52346     13.64522     37.80648         0.062768     -0.025613     -0.152091
      0.00001      0.00001     44.04300        -0.040185     -0.083825      0.161835
     -0.00245      9.03141     44.04300         0.094414     -0.068027      0.118927
      9.03041      0.00001     44.04300         0.026696     -0.017982      0.095916
      9.02795      9.03141     44.04300         0.055585     -0.022192     -0.011363
      4.51397      4.51569     44.04275        -0.015520      0.071114      0.208438
      4.51151     13.54709     44.04275        -0.077044     -0.028611      0.104783
     13.54437      4.51569     44.04275        -0.044805      0.047295      0.238128
     13.54191     13.54709     44.04275        -0.096491      0.023669      0.169257
      0.00000      0.00000     50.44728         0.008509      0.012997     -0.622912
     -0.00246      9.03140     50.44728         0.007885     -0.014637     -0.658477
      9.03040      0.00000     50.44728        -0.007801      0.015828     -0.633158
      9.02794      9.03140     50.44728        -0.010516     -0.014432     -0.648492
      4.51397      4.51570     50.44728         0.000634      0.011886     -0.648713
      4.51151     13.54710     50.44728         0.000728     -0.012627     -0.622890
     13.54437      4.51570     50.44728        -0.002985      0.010903     -0.638660
     13.54191     13.54710     50.44728        -0.000092     -0.011300     -0.588304
 -----------------------------------------------------------------------------------
    total drift:                                0.134185      0.041365     -0.150127


--------------------------------------------------------------------------------------------------------



  FREE ENERGIE OF THE ION-ELECTRON SYSTEM (eV)
  ---------------------------------------------------
  free  energy   TOTEN  =     -1574.57572767 eV

  energy  without entropy=    -1574.57572767  energy(sigma->0) =    -1574.57572767
 


--------------------------------------------------------------------------------------------------------


    POTLOK:  cpu time    0.5665: real time    0.5663


--------------------------------------------------------------------------------------------------------


     LOOP+:  cpu time  322.7652: real time  323.3202
 vacuum level on the upper side and lower side of the slab         2.247         1.636
    4ORBIT:  cpu time    0.0000: real time    0.0000

 total amount of memory used by VASP MPI-rank0  8653589. kBytes
=======================================================================

   base      :      30000. kBytes
   nonlr-proj:      53627. kBytes
   fftplans  :     249280. kBytes
   grid      :     701440. kBytes
   one-center:       2636. kBytes
   wavefun   :    7616606. kBytes
 
  
  
 General timing and accounting informations for this job:
 ========================================================
  
                  Total CPU time used (sec):      535.082
                            User time (sec):      430.319
                          System time (sec):      104.763
                         Elapsed time (sec):      538.096
  
                   Maximum memory used (kb):    10339288.
                   Average memory used (kb):          N/A
  
                          Minor page faults:      3816255
                          Major page faults:           12
                 Voluntary context switches:        11634
