<?xml version="1.0" encoding="ISO-8859-1"?>
<modeling>
 <generator>
  <i name="program" type="string">vasp </i>
  <i name="version" type="string">6.2.1  </i>
  <i name="subversion" type="string">16May21 (build Nov 15 2021 14:57:28) complex                          parallel </i>
  <i name="platform" type="string">LinuxPGI </i>
  <i name="date" type="string">2023 07 30 </i>
  <i name="time" type="string">11:22:12 </i>
 </generator>
 <incar>
  <i type="string" name="SYSTEM">PSC</i>
  <i type="int" name="ISTART">     1</i>
  <i type="string" name="PREC">Normal</i>
  <i name="BMIX">      0.01000000</i>
  <i name="AMIN">      0.01000000</i>
  <i type="int" name="ICHARG">     1</i>
  <i type="int" name="NELM">   600</i>
  <i type="int" name="ISYM">     0</i>
  <i name="ENCUT">    500.00000000</i>
  <i type="string" name="LREAL">Auto</i>
  <i type="int" name="ISMEAR">     0</i>
  <i name="SIGMA">      0.05000000</i>
  <i type="logical" name="LWAVE"> F  </i>
  <i type="logical" name="LVTOT"> T  </i>
  <i type="logical" name="GGA_COMPAT"> F  </i>
  <i type="logical" name="LDIPOL"> T  </i>
  <i type="int" name="IDIPOL">     3</i>
  <i type="int" name="IVDW">    12</i>
 </incar>
 <primitive_cell>
  <structure name="primitive_cell" >
   <crystal>
    <varray name="basis" >
     <v>      18.06080055       0.00000000       0.00000000 </v>
     <v>      -0.00491865      18.06279945       0.00000000 </v>
     <v>       0.00000000       0.00000000      62.48749924 </v>
    </varray>
    <i name="volume">  20385.21054034 </i>
    <varray name="rec_basis" >
     <v>       0.05536853       0.00001508      -0.00000000 </v>
     <v>       0.00000000       0.05536240       0.00000000 </v>
     <v>       0.00000000      -0.00000000       0.01600320 </v>
    </varray>
   </crystal>
   <varray name="positions" >
    <v>       0.42172411       0.25770656       0.57935141 </v>
    <v>       0.41108948       0.72906352       0.57578435 </v>
    <v>       0.92939941       0.28451684       0.58128405 </v>
    <v>       0.94137823       0.81427415       0.57795013 </v>
    <v>       0.31567181       0.06646523       0.57623110 </v>
    <v>       0.30597857       0.58166163       0.57418778 </v>
    <v>       0.79376901       0.07665832       0.57959933 </v>
    <v>       0.10723362       0.21197966       0.56504612 </v>
    <v>       0.08208149       0.67380940       0.56757910 </v>
    <v>       0.60717338       0.19944019       0.56438296 </v>
    <v>       0.60525462       0.74547241       0.56261430 </v>
    <v>       0.37313013       0.01278600       0.56020433 </v>
    <v>       0.26110820       0.61879568       0.55202942 </v>
    <v>       0.86666870       0.04393107       0.56383586 </v>
    <v>       0.06405997       0.26631042       0.58480142 </v>
    <v>       0.00262610       0.69011830       0.58304966 </v>
    <v>       0.53139226       0.17612658       0.58109859 </v>
    <v>       0.54198534       0.69285903       0.57942534 </v>
    <v>       0.28126978       0.44805208       0.58223022 </v>
    <v>       0.18025570       0.03886193       0.57427984 </v>
    <v>       0.67567729       0.00909845       0.57767066 </v>
    <v>       0.42666935       0.33293505       0.56152772 </v>
    <v>       0.39012994       0.79869989       0.55727473 </v>
    <v>       0.88518771       0.24097252       0.55947012 </v>
    <v>       0.98271040       0.87238336       0.55914168 </v>
    <v>       0.21845949       0.40208727       0.56586715 </v>
    <v>       0.15197155       0.97071748       0.55622905 </v>
    <v>       0.67521954       0.92883889       0.56161379 </v>
    <v>       0.54388956       0.29797255       0.54878506 </v>
    <v>       0.51656826       0.81175296       0.54709105 </v>
    <v>       0.99637214       0.19488025       0.54630928 </v>
    <v>       0.07448200       0.78664047       0.55027101 </v>
    <v>       0.19829973       0.50778523       0.54471424 </v>
    <v>       0.27458135       0.94593023       0.54556505 </v>
    <v>       0.79528670       0.94522697       0.55063577 </v>
    <v>       0.43781961       0.28145880       0.67598353 </v>
    <v>       0.43078199       0.82129873       0.67185850 </v>
    <v>       0.97458256       0.27310166       0.68274966 </v>
    <v>       0.93177112       0.77594619       0.67423214 </v>
    <v>       0.29391205       0.04580056       0.67698160 </v>
    <v>       0.30008567       0.55190600       0.67445466 </v>
    <v>       0.79345232       0.05679183       0.67563361 </v>
    <v>       0.80984474       0.54841375       0.67652685 </v>
    <v>       0.08433987       0.16584459       0.64413488 </v>
    <v>       0.10058261       0.69057183       0.65392895 </v>
    <v>       0.58178691       0.17438357       0.64876208 </v>
    <v>       0.56190648       0.67658054       0.65513769 </v>
    <v>       0.18145486       0.40750352       0.65074155 </v>
    <v>       0.17089060       0.92255370       0.64593523 </v>
    <v>       0.66865481       0.43089705       0.65093983 </v>
    <v>       0.66850682       0.92315775       0.64950296 </v>
    <v>       0.07355194       0.17509301       0.67176400 </v>
    <v>       0.03748750       0.68006878       0.67482809 </v>
    <v>       0.53690594       0.17920158       0.67308653 </v>
    <v>       0.52458601       0.71657253       0.67822843 </v>
    <v>       0.21337046       0.43562038       0.67557299 </v>
    <v>       0.18548332       0.94828331       0.67232271 </v>
    <v>       0.70981484       0.44400033       0.67550224 </v>
    <v>       0.68760043       0.95789977       0.67476808 </v>
    <v>       0.42781796       0.33354273       0.65275898 </v>
    <v>       0.41620741       0.84024846       0.64485933 </v>
    <v>       0.93263298       0.31709210       0.66094885 </v>
    <v>       0.93566245       0.83789981       0.65279323 </v>
    <v>       0.33730879       0.06901596       0.65346823 </v>
    <v>       0.31194223       0.58729308       0.64919137 </v>
    <v>       0.83177725       0.07350347       0.65086523 </v>
    <v>       0.82171029       0.59499294       0.65193032 </v>
    <v>       0.99850956       0.25297277       0.63533612 </v>
    <v>       0.04110534       0.78780297       0.63847469 </v>
    <v>       0.51700374       0.27084585       0.63402800 </v>
    <v>       0.49709112       0.75155613       0.63243313 </v>
    <v>       0.26300971       0.99485783       0.63240249 </v>
    <v>       0.23970991       0.49937736       0.63226452 </v>
    <v>       0.75652527       0.99164650       0.63265687 </v>
    <v>       0.73329810       0.52481972       0.63410553 </v>
    <v>       0.44874502       0.30128397       0.76888902 </v>
    <v>       0.44874501       0.80128391       0.76888902 </v>
    <v>       0.94874497       0.30128397       0.76888902 </v>
    <v>       0.94874501       0.80128391       0.76888902 </v>
    <v>       0.30127600       0.05129450       0.76887296 </v>
    <v>       0.30127601       0.55129450       0.76887296 </v>
    <v>       0.80127594       0.05129450       0.76887296 </v>
    <v>       0.80127598       0.55129450       0.76887296 </v>
    <v>       0.07877100       0.17118050       0.74344197 </v>
    <v>       0.07877101       0.67118045       0.74344197 </v>
    <v>       0.57877100       0.17118050       0.74344197 </v>
    <v>       0.57877099       0.67118045       0.74344197 </v>
    <v>       0.17119950       0.42117448       0.74342103 </v>
    <v>       0.17119950       0.92117451       0.74342103 </v>
    <v>       0.67119951       0.42117448       0.74342103 </v>
    <v>       0.67119950       0.92117451       0.74342103 </v>
    <v>       0.05125600       0.19871499       0.76888902 </v>
    <v>       0.05125600       0.69871493       0.76888902 </v>
    <v>       0.55125603       0.19871499       0.76888902 </v>
    <v>       0.55125602       0.69871493       0.76888902 </v>
    <v>       0.19872349       0.44870397       0.76887205 </v>
    <v>       0.19872349       0.94870397       0.76887205 </v>
    <v>       0.69872352       0.44870397       0.76887205 </v>
    <v>       0.69872351       0.94870397       0.76887205 </v>
    <v>       0.42123152       0.32881747       0.74344197 </v>
    <v>       0.42123151       0.82881744       0.74344197 </v>
    <v>       0.92123147       0.32881747       0.74344197 </v>
    <v>       0.92123151       0.82881744       0.74344197 </v>
    <v>       0.32880050       0.07882500       0.74342103 </v>
    <v>       0.32880049       0.57882496       0.74342103 </v>
    <v>       0.82880048       0.07882500       0.74342103 </v>
    <v>       0.82880052       0.57882496       0.74342103 </v>
    <v>       0.00000350       0.25000148       0.72582199 </v>
    <v>       0.00000350       0.75000145       0.72582199 </v>
    <v>       0.50000351       0.25000148       0.72582199 </v>
    <v>       0.50000350       0.75000145       0.72582199 </v>
    <v>       0.25000050       0.00000000       0.72580398 </v>
    <v>       0.25000052       0.50000000       0.72580398 </v>
    <v>       0.75000050       0.00000000       0.72580398 </v>
    <v>       0.75000049       0.50000000       0.72580398 </v>
    <v>       0.78920515       0.50885755       0.51738138 </v>
    <v>       0.87213932       0.50504039       0.53212621 </v>
    <v>       0.75241725       0.62638867       0.53774434 </v>
    <v>       0.76754688       0.62500321       0.56543731 </v>
    <v>       0.68078494       0.45317852       0.55592662 </v>
    <v>       0.66899137       0.54776101       0.56237646 </v>
    <v>       0.79834246       0.42926533       0.57004511 </v>
    <v>       0.86381680       0.50082174       0.57060186 </v>
    <v>       0.86138563       0.37927158       0.54102307 </v>
    <v>       0.76594046       0.37475580       0.53628616 </v>
    <v>       0.77860144       0.37868102       0.49897901 </v>
    <v>       0.86785880       0.41839513       0.49886864 </v>
    <v>       0.89305900       0.61080453       0.53249536 </v>
    <v>       0.90232600       0.60994245       0.56102719 </v>
    <v>       0.86783327       0.68896340       0.54778095 </v>
    <v>       0.59608860       0.52148423       0.53106465 </v>
    <v>       0.67143471       0.48462552       0.51631830 </v>
    <v>       0.66688364       0.58043814       0.52261881 </v>
    <v>       0.71858386       0.48429780       0.59577083 </v>
    <v>       0.75502820       0.57550045       0.59231891 </v>
    <v>       0.80917552       0.50579803       0.60522243 </v>
    <v>       0.83319269       0.26172283       0.51639729 </v>
    <v>       0.84803791       0.27813054       0.48937406 </v>
    <v>       0.93671479       0.17158253       0.50159529 </v>
    <v>       0.97366012       0.40214339       0.51517280 </v>
    <v>       0.07108059       0.14829069       0.50387388 </v>
    <v>       0.10810202       0.37831468       0.51761415 </v>
    <v>       0.15758304       0.25261314       0.51212935 </v>
    <v>       0.99682925       0.22721325       0.56112505 </v>
    <v>       0.03251885       0.77205421       0.56158626 </v>
    <v>       0.51614182       0.26519328       0.56110332 </v>
    <v>       0.49865179       0.77058284       0.55882008 </v>
    <v>       0.23723764       0.51059961       0.55813690 </v>
    <v>       0.26340470       0.99007610       0.55726148 </v>
    <v>       0.77087017       0.98550423       0.56180957 </v>
    <v>       0.00787017       0.24212166       0.65229508 </v>
    <v>       0.01711364       0.76448085       0.65292881 </v>
    <v>       0.50487316       0.25506100       0.65012668 </v>
    <v>       0.48890332       0.75922732       0.64955753 </v>
    <v>       0.24716729       0.49797415       0.64943580 </v>
    <v>       0.25415787       0.99567847       0.64944020 </v>
    <v>       0.74461284       0.51280328       0.65110423 </v>
    <v>       0.75123694       0.99859813       0.64977797 </v>
    <v>       0.49998898       0.24999498       0.74327702 </v>
    <v>       0.49998903       0.74999496       0.74327702 </v>
    <v>       0.99998898       0.24999498       0.74327702 </v>
    <v>       0.99998903       0.74999496       0.74327702 </v>
    <v>       0.25000050       0.00000100       0.74325596 </v>
    <v>       0.25000052       0.50000100       0.74325596 </v>
    <v>       0.75000050       0.00000100       0.74325596 </v>
    <v>       0.75000049       0.50000100       0.74325596 </v>
    <v>       0.94420559       0.28941916       0.50802278 </v>
    <v>       0.97447752       0.21717010       0.50518130 </v>
    <v>       0.99341719       0.34588171       0.51278829 </v>
    <v>       0.05058658       0.20412458       0.50613383 </v>
    <v>       0.07031175       0.33279910       0.51423481 </v>
    <v>       0.09835620       0.26248695       0.51068567 </v>
    <v>       0.81486300       0.48451538       0.53193751 </v>
    <v>       0.78899649       0.60430244       0.55011381 </v>
    <v>       0.69126577       0.51000685       0.55015740 </v>
    <v>       0.80453257       0.48974109       0.57135512 </v>
    <v>       0.81739770       0.40180229       0.53090343 </v>
    <v>       0.83149783       0.37738504       0.50767842 </v>
    <v>       0.86819378       0.62833147       0.54754201 </v>
    <v>       0.65583592       0.52459803       0.52861305 </v>
    <v>       0.76894787       0.51605034       0.59213485 </v>
    <v>       0.86233994       0.29935743       0.50531869 </v>
    <v>       0.05980692       0.23203257       0.57149993 </v>
    <v>       0.03889643       0.70757823       0.57111295 </v>
    <v>       0.55221433       0.20733440       0.56879950 </v>
    <v>       0.55124969       0.72822868       0.56659111 </v>
    <v>       0.45086955       0.28608591       0.56743399 </v>
    <v>       0.42939690       0.76710854       0.56449438 </v>
    <v>       0.93318847       0.25458691       0.56738027 </v>
    <v>       0.97988367       0.82025276       0.56574487 </v>
    <v>       0.24564295       0.45051921       0.56986221 </v>
    <v>       0.19458616       0.00062416       0.56323033 </v>
    <v>       0.70095449       0.97684308       0.56679299 </v>
    <v>       0.31952668       0.02767813       0.56474162 </v>
    <v>       0.27026447       0.57295660       0.56194492 </v>
    <v>       0.81203878       0.03925157       0.56907067 </v>
    <v>       0.05858334       0.19074346       0.65651510 </v>
    <v>       0.05411481       0.70759127       0.66137679 </v>
    <v>       0.54368724       0.19897982       0.65798842 </v>
    <v>       0.52814600       0.71571008       0.66200478 </v>
    <v>       0.21229523       0.44409267       0.65937810 </v>
    <v>       0.20092390       0.95381718       0.65659977 </v>
    <v>       0.70655939       0.46029481       0.66009473 </v>
    <v>       0.69992799       0.95748612       0.65878399 </v>
    <v>       0.45418927       0.29156396       0.66027086 </v>
    <v>       0.44333718       0.80960087       0.65604070 </v>
    <v>       0.97017178       0.27897868       0.66640154 </v>
    <v>       0.95628958       0.79317778       0.66068580 </v>
    <v>       0.29732715       0.03875957       0.66087700 </v>
    <v>       0.28833871       0.54775695       0.65831722 </v>
    <v>       0.79436491       0.04489440       0.65946790 </v>
    <v>       0.79544338       0.55429050       0.66066693 </v>
    <v>       0.04586250       0.20411950       0.75272599 </v>
    <v>       0.04586250       0.70411946       0.75272599 </v>
    <v>       0.54586251       0.20411950       0.75272599 </v>
    <v>       0.54586250       0.70411946       0.75272599 </v>
    <v>       0.20411900       0.45410100       0.75270499 </v>
    <v>       0.20411899       0.95410095       0.75270499 </v>
    <v>       0.70411898       0.45410100       0.75270499 </v>
    <v>       0.70411896       0.95410095       0.75270499 </v>
    <v>       0.45414002       0.29588849       0.75272697 </v>
    <v>       0.45414001       0.79588852       0.75272697 </v>
    <v>       0.95414002       0.29588849       0.75272697 </v>
    <v>       0.95414006       0.79588852       0.75272697 </v>
    <v>       0.29588249       0.04590050       0.75270499 </v>
    <v>       0.29588248       0.54590053       0.75270499 </v>
    <v>       0.79588244       0.04590050       0.75270499 </v>
    <v>       0.79588248       0.54590053       0.75270499 </v>
    <v>       0.77483326       0.52193100       0.55075591 </v>
    <v>       0.50418038       0.98189124       0.55426259 </v>
    <v>       0.45507572       0.47879433       0.55430673 </v>
    <v>       0.99945450       0.01191307       0.55199535 </v>
    <v>       0.03674613       0.49165860       0.55719464 </v>
    <v>       0.24500358       0.24607227       0.55608797 </v>
    <v>       0.23369248       0.77084445       0.55153579 </v>
    <v>       0.74468432       0.22521150       0.55466453 </v>
    <v>       0.71515321       0.79198814       0.54582786 </v>
    <v>       0.00141771       0.99550421       0.65486939 </v>
    <v>       0.00286779       0.50371469       0.65593253 </v>
    <v>       0.49702410       0.00622616       0.65480345 </v>
    <v>       0.49835425       0.50132475       0.65482452 </v>
    <v>       0.25576953       0.23888804       0.65593533 </v>
    <v>       0.24862264       0.75188538       0.65438583 </v>
    <v>       0.74203904       0.25476314       0.65573247 </v>
    <v>       0.75481388       0.75410352       0.65369996 </v>
    <v>       0.14429106       0.10532663       0.60986630 </v>
    <v>       0.14692227       0.60702638       0.61000006 </v>
    <v>       0.64676677       0.10623534       0.61014267 </v>
    <v>       0.61031554       0.63967938       0.61444400 </v>
    <v>       0.36246883       0.38766481       0.61290945 </v>
    <v>       0.36112924       0.88744628       0.60761445 </v>
    <v>       0.89048973       0.36086470       0.61615626 </v>
    <v>       0.86339238       0.88844827       0.60842931 </v>
    <v>       0.11779359       0.36261196       0.61361333 </v>
    <v>       0.11817388       0.87464738       0.60848590 </v>
    <v>       0.61677219       0.36976156       0.60637397 </v>
    <v>       0.62082051       0.86679066       0.61320346 </v>
    <v>       0.39594493       0.14053091       0.60757538 </v>
    <v>       0.38090131       0.63739092       0.60684989 </v>
    <v>       0.88703807       0.13673915       0.61341438 </v>
    <v>       0.91450471       0.66382288       0.61409420 </v>
    <v>       0.00000000       0.00000000       0.75492797 </v>
    <v>       0.00000000       0.50000000       0.75492797 </v>
    <v>       0.50000000       0.00000000       0.75492797 </v>
    <v>       0.49999999       0.50000000       0.75492797 </v>
    <v>       0.25000050       0.25000000       0.75493902 </v>
    <v>       0.25000051       0.74999997       0.75493902 </v>
    <v>       0.75000047       0.25000000       0.75493902 </v>
    <v>       0.75000046       0.74999997       0.75493902 </v>
    <v>       0.13579050       0.11421000       0.70478299 </v>
    <v>       0.13579050       0.61420998       0.70478299 </v>
    <v>       0.63579045       0.11421000       0.70478299 </v>
    <v>       0.63579049       0.61420998       0.70478299 </v>
    <v>       0.36420952       0.38578999       0.70478299 </v>
    <v>       0.36420950       0.88578996       0.70478299 </v>
    <v>       0.86420954       0.38578999       0.70478299 </v>
    <v>       0.86420953       0.88578996       0.70478299 </v>
    <v>       0.11421799       0.36421899       0.70478098 </v>
    <v>       0.11421799       0.86421899       0.70478098 </v>
    <v>       0.61421800       0.36421899       0.70478098 </v>
    <v>       0.61421799       0.86421899       0.70478098 </v>
    <v>       0.38578201       0.13578149       0.70478202 </v>
    <v>       0.38578200       0.63578149       0.70478202 </v>
    <v>       0.88578199       0.13578149       0.70478202 </v>
    <v>       0.88578203       0.63578149       0.70478202 </v>
    <v>       0.13466700       0.11533200       0.80125603 </v>
    <v>       0.13466699       0.61533199       0.80125603 </v>
    <v>       0.63466699       0.11533200       0.80125603 </v>
    <v>       0.63466698       0.61533199       0.80125603 </v>
    <v>       0.36533300       0.38466799       0.80125603 </v>
    <v>       0.36533299       0.88466796       0.80125603 </v>
    <v>       0.86533295       0.38466799       0.80125603 </v>
    <v>       0.86533294       0.88466796       0.80125603 </v>
    <v>       0.11532850       0.36533700       0.80126500 </v>
    <v>       0.11532850       0.86533698       0.80126500 </v>
    <v>       0.61532850       0.36533700       0.80126500 </v>
    <v>       0.61532849       0.86533698       0.80126500 </v>
    <v>       0.38467151       0.13466300       0.80126500 </v>
    <v>       0.38467150       0.63466297       0.80126500 </v>
    <v>       0.88467149       0.13466300       0.80126500 </v>
    <v>       0.88467153       0.63466297       0.80126500 </v>
    <v>       0.99584531       0.00700607       0.60491146 </v>
    <v>       0.00870834       0.50418654       0.60595402 </v>
    <v>       0.50401457       0.99485052       0.60445922 </v>
    <v>       0.49496427       0.50019086       0.60284751 </v>
    <v>       0.25275949       0.24888454       0.60594310 </v>
    <v>       0.24241097       0.75771905       0.60373251 </v>
    <v>       0.75118925       0.25626590       0.60621860 </v>
    <v>       0.74897961       0.75543243       0.60502470 </v>
    <v>       0.00000050       0.00000050       0.70482896 </v>
    <v>       0.00000050       0.50000048       0.70482896 </v>
    <v>       0.50000048       0.00000050       0.70482896 </v>
    <v>       0.50000046       0.50000048       0.70482896 </v>
    <v>       0.24999999       0.24999947       0.70482499 </v>
    <v>       0.25000001       0.74999950       0.70482499 </v>
    <v>       0.74999999       0.24999947       0.70482499 </v>
    <v>       0.74999998       0.74999950       0.70482499 </v>
    <v>       0.00000000       0.00000000       0.80731797 </v>
    <v>       0.00000000       0.50000000       0.80731797 </v>
    <v>       0.50000000       0.00000000       0.80731797 </v>
    <v>       0.49999999       0.50000000       0.80731797 </v>
    <v>       0.24999999       0.25000000       0.80731797 </v>
    <v>       0.25000001       0.74999997       0.80731797 </v>
    <v>       0.74999999       0.25000000       0.80731797 </v>
    <v>       0.74999998       0.74999997       0.80731797 </v>
   </varray>
  </structure>
  <varray name="primitive_index" >
   <v type="int" >        1 </v>
   <v type="int" >        2 </v>
   <v type="int" >        3 </v>
   <v type="int" >        4 </v>
   <v type="int" >        5 </v>
   <v type="int" >        6 </v>
   <v type="int" >        7 </v>
   <v type="int" >        8 </v>
   <v type="int" >        9 </v>
   <v type="int" >       10 </v>
   <v type="int" >       11 </v>
   <v type="int" >       12 </v>
   <v type="int" >       13 </v>
   <v type="int" >       14 </v>
   <v type="int" >       15 </v>
   <v type="int" >       16 </v>
   <v type="int" >       17 </v>
   <v type="int" >       18 </v>
   <v type="int" >       19 </v>
   <v type="int" >       20 </v>
   <v type="int" >       21 </v>
   <v type="int" >       22 </v>
   <v type="int" >       23 </v>
   <v type="int" >       24 </v>
   <v type="int" >       25 </v>
   <v type="int" >       26 </v>
   <v type="int" >       27 </v>
   <v type="int" >       28 </v>
   <v type="int" >       29 </v>
   <v type="int" >       30 </v>
   <v type="int" >       31 </v>
   <v type="int" >       32 </v>
   <v type="int" >       33 </v>
   <v type="int" >       34 </v>
   <v type="int" >       35 </v>
   <v type="int" >       36 </v>
   <v type="int" >       37 </v>
   <v type="int" >       38 </v>
   <v type="int" >       39 </v>
   <v type="int" >       40 </v>
   <v type="int" >       41 </v>
   <v type="int" >       42 </v>
   <v type="int" >       43 </v>
   <v type="int" >       44 </v>
   <v type="int" >       45 </v>
   <v type="int" >       46 </v>
   <v type="int" >       47 </v>
   <v type="int" >       48 </v>
   <v type="int" >       49 </v>
   <v type="int" >       50 </v>
   <v type="int" >       51 </v>
   <v type="int" >       52 </v>
   <v type="int" >       53 </v>
   <v type="int" >       54 </v>
   <v type="int" >       55 </v>
   <v type="int" >       56 </v>
   <v type="int" >       57 </v>
   <v type="int" >       58 </v>
   <v type="int" >       59 </v>
   <v type="int" >       60 </v>
   <v type="int" >       61 </v>
   <v type="int" >       62 </v>
   <v type="int" >       63 </v>
   <v type="int" >       64 </v>
   <v type="int" >       65 </v>
   <v type="int" >       66 </v>
   <v type="int" >       67 </v>
   <v type="int" >       68 </v>
   <v type="int" >       69 </v>
   <v type="int" >       70 </v>
   <v type="int" >       71 </v>
   <v type="int" >       72 </v>
   <v type="int" >       73 </v>
   <v type="int" >       74 </v>
   <v type="int" >       75 </v>
   <v type="int" >       76 </v>
   <v type="int" >       77 </v>
   <v type="int" >       78 </v>
   <v type="int" >       79 </v>
   <v type="int" >       80 </v>
   <v type="int" >       81 </v>
   <v type="int" >       82 </v>
   <v type="int" >       83 </v>
   <v type="int" >       84 </v>
   <v type="int" >       85 </v>
   <v type="int" >       86 </v>
   <v type="int" >       87 </v>
   <v type="int" >       88 </v>
   <v type="int" >       89 </v>
   <v type="int" >       90 </v>
   <v type="int" >       91 </v>
   <v type="int" >       92 </v>
   <v type="int" >       93 </v>
   <v type="int" >       94 </v>
   <v type="int" >       95 </v>
   <v type="int" >       96 </v>
   <v type="int" >       97 </v>
   <v type="int" >       98 </v>
   <v type="int" >       99 </v>
   <v type="int" >      100 </v>
   <v type="int" >      101 </v>
   <v type="int" >      102 </v>
   <v type="int" >      103 </v>
   <v type="int" >      104 </v>
   <v type="int" >      105 </v>
   <v type="int" >      106 </v>
   <v type="int" >      107 </v>
   <v type="int" >      108 </v>
   <v type="int" >      109 </v>
   <v type="int" >      110 </v>
   <v type="int" >      111 </v>
   <v type="int" >      112 </v>
   <v type="int" >      113 </v>
   <v type="int" >      114 </v>
   <v type="int" >      115 </v>
   <v type="int" >      116 </v>
   <v type="int" >      117 </v>
   <v type="int" >      118 </v>
   <v type="int" >      119 </v>
   <v type="int" >      120 </v>
   <v type="int" >      121 </v>
   <v type="int" >      122 </v>
   <v type="int" >      123 </v>
   <v type="int" >      124 </v>
   <v type="int" >      125 </v>
   <v type="int" >      126 </v>
   <v type="int" >      127 </v>
   <v type="int" >      128 </v>
   <v type="int" >      129 </v>
   <v type="int" >      130 </v>
   <v type="int" >      131 </v>
   <v type="int" >      132 </v>
   <v type="int" >      133 </v>
   <v type="int" >      134 </v>
   <v type="int" >      135 </v>
   <v type="int" >      136 </v>
   <v type="int" >      137 </v>
   <v type="int" >      138 </v>
   <v type="int" >      139 </v>
   <v type="int" >      140 </v>
   <v type="int" >      141 </v>
   <v type="int" >      142 </v>
   <v type="int" >      143 </v>
   <v type="int" >      144 </v>
   <v type="int" >      145 </v>
   <v type="int" >      146 </v>
   <v type="int" >      147 </v>
   <v type="int" >      148 </v>
   <v type="int" >      149 </v>
   <v type="int" >      150 </v>
   <v type="int" >      151 </v>
   <v type="int" >      152 </v>
   <v type="int" >      153 </v>
   <v type="int" >      154 </v>
   <v type="int" >      155 </v>
   <v type="int" >      156 </v>
   <v type="int" >      157 </v>
   <v type="int" >      158 </v>
   <v type="int" >      159 </v>
   <v type="int" >      160 </v>
   <v type="int" >      161 </v>
   <v type="int" >      162 </v>
   <v type="int" >      163 </v>
   <v type="int" >      164 </v>
   <v type="int" >      165 </v>
   <v type="int" >      166 </v>
   <v type="int" >      167 </v>
   <v type="int" >      168 </v>
   <v type="int" >      169 </v>
   <v type="int" >      170 </v>
   <v type="int" >      171 </v>
   <v type="int" >      172 </v>
   <v type="int" >      173 </v>
   <v type="int" >      174 </v>
   <v type="int" >      175 </v>
   <v type="int" >      176 </v>
   <v type="int" >      177 </v>
   <v type="int" >      178 </v>
   <v type="int" >      179 </v>
   <v type="int" >      180 </v>
   <v type="int" >      181 </v>
   <v type="int" >      182 </v>
   <v type="int" >      183 </v>
   <v type="int" >      184 </v>
   <v type="int" >      185 </v>
   <v type="int" >      186 </v>
   <v type="int" >      187 </v>
   <v type="int" >      188 </v>
   <v type="int" >      189 </v>
   <v type="int" >      190 </v>
   <v type="int" >      191 </v>
   <v type="int" >      192 </v>
   <v type="int" >      193 </v>
   <v type="int" >      194 </v>
   <v type="int" >      195 </v>
   <v type="int" >      196 </v>
   <v type="int" >      197 </v>
   <v type="int" >      198 </v>
   <v type="int" >      199 </v>
   <v type="int" >      200 </v>
   <v type="int" >      201 </v>
   <v type="int" >      202 </v>
   <v type="int" >      203 </v>
   <v type="int" >      204 </v>
   <v type="int" >      205 </v>
   <v type="int" >      206 </v>
   <v type="int" >      207 </v>
   <v type="int" >      208 </v>
   <v type="int" >      209 </v>
   <v type="int" >      210 </v>
   <v type="int" >      211 </v>
   <v type="int" >      212 </v>
   <v type="int" >      213 </v>
   <v type="int" >      214 </v>
   <v type="int" >      215 </v>
   <v type="int" >      216 </v>
   <v type="int" >      217 </v>
   <v type="int" >      218 </v>
   <v type="int" >      219 </v>
   <v type="int" >      220 </v>
   <v type="int" >      221 </v>
   <v type="int" >      222 </v>
   <v type="int" >      223 </v>
   <v type="int" >      224 </v>
   <v type="int" >      225 </v>
   <v type="int" >      226 </v>
   <v type="int" >      227 </v>
   <v type="int" >      228 </v>
   <v type="int" >      229 </v>
   <v type="int" >      230 </v>
   <v type="int" >      231 </v>
   <v type="int" >      232 </v>
   <v type="int" >      233 </v>
   <v type="int" >      234 </v>
   <v type="int" >      235 </v>
   <v type="int" >      236 </v>
   <v type="int" >      237 </v>
   <v type="int" >      238 </v>
   <v type="int" >      239 </v>
   <v type="int" >      240 </v>
   <v type="int" >      241 </v>
   <v type="int" >      242 </v>
   <v type="int" >      243 </v>
   <v type="int" >      244 </v>
   <v type="int" >      245 </v>
   <v type="int" >      246 </v>
   <v type="int" >      247 </v>
   <v type="int" >      248 </v>
   <v type="int" >      249 </v>
   <v type="int" >      250 </v>
   <v type="int" >      251 </v>
   <v type="int" >      252 </v>
   <v type="int" >      253 </v>
   <v type="int" >      254 </v>
   <v type="int" >      255 </v>
   <v type="int" >      256 </v>
   <v type="int" >      257 </v>
   <v type="int" >      258 </v>
   <v type="int" >      259 </v>
   <v type="int" >      260 </v>
   <v type="int" >      261 </v>
   <v type="int" >      262 </v>
   <v type="int" >      263 </v>
   <v type="int" >      264 </v>
   <v type="int" >      265 </v>
   <v type="int" >      266 </v>
   <v type="int" >      267 </v>
   <v type="int" >      268 </v>
   <v type="int" >      269 </v>
   <v type="int" >      270 </v>
   <v type="int" >      271 </v>
   <v type="int" >      272 </v>
   <v type="int" >      273 </v>
   <v type="int" >      274 </v>
   <v type="int" >      275 </v>
   <v type="int" >      276 </v>
   <v type="int" >      277 </v>
   <v type="int" >      278 </v>
   <v type="int" >      279 </v>
   <v type="int" >      280 </v>
   <v type="int" >      281 </v>
   <v type="int" >      282 </v>
   <v type="int" >      283 </v>
   <v type="int" >      284 </v>
   <v type="int" >      285 </v>
   <v type="int" >      286 </v>
   <v type="int" >      287 </v>
   <v type="int" >      288 </v>
   <v type="int" >      289 </v>
   <v type="int" >      290 </v>
   <v type="int" >      291 </v>
   <v type="int" >      292 </v>
   <v type="int" >      293 </v>
   <v type="int" >      294 </v>
   <v type="int" >      295 </v>
   <v type="int" >      296 </v>
   <v type="int" >      297 </v>
   <v type="int" >      298 </v>
   <v type="int" >      299 </v>
   <v type="int" >      300 </v>
   <v type="int" >      301 </v>
   <v type="int" >      302 </v>
   <v type="int" >      303 </v>
   <v type="int" >      304 </v>
   <v type="int" >      305 </v>
   <v type="int" >      306 </v>
   <v type="int" >      307 </v>
   <v type="int" >      308 </v>
   <v type="int" >      309 </v>
   <v type="int" >      310 </v>
   <v type="int" >      311 </v>
   <v type="int" >      312 </v>
   <v type="int" >      313 </v>
   <v type="int" >      314 </v>
   <v type="int" >      315 </v>
   <v type="int" >      316 </v>
   <v type="int" >      317 </v>
   <v type="int" >      318 </v>
   <v type="int" >      319 </v>
   <v type="int" >      320 </v>
   <v type="int" >      321 </v>
   <v type="int" >      322 </v>
   <v type="int" >      323 </v>
   <v type="int" >      324 </v>
   <v type="int" >      325 </v>
  </varray>
 </primitive_cell>
 <kpoints>
  <generation param="Gamma">
   <v type="int" name="divisions">       3        3        1 </v>
   <v name="usershift">      0.00000000       0.00000000       0.00000000 </v>
   <v name="genvec1">      0.33333333       0.00000000       0.00000000 </v>
   <v name="genvec2">      0.00000000       0.33333333       0.00000000 </v>
   <v name="genvec3">      0.00000000       0.00000000       1.00000000 </v>
   <v name="shift">      0.00000000       0.00000000       0.00000000 </v>
  </generation>
  <varray name="kpointlist" >
   <v>       0.00000000       0.00000000       0.00000000 </v>
   <v>       0.33333333       0.00000000       0.00000000 </v>
   <v>       0.00000000       0.33333333       0.00000000 </v>
   <v>       0.33333333       0.33333333       0.00000000 </v>
   <v>      -0.33333333       0.33333333       0.00000000 </v>
  </varray>
  <varray name="weights" >
   <v>       0.11111111 </v>
   <v>       0.22222222 </v>
   <v>       0.22222222 </v>
   <v>       0.22222222 </v>
   <v>       0.22222222 </v>
  </varray>
 </kpoints>
 <parameters>
  <separator name="general" >
   <i type="string" name="SYSTEM">PSC</i>
   <i type="logical" name="LCOMPAT"> F  </i>
  </separator>
  <separator name="electronic" >
   <i type="string" name="PREC">normal</i>
   <i name="ENMAX">    500.00000000</i>
   <i name="ENAUG">    644.87300000</i>
   <i name="EDIFF">      0.00010000</i>
   <i type="int" name="IALGO">    38</i>
   <i type="int" name="IWAVPR">    10</i>
   <i type="int" name="NBANDS">   732</i>
   <i type="int" name="NBANDSLOW">    -1</i>
   <i type="int" name="NBANDSHIGH">    -1</i>
   <i name="NELECT">   1134.00000000</i>
   <i type="int" name="TURBO">     0</i>
   <i type="int" name="IRESTART">     0</i>
   <i type="int" name="NREBOOT">     0</i>
   <i type="int" name="NMIN">     0</i>
   <i name="EREF">      0.00000000</i>
   <separator name="electronic smearing" >
    <i type="int" name="ISMEAR">     0</i>
    <i name="SIGMA">      0.05000000</i>
    <i name="KSPACING">      0.50000000</i>
    <i type="logical" name="KGAMMA"> T  </i>
    <i type="logical" name="KBLOWUP"> T  </i>
   </separator>
   <separator name="electronic projectors" >
    <i type="logical" name="LREAL"> T  </i>
    <v name="ROPT">     -0.00050000     -0.00050000     -0.00050000     -0.00050000     -0.00050000</v>
    <i type="int" name="LMAXPAW">  -100</i>
    <i type="int" name="LMAXMIX">     2</i>
    <i type="logical" name="NLSPLINE"> F  </i>
   </separator>
   <separator name="electronic startup" >
    <i type="int" name="ISTART">     0</i>
    <i type="int" name="ICHARG">     1</i>
    <i type="int" name="INIWAV">     1</i>
   </separator>
   <separator name="electronic spin" >
    <i type="int" name="ISPIN">     1</i>
    <i type="logical" name="LNONCOLLINEAR"> F  </i>
    <v name="MAGMOM">      1.00000000      1.00000000      1.00000000      1.00000000      1.00000000      1.00000000      1.00000000      1.00000000      1.00000000      1.00000000      1.00000000      1.00000000      1.00000000      1.00000000      1.00000000      1.00000000      1.00000000      1.00000000      1.00000000      1.00000000
      1.00000000      1.00000000      1.00000000      1.00000000      1.00000000      1.00000000      1.00000000      1.00000000      1.00000000      1.00000000      1.00000000      1.00000000      1.00000000      1.00000000      1.00000000      1.00000000      1.00000000      1.00000000      1.00000000      1.00000000
      1.00000000      1.00000000      1.00000000      1.00000000      1.00000000      1.00000000      1.00000000      1.00000000      1.00000000      1.00000000      1.00000000      1.00000000      1.00000000      1.00000000      1.00000000      1.00000000      1.00000000      1.00000000      1.00000000      1.00000000
      1.00000000      1.00000000      1.00000000      1.00000000      1.00000000      1.00000000      1.00000000      1.00000000      1.00000000      1.00000000      1.00000000      1.00000000      1.00000000      1.00000000      1.00000000      1.00000000      1.00000000      1.00000000      1.00000000      1.00000000
      1.00000000      1.00000000      1.00000000      1.00000000      1.00000000      1.00000000      1.00000000      1.00000000      1.00000000      1.00000000      1.00000000      1.00000000      1.00000000      1.00000000      1.00000000      1.00000000      1.00000000      1.00000000      1.00000000      1.00000000
      1.00000000      1.00000000      1.00000000      1.00000000      1.00000000      1.00000000      1.00000000      1.00000000      1.00000000      1.00000000      1.00000000      1.00000000      1.00000000      1.00000000      1.00000000      1.00000000      1.00000000      1.00000000      1.00000000      1.00000000
      1.00000000      1.00000000      1.00000000      1.00000000      1.00000000      1.00000000      1.00000000      1.00000000      1.00000000      1.00000000      1.00000000      1.00000000      1.00000000      1.00000000      1.00000000      1.00000000      1.00000000      1.00000000      1.00000000      1.00000000
      1.00000000      1.00000000      1.00000000      1.00000000      1.00000000      1.00000000      1.00000000      1.00000000      1.00000000      1.00000000      1.00000000      1.00000000      1.00000000      1.00000000      1.00000000      1.00000000      1.00000000      1.00000000      1.00000000      1.00000000
      1.00000000      1.00000000      1.00000000      1.00000000      1.00000000      1.00000000      1.00000000      1.00000000      1.00000000      1.00000000      1.00000000      1.00000000      1.00000000      1.00000000      1.00000000      1.00000000      1.00000000      1.00000000      1.00000000      1.00000000
      1.00000000      1.00000000      1.00000000      1.00000000      1.00000000      1.00000000      1.00000000      1.00000000      1.00000000      1.00000000      1.00000000      1.00000000      1.00000000      1.00000000      1.00000000      1.00000000      1.00000000      1.00000000      1.00000000      1.00000000
      1.00000000      1.00000000      1.00000000      1.00000000      1.00000000      1.00000000      1.00000000      1.00000000      1.00000000      1.00000000      1.00000000      1.00000000      1.00000000      1.00000000      1.00000000      1.00000000      1.00000000      1.00000000      1.00000000      1.00000000
      1.00000000      1.00000000      1.00000000      1.00000000      1.00000000      1.00000000      1.00000000      1.00000000      1.00000000      1.00000000      1.00000000      1.00000000      1.00000000      1.00000000      1.00000000      1.00000000      1.00000000      1.00000000      1.00000000      1.00000000
      1.00000000      1.00000000      1.00000000      1.00000000      1.00000000      1.00000000      1.00000000      1.00000000      1.00000000      1.00000000      1.00000000      1.00000000      1.00000000      1.00000000      1.00000000      1.00000000      1.00000000      1.00000000      1.00000000      1.00000000
      1.00000000      1.00000000      1.00000000      1.00000000      1.00000000      1.00000000      1.00000000      1.00000000      1.00000000      1.00000000      1.00000000      1.00000000      1.00000000      1.00000000      1.00000000      1.00000000      1.00000000      1.00000000      1.00000000      1.00000000
      1.00000000      1.00000000      1.00000000      1.00000000      1.00000000      1.00000000      1.00000000      1.00000000      1.00000000      1.00000000      1.00000000      1.00000000      1.00000000      1.00000000      1.00000000      1.00000000      1.00000000      1.00000000      1.00000000      1.00000000
      1.00000000      1.00000000      1.00000000      1.00000000      1.00000000      1.00000000      1.00000000      1.00000000      1.00000000      1.00000000      1.00000000      1.00000000      1.00000000      1.00000000      1.00000000      1.00000000      1.00000000      1.00000000      1.00000000      1.00000000
      1.00000000      1.00000000      1.00000000      1.00000000      1.00000000</v>
    <i name="NUPDOWN">     -1.00000000</i>
    <i type="logical" name="LSORBIT"> F  </i>
    <v name="SAXIS">      0.00000000      0.00000000      1.00000000</v>
    <i type="logical" name="LSPIRAL"> F  </i>
    <v name="QSPIRAL">      0.00000000      0.00000000      0.00000000</v>
    <i type="logical" name="LZEROZ"> F  </i>
   </separator>
   <separator name="electronic exchange-correlation" >
    <i type="logical" name="LASPH"> F  </i>
    <i type="logical" name="LMETAGGA"> F  </i>
   </separator>
   <separator name="electronic convergence" >
    <i type="int" name="NELM">   600</i>
    <i type="int" name="NELMDL">     0</i>
    <i type="int" name="NELMIN">     2</i>
    <i name="ENINI">    500.00000000</i>
    <separator name="electronic convergence detail" >
     <i type="logical" name="LDIAG"> T  </i>
     <i type="logical" name="LSUBROT"> F  </i>
     <i name="WEIMIN">      0.00000000</i>
     <i name="EBREAK">      0.00000003</i>
     <i name="DEPER">      0.30000000</i>
     <i type="int" name="NRMM">     4</i>
     <i name="TIME">      0.40000000</i>
    </separator>
   </separator>
   <separator name="electronic mixer" >
    <i name="AMIX">      0.40000000</i>
    <i name="BMIX">      0.01000000</i>
    <i name="AMIN">      0.01000000</i>
    <i name="AMIX_MAG">      1.60000000</i>
    <i name="BMIX_MAG">      0.01000000</i>
    <separator name="electronic mixer details" >
     <i type="int" name="IMIX">     4</i>
     <i type="logical" name="MIXFIRST"> F  </i>
     <i type="int" name="MAXMIX">   -45</i>
     <i name="WC">    100.00000000</i>
     <i type="int" name="INIMIX">     1</i>
     <i type="int" name="MIXPRE">     1</i>
     <i type="int" name="MREMOVE">     5</i>
    </separator>
   </separator>
   <separator name="electronic dipolcorrection" >
    <i type="logical" name="LDIPOL"> T  </i>
    <i type="logical" name="LMONO"> F  </i>
    <i type="int" name="IDIPOL">     3</i>
    <i name="EPSILON">      1.00000000</i>
    <v name="DIPOL">   -100.00000000   -100.00000000   -100.00000000</v>
    <i name="EFIELD">      0.00000000</i>
   </separator>
  </separator>
  <separator name="grids" >
   <i type="int" name="NGX">   100</i>
   <i type="int" name="NGY">   100</i>
   <i type="int" name="NGZ">   350</i>
   <i type="int" name="NGXF">   200</i>
   <i type="int" name="NGYF">   200</i>
   <i type="int" name="NGZF">   700</i>
   <i type="logical" name="ADDGRID"> F  </i>
  </separator>
  <separator name="ionic" >
   <i type="int" name="NSW">     0</i>
   <i type="int" name="IBRION">    -1</i>
   <i type="int" name="MDALGO">     0</i>
   <i type="int" name="ISIF">     2</i>
   <i name="PSTRESS">      0.00000000</i>
   <i name="EDIFFG">      0.00100000</i>
   <i type="int" name="NFREE">     0</i>
   <i name="POTIM">      0.50000000</i>
   <i name="SMASS">     -3.00000000</i>
   <i name="SCALEE">      1.00000000</i>
  </separator>
  <separator name="ionic md" >
   <i name="TEBEG">      0.00010000</i>
   <i name="TEEND">      0.00010000</i>
   <i type="int" name="NBLOCK">     1</i>
   <i type="int" name="KBLOCK">     1</i>
   <i type="int" name="NPACO">   256</i>
   <i name="APACO">     16.00000000</i>
  </separator>
  <separator name="symmetry" >
   <i type="int" name="ISYM">     0</i>
   <i name="SYMPREC">      0.00001000</i>
  </separator>
  <separator name="dos" >
   <i type="int" name="LORBIT">     0</i>
   <v name="RWIGS">     -1.00000000     -1.00000000     -1.00000000     -1.00000000     -1.00000000</v>
   <i type="int" name="NEDOS">   301</i>
   <i name="EMIN">     10.00000000</i>
   <i name="EMAX">    -10.00000000</i>
   <i name="EFERMI">      0.00000000</i>
  </separator>
  <separator name="writing" >
   <i type="int" name="NWRITE">     2</i>
   <i type="logical" name="LWAVE"> F  </i>
   <i type="logical" name="LDOWNSAMPLE"> F  </i>
   <i type="logical" name="LCHARG"> T  </i>
   <i type="logical" name="LPARD"> F  </i>
   <i type="logical" name="LVTOT"> T  </i>
   <i type="logical" name="LVHAR"> F  </i>
   <i type="logical" name="LELF"> F  </i>
   <i type="logical" name="LOPTICS"> F  </i>
   <v name="STM">      0.00000000      0.00000000      0.00000000      0.00000000      0.00000000      0.00000000      0.00000000</v>
  </separator>
  <separator name="performance" >
   <i type="int" name="NPAR">     4</i>
   <i type="int" name="NSIM">     4</i>
   <i type="int" name="NBLK">    -1</i>
   <i type="logical" name="LPLANE"> T  </i>
   <i type="logical" name="LSCALAPACK"> T  </i>
   <i type="logical" name="LSCAAWARE"> F  </i>
   <i type="logical" name="LSCALU"> F  </i>
   <i type="logical" name="LASYNC"> F  </i>
   <i type="logical" name="LORBITALREAL"> F  </i>
  </separator>
  <separator name="miscellaneous" >
   <i type="int" name="IDIOT">     3</i>
   <i type="int" name="PHON_NSTRUCT">    -1</i>
   <i type="logical" name="LMUSIC"> F  </i>
   <v name="POMASS">      1.00000000     12.01100000     14.00100000    126.90400000    207.20000000</v>
   <v name="DARWINR">      0.00000000      0.00000000      0.00000000      0.00000000      0.00000000</v>
   <v name="DARWINV">      1.00000000      1.00000000      1.00000000      1.00000000      1.00000000</v>
   <i type="logical" name="LCORR"> T  </i>
  </separator>
  <i type="logical" name="GGA_COMPAT"> F  </i>
  <i type="logical" name="LBERRY"> F  </i>
  <i type="int" name="ICORELEVEL">     0</i>
  <i type="logical" name="LDAU"> F  </i>
  <i type="int" name="I_CONSTRAINED_M">     0</i>
  <separator name="electronic exchange-correlation" >
   <i type="string" name="GGA">--</i>
   <i type="int" name="VOSKOWN">     0</i>
   <i type="logical" name="LHFCALC"> F  </i>
   <i type="string" name="PRECFOCK"></i>
   <i type="logical" name="LSYMGRAD"> F  </i>
   <i type="logical" name="LHFONE"> F  </i>
   <i type="logical" name="LRHFCALC"> F  </i>
   <i type="logical" name="LTHOMAS"> F  </i>
   <i type="logical" name="LMODELHF"> F  </i>
   <i type="logical" name="LFOCKACE"> F  </i>
   <i name="ENCUT4O">     -1.00000000</i>
   <i type="int" name="EXXOEP">     0</i>
   <i type="int" name="FOURORBIT">     0</i>
   <i name="AEXX">      0.00000000</i>
   <i name="HFALPHA">      0.00000000</i>
   <i name="MCALPHA">      0.00000000</i>
   <i name="ALDAX">      1.00000000</i>
   <i name="AGGAX">      1.00000000</i>
   <i name="ALDAC">      1.00000000</i>
   <i name="AGGAC">      1.00000000</i>
   <i type="int" name="NKREDX">     1</i>
   <i type="int" name="NKREDY">     1</i>
   <i type="int" name="NKREDZ">     1</i>
   <i type="logical" name="SHIFTRED"> F  </i>
   <i type="logical" name="ODDONLY"> F  </i>
   <i type="logical" name="EVENONLY"> F  </i>
   <i type="int" name="LMAXFOCK">     0</i>
   <i type="int" name="NMAXFOCKAE">     0</i>
   <i type="logical" name="LFOCKAEDFT"> F  </i>
   <i name="HFSCREEN">      0.00000000</i>
   <i name="HFSCREENC">      0.00000000</i>
   <i type="int" name="NBANDSGWLOW">     0</i>
  </separator>
  <separator name="vdW DFT" >
   <i type="logical" name="LUSE_VDW"> F  </i>
   <i name="Zab_VDW">     -0.84910000</i>
   <i name="PARAM1">      0.12340000</i>
   <i name="PARAM2">      1.00000000</i>
   <i name="PARAM3">      0.00000000</i>
  </separator>
  <separator name="model GW" >
   <i type="int" name="MODEL_GW">     0</i>
   <i name="MODEL_EPS0">     37.63423484</i>
   <i name="MODEL_ALPHA">      1.00000000</i>
  </separator>
  <separator name="linear response parameters" >
   <i type="logical" name="LEPSILON"> F  </i>
   <i type="logical" name="LRPA"> F  </i>
   <i type="logical" name="LNABLA"> F  </i>
   <i type="logical" name="LVEL"> F  </i>
   <i type="int" name="KINTER">     0</i>
   <i name="CSHIFT">      0.10000000</i>
   <i name="OMEGAMAX">     -1.00000000</i>
   <i name="DEG_THRESHOLD">      0.00200000</i>
   <i name="RTIME">     -0.10000000</i>
   <i name="WPLASMAI">      0.00000000</i>
   <v name="DFIELD">      0.00000000      0.00000000      0.00000000</v>
   <v name="WPLASMA">      0.00000000      0.00000000      0.00000000      0.00000000      0.00000000      0.00000000      0.00000000      0.00000000      0.00000000</v>
  </separator>
  <separator name="orbital magnetization" >
   <i type="logical" name="NUCIND"> F  </i>
   <v name="MAGPOS">      0.00000000      0.00000000      0.00000000</v>
   <i type="logical" name="LNICSALL"> T  </i>
   <i type="logical" name="ORBITALMAG"> F  </i>
   <i type="logical" name="LMAGBLOCH"> F  </i>
   <i type="logical" name="LCHIMAG"> F  </i>
   <i type="logical" name="LGAUGE"> T  </i>
   <i type="int" name="MAGATOM">     0</i>
   <v name="MAGDIPOL">      0.00000000      0.00000000      0.00000000</v>
   <v name="AVECCONST">      0.00000000      0.00000000      0.00000000</v>
  </separator>
  <separator name="response functions" >
   <i type="logical" name="LFINITE_TEMPERATURE"> F  </i>
   <i type="logical" name="LADDER"> F  </i>
   <i type="logical" name="LRPAFORCE"> F  </i>
   <i type="logical" name="LFXC"> F  </i>
   <i type="logical" name="LHARTREE"> T  </i>
   <i type="int" name="IBSE">     0</i>
   <v type="int" name="KPOINT">    -1     0     0     0</v>
   <i type="logical" name="LTCTC"> F  </i>
   <i type="logical" name="LTCTE"> F  </i>
   <i type="logical" name="LTETE"> F  </i>
   <i type="logical" name="LTRIPLET"> F  </i>
   <i type="logical" name="LFXCEPS"> F  </i>
   <i type="logical" name="LFXHEG"> F  </i>
   <i type="int" name="NATURALO">     2</i>
   <i type="logical" name="LHOLEGF"> F  </i>
   <i type="logical" name="L2ORDER"> F  </i>
   <i type="logical" name="LDMP1"> F  </i>
   <i type="logical" name="LMP2LT"> F  </i>
   <i type="logical" name="LSMP2LT"> F  </i>
   <i type="logical" name="LGWLF"> F  </i>
   <i name="ENCUTGW">     -2.00000000</i>
   <i name="ENCUTGWSOFT">     -2.00000000</i>
   <i name="ENCUTLF">     -1.00000000</i>
   <i type="logical" name="LESF_SPLINES"> F  </i>
   <i type="int" name="LMAXMP2">    -1</i>
   <i name="SCISSOR">      0.00000000</i>
   <i type="int" name="NOMEGA">     0</i>
   <i type="int" name="NOMEGAR">     0</i>
   <i type="int" name="NBANDSGW">    -1</i>
   <i type="int" name="NBANDSO">    -1</i>
   <i type="int" name="NBANDSV">    -1</i>
   <i type="int" name="NELM">   600</i>
   <i type="int" name="NELMHF">     1</i>
   <i type="int" name="DIM">     3</i>
   <i type="int" name="IESPILON">     4</i>
   <i type="int" name="ANTIRES">     0</i>
   <i name="OMEGAMAX">    -30.00000000</i>
   <i name="OMEGAMIN">    -30.00000000</i>
   <i name="OMEGATL">   -200.00000000</i>
   <i type="int" name="OMEGAGRID">     0</i>
   <i name="CSHIFT">     -0.10000000</i>
   <i type="logical" name="LSELFENERGY"> F  </i>
   <i type="logical" name="LSPECTRAL"> F  </i>
   <i type="logical" name="LSPECTRALGW"> F  </i>
   <i type="logical" name="LSINGLES"> F  </i>
   <i type="logical" name="LFERMIGW"> F  </i>
   <i type="logical" name="ODDONLYGW"> F  </i>
   <i type="logical" name="EVENONLYGW"> F  </i>
   <i type="int" name="NKREDLFX">     1</i>
   <i type="int" name="NKREDLFY">     1</i>
   <i type="int" name="NKREDLFZ">     1</i>
   <i type="int" name="MAXMEM">  2800</i>
   <i type="int" name="TELESCOPE">     0</i>
   <i type="int" name="NTAUPAR">    -1</i>
   <i type="int" name="NOMEGAPAR">    -1</i>
   <i name="DAMP_NEWTON">      0.80000001</i>
   <i name="LAMBDA">      1.00000000</i>
  </separator>
  <separator name="External order field" >
   <i name="OFIELD_KAPPA">      0.00000000</i>
   <v name="OFIELD_K">      0.00000000      0.00000000      0.00000000</v>
   <i name="OFIELD_Q6_NEAR">      0.00000000</i>
   <i name="OFIELD_Q6_FAR">      0.00000000</i>
   <i name="OFIELD_A">      0.00000000</i>
  </separator>
 </parameters>
 <atominfo>
  <atoms>     325 </atoms>
  <types>       5 </types>
  <array name="atoms" >
   <dimension dim="1">ion</dimension>
   <field type="string">element</field>
   <field type="int">atomtype</field>
   <set>
    <rc><c>H </c><c>   1</c></rc>
    <rc><c>H </c><c>   1</c></rc>
    <rc><c>H </c><c>   1</c></rc>
    <rc><c>H </c><c>   1</c></rc>
    <rc><c>H </c><c>   1</c></rc>
    <rc><c>H </c><c>   1</c></rc>
    <rc><c>H </c><c>   1</c></rc>
    <rc><c>H </c><c>   1</c></rc>
    <rc><c>H </c><c>   1</c></rc>
    <rc><c>H </c><c>   1</c></rc>
    <rc><c>H </c><c>   1</c></rc>
    <rc><c>H </c><c>   1</c></rc>
    <rc><c>H </c><c>   1</c></rc>
    <rc><c>H </c><c>   1</c></rc>
    <rc><c>H </c><c>   1</c></rc>
    <rc><c>H </c><c>   1</c></rc>
    <rc><c>H </c><c>   1</c></rc>
    <rc><c>H </c><c>   1</c></rc>
    <rc><c>H </c><c>   1</c></rc>
    <rc><c>H </c><c>   1</c></rc>
    <rc><c>H </c><c>   1</c></rc>
    <rc><c>H </c><c>   1</c></rc>
    <rc><c>H </c><c>   1</c></rc>
    <rc><c>H </c><c>   1</c></rc>
    <rc><c>H </c><c>   1</c></rc>
    <rc><c>H </c><c>   1</c></rc>
    <rc><c>H </c><c>   1</c></rc>
    <rc><c>H </c><c>   1</c></rc>
    <rc><c>H </c><c>   1</c></rc>
    <rc><c>H </c><c>   1</c></rc>
    <rc><c>H </c><c>   1</c></rc>
    <rc><c>H </c><c>   1</c></rc>
    <rc><c>H </c><c>   1</c></rc>
    <rc><c>H </c><c>   1</c></rc>
    <rc><c>H </c><c>   1</c></rc>
    <rc><c>H </c><c>   1</c></rc>
    <rc><c>H </c><c>   1</c></rc>
    <rc><c>H </c><c>   1</c></rc>
    <rc><c>H </c><c>   1</c></rc>
    <rc><c>H </c><c>   1</c></rc>
    <rc><c>H </c><c>   1</c></rc>
    <rc><c>H </c><c>   1</c></rc>
    <rc><c>H </c><c>   1</c></rc>
    <rc><c>H </c><c>   1</c></rc>
    <rc><c>H </c><c>   1</c></rc>
    <rc><c>H </c><c>   1</c></rc>
    <rc><c>H </c><c>   1</c></rc>
    <rc><c>H </c><c>   1</c></rc>
    <rc><c>H </c><c>   1</c></rc>
    <rc><c>H </c><c>   1</c></rc>
    <rc><c>H </c><c>   1</c></rc>
    <rc><c>H </c><c>   1</c></rc>
    <rc><c>H </c><c>   1</c></rc>
    <rc><c>H </c><c>   1</c></rc>
    <rc><c>H </c><c>   1</c></rc>
    <rc><c>H </c><c>   1</c></rc>
    <rc><c>H </c><c>   1</c></rc>
    <rc><c>H </c><c>   1</c></rc>
    <rc><c>H </c><c>   1</c></rc>
    <rc><c>H </c><c>   1</c></rc>
    <rc><c>H </c><c>   1</c></rc>
    <rc><c>H </c><c>   1</c></rc>
    <rc><c>H </c><c>   1</c></rc>
    <rc><c>H </c><c>   1</c></rc>
    <rc><c>H </c><c>   1</c></rc>
    <rc><c>H </c><c>   1</c></rc>
    <rc><c>H </c><c>   1</c></rc>
    <rc><c>H </c><c>   1</c></rc>
    <rc><c>H </c><c>   1</c></rc>
    <rc><c>H </c><c>   1</c></rc>
    <rc><c>H </c><c>   1</c></rc>
    <rc><c>H </c><c>   1</c></rc>
    <rc><c>H </c><c>   1</c></rc>
    <rc><c>H </c><c>   1</c></rc>
    <rc><c>H </c><c>   1</c></rc>
    <rc><c>H </c><c>   1</c></rc>
    <rc><c>H </c><c>   1</c></rc>
    <rc><c>H </c><c>   1</c></rc>
    <rc><c>H </c><c>   1</c></rc>
    <rc><c>H </c><c>   1</c></rc>
    <rc><c>H </c><c>   1</c></rc>
    <rc><c>H </c><c>   1</c></rc>
    <rc><c>H </c><c>   1</c></rc>
    <rc><c>H </c><c>   1</c></rc>
    <rc><c>H </c><c>   1</c></rc>
    <rc><c>H </c><c>   1</c></rc>
    <rc><c>H </c><c>   1</c></rc>
    <rc><c>H </c><c>   1</c></rc>
    <rc><c>H </c><c>   1</c></rc>
    <rc><c>H </c><c>   1</c></rc>
    <rc><c>H </c><c>   1</c></rc>
    <rc><c>H </c><c>   1</c></rc>
    <rc><c>H </c><c>   1</c></rc>
    <rc><c>H </c><c>   1</c></rc>
    <rc><c>H </c><c>   1</c></rc>
    <rc><c>H </c><c>   1</c></rc>
    <rc><c>H </c><c>   1</c></rc>
    <rc><c>H </c><c>   1</c></rc>
    <rc><c>H </c><c>   1</c></rc>
    <rc><c>H </c><c>   1</c></rc>
    <rc><c>H </c><c>   1</c></rc>
    <rc><c>H </c><c>   1</c></rc>
    <rc><c>H </c><c>   1</c></rc>
    <rc><c>H </c><c>   1</c></rc>
    <rc><c>H </c><c>   1</c></rc>
    <rc><c>H </c><c>   1</c></rc>
    <rc><c>H </c><c>   1</c></rc>
    <rc><c>H </c><c>   1</c></rc>
    <rc><c>H </c><c>   1</c></rc>
    <rc><c>H </c><c>   1</c></rc>
    <rc><c>H </c><c>   1</c></rc>
    <rc><c>H </c><c>   1</c></rc>
    <rc><c>H </c><c>   1</c></rc>
    <rc><c>H </c><c>   1</c></rc>
    <rc><c>H </c><c>   1</c></rc>
    <rc><c>H </c><c>   1</c></rc>
    <rc><c>H </c><c>   1</c></rc>
    <rc><c>H </c><c>   1</c></rc>
    <rc><c>H </c><c>   1</c></rc>
    <rc><c>H </c><c>   1</c></rc>
    <rc><c>H </c><c>   1</c></rc>
    <rc><c>H </c><c>   1</c></rc>
    <rc><c>H </c><c>   1</c></rc>
    <rc><c>H </c><c>   1</c></rc>
    <rc><c>H </c><c>   1</c></rc>
    <rc><c>H </c><c>   1</c></rc>
    <rc><c>H </c><c>   1</c></rc>
    <rc><c>H </c><c>   1</c></rc>
    <rc><c>H </c><c>   1</c></rc>
    <rc><c>H </c><c>   1</c></rc>
    <rc><c>H </c><c>   1</c></rc>
    <rc><c>H </c><c>   1</c></rc>
    <rc><c>H </c><c>   1</c></rc>
    <rc><c>H </c><c>   1</c></rc>
    <rc><c>H </c><c>   1</c></rc>
    <rc><c>H </c><c>   1</c></rc>
    <rc><c>H </c><c>   1</c></rc>
    <rc><c>H </c><c>   1</c></rc>
    <rc><c>H </c><c>   1</c></rc>
    <rc><c>H </c><c>   1</c></rc>
    <rc><c>H </c><c>   1</c></rc>
    <rc><c>H </c><c>   1</c></rc>
    <rc><c>H </c><c>   1</c></rc>
    <rc><c>C </c><c>   2</c></rc>
    <rc><c>C </c><c>   2</c></rc>
    <rc><c>C </c><c>   2</c></rc>
    <rc><c>C </c><c>   2</c></rc>
    <rc><c>C </c><c>   2</c></rc>
    <rc><c>C </c><c>   2</c></rc>
    <rc><c>C </c><c>   2</c></rc>
    <rc><c>C </c><c>   2</c></rc>
    <rc><c>C </c><c>   2</c></rc>
    <rc><c>C </c><c>   2</c></rc>
    <rc><c>C </c><c>   2</c></rc>
    <rc><c>C </c><c>   2</c></rc>
    <rc><c>C </c><c>   2</c></rc>
    <rc><c>C </c><c>   2</c></rc>
    <rc><c>C </c><c>   2</c></rc>
    <rc><c>C </c><c>   2</c></rc>
    <rc><c>C </c><c>   2</c></rc>
    <rc><c>C </c><c>   2</c></rc>
    <rc><c>C </c><c>   2</c></rc>
    <rc><c>C </c><c>   2</c></rc>
    <rc><c>C </c><c>   2</c></rc>
    <rc><c>C </c><c>   2</c></rc>
    <rc><c>C </c><c>   2</c></rc>
    <rc><c>C </c><c>   2</c></rc>
    <rc><c>C </c><c>   2</c></rc>
    <rc><c>C </c><c>   2</c></rc>
    <rc><c>C </c><c>   2</c></rc>
    <rc><c>C </c><c>   2</c></rc>
    <rc><c>C </c><c>   2</c></rc>
    <rc><c>C </c><c>   2</c></rc>
    <rc><c>C </c><c>   2</c></rc>
    <rc><c>C </c><c>   2</c></rc>
    <rc><c>C </c><c>   2</c></rc>
    <rc><c>C </c><c>   2</c></rc>
    <rc><c>C </c><c>   2</c></rc>
    <rc><c>C </c><c>   2</c></rc>
    <rc><c>C </c><c>   2</c></rc>
    <rc><c>C </c><c>   2</c></rc>
    <rc><c>C </c><c>   2</c></rc>
    <rc><c>N </c><c>   3</c></rc>
    <rc><c>N </c><c>   3</c></rc>
    <rc><c>N </c><c>   3</c></rc>
    <rc><c>N </c><c>   3</c></rc>
    <rc><c>N </c><c>   3</c></rc>
    <rc><c>N </c><c>   3</c></rc>
    <rc><c>N </c><c>   3</c></rc>
    <rc><c>N </c><c>   3</c></rc>
    <rc><c>N </c><c>   3</c></rc>
    <rc><c>N </c><c>   3</c></rc>
    <rc><c>N </c><c>   3</c></rc>
    <rc><c>N </c><c>   3</c></rc>
    <rc><c>N </c><c>   3</c></rc>
    <rc><c>N </c><c>   3</c></rc>
    <rc><c>N </c><c>   3</c></rc>
    <rc><c>N </c><c>   3</c></rc>
    <rc><c>N </c><c>   3</c></rc>
    <rc><c>N </c><c>   3</c></rc>
    <rc><c>N </c><c>   3</c></rc>
    <rc><c>N </c><c>   3</c></rc>
    <rc><c>N </c><c>   3</c></rc>
    <rc><c>N </c><c>   3</c></rc>
    <rc><c>N </c><c>   3</c></rc>
    <rc><c>N </c><c>   3</c></rc>
    <rc><c>N </c><c>   3</c></rc>
    <rc><c>N </c><c>   3</c></rc>
    <rc><c>N </c><c>   3</c></rc>
    <rc><c>N </c><c>   3</c></rc>
    <rc><c>N </c><c>   3</c></rc>
    <rc><c>N </c><c>   3</c></rc>
    <rc><c>N </c><c>   3</c></rc>
    <rc><c>N </c><c>   3</c></rc>
    <rc><c>N </c><c>   3</c></rc>
    <rc><c>N </c><c>   3</c></rc>
    <rc><c>N </c><c>   3</c></rc>
    <rc><c>N </c><c>   3</c></rc>
    <rc><c>N </c><c>   3</c></rc>
    <rc><c>N </c><c>   3</c></rc>
    <rc><c>N </c><c>   3</c></rc>
    <rc><c>N </c><c>   3</c></rc>
    <rc><c>N </c><c>   3</c></rc>
    <rc><c>N </c><c>   3</c></rc>
    <rc><c>N </c><c>   3</c></rc>
    <rc><c>N </c><c>   3</c></rc>
    <rc><c>N </c><c>   3</c></rc>
    <rc><c>N </c><c>   3</c></rc>
    <rc><c>N </c><c>   3</c></rc>
    <rc><c>I </c><c>   4</c></rc>
    <rc><c>I </c><c>   4</c></rc>
    <rc><c>I </c><c>   4</c></rc>
    <rc><c>I </c><c>   4</c></rc>
    <rc><c>I </c><c>   4</c></rc>
    <rc><c>I </c><c>   4</c></rc>
    <rc><c>I </c><c>   4</c></rc>
    <rc><c>I </c><c>   4</c></rc>
    <rc><c>I </c><c>   4</c></rc>
    <rc><c>I </c><c>   4</c></rc>
    <rc><c>I </c><c>   4</c></rc>
    <rc><c>I </c><c>   4</c></rc>
    <rc><c>I </c><c>   4</c></rc>
    <rc><c>I </c><c>   4</c></rc>
    <rc><c>I </c><c>   4</c></rc>
    <rc><c>I </c><c>   4</c></rc>
    <rc><c>I </c><c>   4</c></rc>
    <rc><c>I </c><c>   4</c></rc>
    <rc><c>I </c><c>   4</c></rc>
    <rc><c>I </c><c>   4</c></rc>
    <rc><c>I </c><c>   4</c></rc>
    <rc><c>I </c><c>   4</c></rc>
    <rc><c>I </c><c>   4</c></rc>
    <rc><c>I </c><c>   4</c></rc>
    <rc><c>I </c><c>   4</c></rc>
    <rc><c>I </c><c>   4</c></rc>
    <rc><c>I </c><c>   4</c></rc>
    <rc><c>I </c><c>   4</c></rc>
    <rc><c>I </c><c>   4</c></rc>
    <rc><c>I </c><c>   4</c></rc>
    <rc><c>I </c><c>   4</c></rc>
    <rc><c>I </c><c>   4</c></rc>
    <rc><c>I </c><c>   4</c></rc>
    <rc><c>I </c><c>   4</c></rc>
    <rc><c>I </c><c>   4</c></rc>
    <rc><c>I </c><c>   4</c></rc>
    <rc><c>I </c><c>   4</c></rc>
    <rc><c>I </c><c>   4</c></rc>
    <rc><c>I </c><c>   4</c></rc>
    <rc><c>I </c><c>   4</c></rc>
    <rc><c>I </c><c>   4</c></rc>
    <rc><c>I </c><c>   4</c></rc>
    <rc><c>I </c><c>   4</c></rc>
    <rc><c>I </c><c>   4</c></rc>
    <rc><c>I </c><c>   4</c></rc>
    <rc><c>I </c><c>   4</c></rc>
    <rc><c>I </c><c>   4</c></rc>
    <rc><c>I </c><c>   4</c></rc>
    <rc><c>I </c><c>   4</c></rc>
    <rc><c>I </c><c>   4</c></rc>
    <rc><c>I </c><c>   4</c></rc>
    <rc><c>I </c><c>   4</c></rc>
    <rc><c>I </c><c>   4</c></rc>
    <rc><c>I </c><c>   4</c></rc>
    <rc><c>I </c><c>   4</c></rc>
    <rc><c>I </c><c>   4</c></rc>
    <rc><c>I </c><c>   4</c></rc>
    <rc><c>I </c><c>   4</c></rc>
    <rc><c>I </c><c>   4</c></rc>
    <rc><c>I </c><c>   4</c></rc>
    <rc><c>I </c><c>   4</c></rc>
    <rc><c>I </c><c>   4</c></rc>
    <rc><c>I </c><c>   4</c></rc>
    <rc><c>I </c><c>   4</c></rc>
    <rc><c>I </c><c>   4</c></rc>
    <rc><c>I </c><c>   4</c></rc>
    <rc><c>I </c><c>   4</c></rc>
    <rc><c>I </c><c>   4</c></rc>
    <rc><c>I </c><c>   4</c></rc>
    <rc><c>I </c><c>   4</c></rc>
    <rc><c>I </c><c>   4</c></rc>
    <rc><c>I </c><c>   4</c></rc>
    <rc><c>Pb</c><c>   5</c></rc>
    <rc><c>Pb</c><c>   5</c></rc>
    <rc><c>Pb</c><c>   5</c></rc>
    <rc><c>Pb</c><c>   5</c></rc>
    <rc><c>Pb</c><c>   5</c></rc>
    <rc><c>Pb</c><c>   5</c></rc>
    <rc><c>Pb</c><c>   5</c></rc>
    <rc><c>Pb</c><c>   5</c></rc>
    <rc><c>Pb</c><c>   5</c></rc>
    <rc><c>Pb</c><c>   5</c></rc>
    <rc><c>Pb</c><c>   5</c></rc>
    <rc><c>Pb</c><c>   5</c></rc>
    <rc><c>Pb</c><c>   5</c></rc>
    <rc><c>Pb</c><c>   5</c></rc>
    <rc><c>Pb</c><c>   5</c></rc>
    <rc><c>Pb</c><c>   5</c></rc>
    <rc><c>Pb</c><c>   5</c></rc>
    <rc><c>Pb</c><c>   5</c></rc>
    <rc><c>Pb</c><c>   5</c></rc>
    <rc><c>Pb</c><c>   5</c></rc>
    <rc><c>Pb</c><c>   5</c></rc>
    <rc><c>Pb</c><c>   5</c></rc>
    <rc><c>Pb</c><c>   5</c></rc>
    <rc><c>Pb</c><c>   5</c></rc>
   </set>
  </array>
  <array name="atomtypes" >
   <dimension dim="1">type</dimension>
   <field type="int">atomspertype</field>
   <field type="string">element</field>
   <field>mass</field>
   <field>valence</field>
   <field type="string">pseudopotential</field>
   <set>
    <rc><c> 143</c><c>H </c><c>      1.00000000</c><c>      1.00000000</c><c>  PAW_PBE H 15Jun2001                   </c></rc>
    <rc><c>  39</c><c>C </c><c>     12.01100000</c><c>      4.00000000</c><c>  PAW_PBE C 08Apr2002                   </c></rc>
    <rc><c>  47</c><c>N </c><c>     14.00100000</c><c>      5.00000000</c><c>  PAW_PBE N 08Apr2002                   </c></rc>
    <rc><c>  72</c><c>I </c><c>    126.90400000</c><c>      7.00000000</c><c>  PAW_PBE I 08Apr2002                   </c></rc>
    <rc><c>  24</c><c>Pb</c><c>    207.20000000</c><c>      4.00000000</c><c>  PAW_PBE Pb 08Apr2002                  </c></rc>
   </set>
  </array>
 </atominfo>
 <structure name="initialpos" >
  <crystal>
   <varray name="basis" >
    <v>      18.06080055       0.00000000       0.00000000 </v>
    <v>      -0.00491865      18.06279945       0.00000000 </v>
    <v>       0.00000000       0.00000000      62.48749924 </v>
   </varray>
   <i name="volume">  20385.21054034 </i>
   <varray name="rec_basis" >
    <v>       0.05536853       0.00001508      -0.00000000 </v>
    <v>       0.00000000       0.05536240       0.00000000 </v>
    <v>       0.00000000      -0.00000000       0.01600320 </v>
   </varray>
  </crystal>
  <varray name="positions" >
   <v>       0.42172411       0.25770656       0.57935141 </v>
   <v>       0.41108948       0.72906352       0.57578435 </v>
   <v>       0.92939941       0.28451684       0.58128405 </v>
   <v>       0.94137823       0.81427415       0.57795013 </v>
   <v>       0.31567181       0.06646523       0.57623110 </v>
   <v>       0.30597857       0.58166163       0.57418778 </v>
   <v>       0.79376901       0.07665832       0.57959933 </v>
   <v>       0.10723362       0.21197966       0.56504612 </v>
   <v>       0.08208149       0.67380940       0.56757910 </v>
   <v>       0.60717338       0.19944019       0.56438296 </v>
   <v>       0.60525462       0.74547241       0.56261430 </v>
   <v>       0.37313013       0.01278600       0.56020433 </v>
   <v>       0.26110820       0.61879568       0.55202942 </v>
   <v>       0.86666870       0.04393107       0.56383586 </v>
   <v>       0.06405997       0.26631042       0.58480142 </v>
   <v>       0.00262610       0.69011830       0.58304966 </v>
   <v>       0.53139226       0.17612658       0.58109859 </v>
   <v>       0.54198534       0.69285903       0.57942534 </v>
   <v>       0.28126978       0.44805208       0.58223022 </v>
   <v>       0.18025570       0.03886193       0.57427984 </v>
   <v>       0.67567729       0.00909845       0.57767066 </v>
   <v>       0.42666935       0.33293505       0.56152772 </v>
   <v>       0.39012994       0.79869989       0.55727473 </v>
   <v>       0.88518771       0.24097252       0.55947012 </v>
   <v>       0.98271040       0.87238336       0.55914168 </v>
   <v>       0.21845949       0.40208727       0.56586715 </v>
   <v>       0.15197155       0.97071748       0.55622905 </v>
   <v>       0.67521954       0.92883889       0.56161379 </v>
   <v>       0.54388956       0.29797255       0.54878506 </v>
   <v>       0.51656826       0.81175296       0.54709105 </v>
   <v>       0.99637214       0.19488025       0.54630928 </v>
   <v>       0.07448200       0.78664047       0.55027101 </v>
   <v>       0.19829973       0.50778523       0.54471424 </v>
   <v>       0.27458135       0.94593023       0.54556505 </v>
   <v>       0.79528670       0.94522697       0.55063577 </v>
   <v>       0.43781961       0.28145880       0.67598353 </v>
   <v>       0.43078199       0.82129873       0.67185850 </v>
   <v>       0.97458256       0.27310166       0.68274966 </v>
   <v>       0.93177112       0.77594619       0.67423214 </v>
   <v>       0.29391205       0.04580056       0.67698160 </v>
   <v>       0.30008567       0.55190600       0.67445466 </v>
   <v>       0.79345232       0.05679183       0.67563361 </v>
   <v>       0.80984474       0.54841375       0.67652685 </v>
   <v>       0.08433987       0.16584459       0.64413488 </v>
   <v>       0.10058261       0.69057183       0.65392895 </v>
   <v>       0.58178691       0.17438357       0.64876208 </v>
   <v>       0.56190648       0.67658054       0.65513769 </v>
   <v>       0.18145486       0.40750352       0.65074155 </v>
   <v>       0.17089060       0.92255370       0.64593523 </v>
   <v>       0.66865481       0.43089705       0.65093983 </v>
   <v>       0.66850682       0.92315775       0.64950296 </v>
   <v>       0.07355194       0.17509301       0.67176400 </v>
   <v>       0.03748750       0.68006878       0.67482809 </v>
   <v>       0.53690594       0.17920158       0.67308653 </v>
   <v>       0.52458601       0.71657253       0.67822843 </v>
   <v>       0.21337046       0.43562038       0.67557299 </v>
   <v>       0.18548332       0.94828331       0.67232271 </v>
   <v>       0.70981484       0.44400033       0.67550224 </v>
   <v>       0.68760043       0.95789977       0.67476808 </v>
   <v>       0.42781796       0.33354273       0.65275898 </v>
   <v>       0.41620741       0.84024846       0.64485933 </v>
   <v>       0.93263298       0.31709210       0.66094885 </v>
   <v>       0.93566245       0.83789981       0.65279323 </v>
   <v>       0.33730879       0.06901596       0.65346823 </v>
   <v>       0.31194223       0.58729308       0.64919137 </v>
   <v>       0.83177725       0.07350347       0.65086523 </v>
   <v>       0.82171029       0.59499294       0.65193032 </v>
   <v>       0.99850956       0.25297277       0.63533612 </v>
   <v>       0.04110534       0.78780297       0.63847469 </v>
   <v>       0.51700374       0.27084585       0.63402800 </v>
   <v>       0.49709112       0.75155613       0.63243313 </v>
   <v>       0.26300971       0.99485783       0.63240249 </v>
   <v>       0.23970991       0.49937736       0.63226452 </v>
   <v>       0.75652527       0.99164650       0.63265687 </v>
   <v>       0.73329810       0.52481972       0.63410553 </v>
   <v>       0.44874502       0.30128397       0.76888902 </v>
   <v>       0.44874501       0.80128391       0.76888902 </v>
   <v>       0.94874497       0.30128397       0.76888902 </v>
   <v>       0.94874501       0.80128391       0.76888902 </v>
   <v>       0.30127600       0.05129450       0.76887296 </v>
   <v>       0.30127601       0.55129450       0.76887296 </v>
   <v>       0.80127594       0.05129450       0.76887296 </v>
   <v>       0.80127598       0.55129450       0.76887296 </v>
   <v>       0.07877100       0.17118050       0.74344197 </v>
   <v>       0.07877101       0.67118045       0.74344197 </v>
   <v>       0.57877100       0.17118050       0.74344197 </v>
   <v>       0.57877099       0.67118045       0.74344197 </v>
   <v>       0.17119950       0.42117448       0.74342103 </v>
   <v>       0.17119950       0.92117451       0.74342103 </v>
   <v>       0.67119951       0.42117448       0.74342103 </v>
   <v>       0.67119950       0.92117451       0.74342103 </v>
   <v>       0.05125600       0.19871499       0.76888902 </v>
   <v>       0.05125600       0.69871493       0.76888902 </v>
   <v>       0.55125603       0.19871499       0.76888902 </v>
   <v>       0.55125602       0.69871493       0.76888902 </v>
   <v>       0.19872349       0.44870397       0.76887205 </v>
   <v>       0.19872349       0.94870397       0.76887205 </v>
   <v>       0.69872352       0.44870397       0.76887205 </v>
   <v>       0.69872351       0.94870397       0.76887205 </v>
   <v>       0.42123152       0.32881747       0.74344197 </v>
   <v>       0.42123151       0.82881744       0.74344197 </v>
   <v>       0.92123147       0.32881747       0.74344197 </v>
   <v>       0.92123151       0.82881744       0.74344197 </v>
   <v>       0.32880050       0.07882500       0.74342103 </v>
   <v>       0.32880049       0.57882496       0.74342103 </v>
   <v>       0.82880048       0.07882500       0.74342103 </v>
   <v>       0.82880052       0.57882496       0.74342103 </v>
   <v>       0.00000350       0.25000148       0.72582199 </v>
   <v>       0.00000350       0.75000145       0.72582199 </v>
   <v>       0.50000351       0.25000148       0.72582199 </v>
   <v>       0.50000350       0.75000145       0.72582199 </v>
   <v>       0.25000050       0.00000000       0.72580398 </v>
   <v>       0.25000052       0.50000000       0.72580398 </v>
   <v>       0.75000050       0.00000000       0.72580398 </v>
   <v>       0.75000049       0.50000000       0.72580398 </v>
   <v>       0.78920515       0.50885755       0.51738138 </v>
   <v>       0.87213932       0.50504039       0.53212621 </v>
   <v>       0.75241725       0.62638867       0.53774434 </v>
   <v>       0.76754688       0.62500321       0.56543731 </v>
   <v>       0.68078494       0.45317852       0.55592662 </v>
   <v>       0.66899137       0.54776101       0.56237646 </v>
   <v>       0.79834246       0.42926533       0.57004511 </v>
   <v>       0.86381680       0.50082174       0.57060186 </v>
   <v>       0.86138563       0.37927158       0.54102307 </v>
   <v>       0.76594046       0.37475580       0.53628616 </v>
   <v>       0.77860144       0.37868102       0.49897901 </v>
   <v>       0.86785880       0.41839513       0.49886864 </v>
   <v>       0.89305900       0.61080453       0.53249536 </v>
   <v>       0.90232600       0.60994245       0.56102719 </v>
   <v>       0.86783327       0.68896340       0.54778095 </v>
   <v>       0.59608860       0.52148423       0.53106465 </v>
   <v>       0.67143471       0.48462552       0.51631830 </v>
   <v>       0.66688364       0.58043814       0.52261881 </v>
   <v>       0.71858386       0.48429780       0.59577083 </v>
   <v>       0.75502820       0.57550045       0.59231891 </v>
   <v>       0.80917552       0.50579803       0.60522243 </v>
   <v>       0.83319269       0.26172283       0.51639729 </v>
   <v>       0.84803791       0.27813054       0.48937406 </v>
   <v>       0.93671479       0.17158253       0.50159529 </v>
   <v>       0.97366012       0.40214339       0.51517280 </v>
   <v>       0.07108059       0.14829069       0.50387388 </v>
   <v>       0.10810202       0.37831468       0.51761415 </v>
   <v>       0.15758304       0.25261314       0.51212935 </v>
   <v>       0.99682925       0.22721325       0.56112505 </v>
   <v>       0.03251885       0.77205421       0.56158626 </v>
   <v>       0.51614182       0.26519328       0.56110332 </v>
   <v>       0.49865179       0.77058284       0.55882008 </v>
   <v>       0.23723764       0.51059961       0.55813690 </v>
   <v>       0.26340470       0.99007610       0.55726148 </v>
   <v>       0.77087017       0.98550423       0.56180957 </v>
   <v>       0.00787017       0.24212166       0.65229508 </v>
   <v>       0.01711364       0.76448085       0.65292881 </v>
   <v>       0.50487316       0.25506100       0.65012668 </v>
   <v>       0.48890332       0.75922732       0.64955753 </v>
   <v>       0.24716729       0.49797415       0.64943580 </v>
   <v>       0.25415787       0.99567847       0.64944020 </v>
   <v>       0.74461284       0.51280328       0.65110423 </v>
   <v>       0.75123694       0.99859813       0.64977797 </v>
   <v>       0.49998898       0.24999498       0.74327702 </v>
   <v>       0.49998903       0.74999496       0.74327702 </v>
   <v>       0.99998898       0.24999498       0.74327702 </v>
   <v>       0.99998903       0.74999496       0.74327702 </v>
   <v>       0.25000050       0.00000100       0.74325596 </v>
   <v>       0.25000052       0.50000100       0.74325596 </v>
   <v>       0.75000050       0.00000100       0.74325596 </v>
   <v>       0.75000049       0.50000100       0.74325596 </v>
   <v>       0.94420559       0.28941916       0.50802278 </v>
   <v>       0.97447752       0.21717010       0.50518130 </v>
   <v>       0.99341719       0.34588171       0.51278829 </v>
   <v>       0.05058658       0.20412458       0.50613383 </v>
   <v>       0.07031175       0.33279910       0.51423481 </v>
   <v>       0.09835620       0.26248695       0.51068567 </v>
   <v>       0.81486300       0.48451538       0.53193751 </v>
   <v>       0.78899649       0.60430244       0.55011381 </v>
   <v>       0.69126577       0.51000685       0.55015740 </v>
   <v>       0.80453257       0.48974109       0.57135512 </v>
   <v>       0.81739770       0.40180229       0.53090343 </v>
   <v>       0.83149783       0.37738504       0.50767842 </v>
   <v>       0.86819378       0.62833147       0.54754201 </v>
   <v>       0.65583592       0.52459803       0.52861305 </v>
   <v>       0.76894787       0.51605034       0.59213485 </v>
   <v>       0.86233994       0.29935743       0.50531869 </v>
   <v>       0.05980692       0.23203257       0.57149993 </v>
   <v>       0.03889643       0.70757823       0.57111295 </v>
   <v>       0.55221433       0.20733440       0.56879950 </v>
   <v>       0.55124969       0.72822868       0.56659111 </v>
   <v>       0.45086955       0.28608591       0.56743399 </v>
   <v>       0.42939690       0.76710854       0.56449438 </v>
   <v>       0.93318847       0.25458691       0.56738027 </v>
   <v>       0.97988367       0.82025276       0.56574487 </v>
   <v>       0.24564295       0.45051921       0.56986221 </v>
   <v>       0.19458616       0.00062416       0.56323033 </v>
   <v>       0.70095449       0.97684308       0.56679299 </v>
   <v>       0.31952668       0.02767813       0.56474162 </v>
   <v>       0.27026447       0.57295660       0.56194492 </v>
   <v>       0.81203878       0.03925157       0.56907067 </v>
   <v>       0.05858334       0.19074346       0.65651510 </v>
   <v>       0.05411481       0.70759127       0.66137679 </v>
   <v>       0.54368724       0.19897982       0.65798842 </v>
   <v>       0.52814600       0.71571008       0.66200478 </v>
   <v>       0.21229523       0.44409267       0.65937810 </v>
   <v>       0.20092390       0.95381718       0.65659977 </v>
   <v>       0.70655939       0.46029481       0.66009473 </v>
   <v>       0.69992799       0.95748612       0.65878399 </v>
   <v>       0.45418927       0.29156396       0.66027086 </v>
   <v>       0.44333718       0.80960087       0.65604070 </v>
   <v>       0.97017178       0.27897868       0.66640154 </v>
   <v>       0.95628958       0.79317778       0.66068580 </v>
   <v>       0.29732715       0.03875957       0.66087700 </v>
   <v>       0.28833871       0.54775695       0.65831722 </v>
   <v>       0.79436491       0.04489440       0.65946790 </v>
   <v>       0.79544338       0.55429050       0.66066693 </v>
   <v>       0.04586250       0.20411950       0.75272599 </v>
   <v>       0.04586250       0.70411946       0.75272599 </v>
   <v>       0.54586251       0.20411950       0.75272599 </v>
   <v>       0.54586250       0.70411946       0.75272599 </v>
   <v>       0.20411900       0.45410100       0.75270499 </v>
   <v>       0.20411899       0.95410095       0.75270499 </v>
   <v>       0.70411898       0.45410100       0.75270499 </v>
   <v>       0.70411896       0.95410095       0.75270499 </v>
   <v>       0.45414002       0.29588849       0.75272697 </v>
   <v>       0.45414001       0.79588852       0.75272697 </v>
   <v>       0.95414002       0.29588849       0.75272697 </v>
[...]
   <v>       0.60717338       0.19944019       0.56438296 </v>
   <v>       0.60525462       0.74547241       0.56261430 </v>
   <v>       0.37313013       0.01278600       0.56020433 </v>
   <v>       0.26110820       0.61879568       0.55202942 </v>
   <v>       0.86666870       0.04393107       0.56383586 </v>
   <v>       0.06405997       0.26631042       0.58480142 </v>
   <v>       0.00262610       0.69011830       0.58304966 </v>
   <v>       0.53139226       0.17612658       0.58109859 </v>
   <v>       0.54198534       0.69285903       0.57942534 </v>
   <v>       0.28126978       0.44805208       0.58223022 </v>
   <v>       0.18025570       0.03886193       0.57427984 </v>
   <v>       0.67567729       0.00909845       0.57767066 </v>
   <v>       0.42666935       0.33293505       0.56152772 </v>
   <v>       0.39012994       0.79869989       0.55727473 </v>
   <v>       0.88518771       0.24097252       0.55947012 </v>
   <v>       0.98271040       0.87238336       0.55914168 </v>
   <v>       0.21845949       0.40208727       0.56586715 </v>
   <v>       0.15197155       0.97071748       0.55622905 </v>
   <v>       0.67521954       0.92883889       0.56161379 </v>
   <v>       0.54388956       0.29797255       0.54878506 </v>
   <v>       0.51656826       0.81175296       0.54709105 </v>
   <v>       0.99637214       0.19488025       0.54630928 </v>
   <v>       0.07448200       0.78664047       0.55027101 </v>
   <v>       0.19829973       0.50778523       0.54471424 </v>
   <v>       0.27458135       0.94593023       0.54556505 </v>
   <v>       0.79528670       0.94522697       0.55063577 </v>
   <v>       0.43781961       0.28145880       0.67598353 </v>
   <v>       0.43078199       0.82129873       0.67185850 </v>
   <v>       0.97458256       0.27310166       0.68274966 </v>
   <v>       0.93177112       0.77594619       0.67423214 </v>
   <v>       0.29391205       0.04580056       0.67698160 </v>
   <v>       0.30008567       0.55190600       0.67445466 </v>
   <v>       0.79345232       0.05679183       0.67563361 </v>
   <v>       0.80984474       0.54841375       0.67652685 </v>
   <v>       0.08433987       0.16584459       0.64413488 </v>
   <v>       0.10058261       0.69057183       0.65392895 </v>
   <v>       0.58178691       0.17438357       0.64876208 </v>
   <v>       0.56190648       0.67658054       0.65513769 </v>
   <v>       0.18145486       0.40750352       0.65074155 </v>
   <v>       0.17089060       0.92255370       0.64593523 </v>
   <v>       0.66865481       0.43089705       0.65093983 </v>
   <v>       0.66850682       0.92315775       0.64950296 </v>
   <v>       0.07355194       0.17509301       0.67176400 </v>
   <v>       0.03748750       0.68006878       0.67482809 </v>
   <v>       0.53690594       0.17920158       0.67308653 </v>
   <v>       0.52458601       0.71657253       0.67822843 </v>
   <v>       0.21337046       0.43562038       0.67557299 </v>
   <v>       0.18548332       0.94828331       0.67232271 </v>
   <v>       0.70981484       0.44400033       0.67550224 </v>
   <v>       0.68760043       0.95789977       0.67476808 </v>
   <v>       0.42781796       0.33354273       0.65275898 </v>
   <v>       0.41620741       0.84024846       0.64485933 </v>
   <v>       0.93263298       0.31709210       0.66094885 </v>
   <v>       0.93566245       0.83789981       0.65279323 </v>
   <v>       0.33730879       0.06901596       0.65346823 </v>
   <v>       0.31194223       0.58729308       0.64919137 </v>
   <v>       0.83177725       0.07350347       0.65086523 </v>
   <v>       0.82171029       0.59499294       0.65193032 </v>
   <v>       0.99850956       0.25297277       0.63533612 </v>
   <v>       0.04110534       0.78780297       0.63847469 </v>
   <v>       0.51700374       0.27084585       0.63402800 </v>
   <v>       0.49709112       0.75155613       0.63243313 </v>
   <v>       0.26300971       0.99485783       0.63240249 </v>
   <v>       0.23970991       0.49937736       0.63226452 </v>
   <v>       0.75652527       0.99164650       0.63265687 </v>
   <v>       0.73329810       0.52481972       0.63410553 </v>
   <v>       0.44874502       0.30128397       0.76888902 </v>
   <v>       0.44874501       0.80128391       0.76888902 </v>
   <v>       0.94874497       0.30128397       0.76888902 </v>
   <v>       0.94874501       0.80128391       0.76888902 </v>
   <v>       0.30127600       0.05129450       0.76887296 </v>
   <v>       0.30127601       0.55129450       0.76887296 </v>
   <v>       0.80127594       0.05129450       0.76887296 </v>
   <v>       0.80127598       0.55129450       0.76887296 </v>
   <v>       0.07877100       0.17118050       0.74344197 </v>
   <v>       0.07877101       0.67118045       0.74344197 </v>
   <v>       0.57877100       0.17118050       0.74344197 </v>
   <v>       0.57877099       0.67118045       0.74344197 </v>
   <v>       0.17119950       0.42117448       0.74342103 </v>
   <v>       0.17119950       0.92117451       0.74342103 </v>
   <v>       0.67119951       0.42117448       0.74342103 </v>
   <v>       0.67119950       0.92117451       0.74342103 </v>
   <v>       0.05125600       0.19871499       0.76888902 </v>
   <v>       0.05125600       0.69871493       0.76888902 </v>
   <v>       0.55125603       0.19871499       0.76888902 </v>
   <v>       0.55125602       0.69871493       0.76888902 </v>
   <v>       0.19872349       0.44870397       0.76887205 </v>
   <v>       0.19872349       0.94870397       0.76887205 </v>
   <v>       0.69872352       0.44870397       0.76887205 </v>
   <v>       0.69872351       0.94870397       0.76887205 </v>
   <v>       0.42123152       0.32881747       0.74344197 </v>
   <v>       0.42123151       0.82881744       0.74344197 </v>
   <v>       0.92123147       0.32881747       0.74344197 </v>
   <v>       0.92123151       0.82881744       0.74344197 </v>
   <v>       0.32880050       0.07882500       0.74342103 </v>
   <v>       0.32880049       0.57882496       0.74342103 </v>
   <v>       0.82880048       0.07882500       0.74342103 </v>
   <v>       0.82880052       0.57882496       0.74342103 </v>
   <v>       0.00000350       0.25000148       0.72582199 </v>
   <v>       0.00000350       0.75000145       0.72582199 </v>
   <v>       0.50000351       0.25000148       0.72582199 </v>
   <v>       0.50000350       0.75000145       0.72582199 </v>
   <v>       0.25000050       0.00000000       0.72580398 </v>
   <v>       0.25000052       0.50000000       0.72580398 </v>
   <v>       0.75000050       0.00000000       0.72580398 </v>
   <v>       0.75000049       0.50000000       0.72580398 </v>
   <v>       0.78920515       0.50885755       0.51738138 </v>
   <v>       0.87213932       0.50504039       0.53212621 </v>
   <v>       0.75241725       0.62638867       0.53774434 </v>
   <v>       0.76754688       0.62500321       0.56543731 </v>
   <v>       0.68078494       0.45317852       0.55592662 </v>
   <v>       0.66899137       0.54776101       0.56237646 </v>
   <v>       0.79834246       0.42926533       0.57004511 </v>
   <v>       0.86381680       0.50082174       0.57060186 </v>
   <v>       0.86138563       0.37927158       0.54102307 </v>
   <v>       0.76594046       0.37475580       0.53628616 </v>
   <v>       0.77860144       0.37868102       0.49897901 </v>
   <v>       0.86785880       0.41839513       0.49886864 </v>
   <v>       0.89305900       0.61080453       0.53249536 </v>
   <v>       0.90232600       0.60994245       0.56102719 </v>
   <v>       0.86783327       0.68896340       0.54778095 </v>
   <v>       0.59608860       0.52148423       0.53106465 </v>
   <v>       0.67143471       0.48462552       0.51631830 </v>
   <v>       0.66688364       0.58043814       0.52261881 </v>
   <v>       0.71858386       0.48429780       0.59577083 </v>
   <v>       0.75502820       0.57550045       0.59231891 </v>
   <v>       0.80917552       0.50579803       0.60522243 </v>
   <v>       0.83319269       0.26172283       0.51639729 </v>
   <v>       0.84803791       0.27813054       0.48937406 </v>
   <v>       0.93671479       0.17158253       0.50159529 </v>
   <v>       0.97366012       0.40214339       0.51517280 </v>
   <v>       0.07108059       0.14829069       0.50387388 </v>
   <v>       0.10810202       0.37831468       0.51761415 </v>
   <v>       0.15758304       0.25261314       0.51212935 </v>
   <v>       0.99682925       0.22721325       0.56112505 </v>
   <v>       0.03251885       0.77205421       0.56158626 </v>
   <v>       0.51614182       0.26519328       0.56110332 </v>
   <v>       0.49865179       0.77058284       0.55882008 </v>
   <v>       0.23723764       0.51059961       0.55813690 </v>
   <v>       0.26340470       0.99007610       0.55726148 </v>
   <v>       0.77087017       0.98550423       0.56180957 </v>
   <v>       0.00787017       0.24212166       0.65229508 </v>
   <v>       0.01711364       0.76448085       0.65292881 </v>
   <v>       0.50487316       0.25506100       0.65012668 </v>
   <v>       0.48890332       0.75922732       0.64955753 </v>
   <v>       0.24716729       0.49797415       0.64943580 </v>
   <v>       0.25415787       0.99567847       0.64944020 </v>
   <v>       0.74461284       0.51280328       0.65110423 </v>
   <v>       0.75123694       0.99859813       0.64977797 </v>
   <v>       0.49998898       0.24999498       0.74327702 </v>
   <v>       0.49998903       0.74999496       0.74327702 </v>
   <v>       0.99998898       0.24999498       0.74327702 </v>
   <v>       0.99998903       0.74999496       0.74327702 </v>
   <v>       0.25000050       0.00000100       0.74325596 </v>
   <v>       0.25000052       0.50000100       0.74325596 </v>
   <v>       0.75000050       0.00000100       0.74325596 </v>
   <v>       0.75000049       0.50000100       0.74325596 </v>
   <v>       0.94420559       0.28941916       0.50802278 </v>
   <v>       0.97447752       0.21717010       0.50518130 </v>
   <v>       0.99341719       0.34588171       0.51278829 </v>
   <v>       0.05058658       0.20412458       0.50613383 </v>
   <v>       0.07031175       0.33279910       0.51423481 </v>
   <v>       0.09835620       0.26248695       0.51068567 </v>
   <v>       0.81486300       0.48451538       0.53193751 </v>
   <v>       0.78899649       0.60430244       0.55011381 </v>
   <v>       0.69126577       0.51000685       0.55015740 </v>
   <v>       0.80453257       0.48974109       0.57135512 </v>
   <v>       0.81739770       0.40180229       0.53090343 </v>
   <v>       0.83149783       0.37738504       0.50767842 </v>
   <v>       0.86819378       0.62833147       0.54754201 </v>
   <v>       0.65583592       0.52459803       0.52861305 </v>
   <v>       0.76894787       0.51605034       0.59213485 </v>
   <v>       0.86233994       0.29935743       0.50531869 </v>
   <v>       0.05980692       0.23203257       0.57149993 </v>
   <v>       0.03889643       0.70757823       0.57111295 </v>
   <v>       0.55221433       0.20733440       0.56879950 </v>
   <v>       0.55124969       0.72822868       0.56659111 </v>
   <v>       0.45086955       0.28608591       0.56743399 </v>
   <v>       0.42939690       0.76710854       0.56449438 </v>
   <v>       0.93318847       0.25458691       0.56738027 </v>
   <v>       0.97988367       0.82025276       0.56574487 </v>
   <v>       0.24564295       0.45051921       0.56986221 </v>
   <v>       0.19458616       0.00062416       0.56323033 </v>
   <v>       0.70095449       0.97684308       0.56679299 </v>
   <v>       0.31952668       0.02767813       0.56474162 </v>
   <v>       0.27026447       0.57295660       0.56194492 </v>
   <v>       0.81203878       0.03925157       0.56907067 </v>
   <v>       0.05858334       0.19074346       0.65651510 </v>
   <v>       0.05411481       0.70759127       0.66137679 </v>
   <v>       0.54368724       0.19897982       0.65798842 </v>
   <v>       0.52814600       0.71571008       0.66200478 </v>
   <v>       0.21229523       0.44409267       0.65937810 </v>
   <v>       0.20092390       0.95381718       0.65659977 </v>
   <v>       0.70655939       0.46029481       0.66009473 </v>
   <v>       0.69992799       0.95748612       0.65878399 </v>
   <v>       0.45418927       0.29156396       0.66027086 </v>
   <v>       0.44333718       0.80960087       0.65604070 </v>
   <v>       0.97017178       0.27897868       0.66640154 </v>
   <v>       0.95628958       0.79317778       0.66068580 </v>
   <v>       0.29732715       0.03875957       0.66087700 </v>
   <v>       0.28833871       0.54775695       0.65831722 </v>
   <v>       0.79436491       0.04489440       0.65946790 </v>
   <v>       0.79544338       0.55429050       0.66066693 </v>
   <v>       0.04586250       0.20411950       0.75272599 </v>
   <v>       0.04586250       0.70411946       0.75272599 </v>
   <v>       0.54586251       0.20411950       0.75272599 </v>
   <v>       0.54586250       0.70411946       0.75272599 </v>
   <v>       0.20411900       0.45410100       0.75270499 </v>
   <v>       0.20411899       0.95410095       0.75270499 </v>
   <v>       0.70411898       0.45410100       0.75270499 </v>
   <v>       0.70411896       0.95410095       0.75270499 </v>
   <v>       0.45414002       0.29588849       0.75272697 </v>
   <v>       0.45414001       0.79588852       0.75272697 </v>
   <v>       0.95414002       0.29588849       0.75272697 </v>
   <v>       0.95414006       0.79588852       0.75272697 </v>
   <v>       0.29588249       0.04590050       0.75270499 </v>
   <v>       0.29588248       0.54590053       0.75270499 </v>
   <v>       0.79588244       0.04590050       0.75270499 </v>
   <v>       0.79588248       0.54590053       0.75270499 </v>
   <v>       0.77483326       0.52193100       0.55075591 </v>
   <v>       0.50418038       0.98189124       0.55426259 </v>
   <v>       0.45507572       0.47879433       0.55430673 </v>
   <v>       0.99945450       0.01191307       0.55199535 </v>
   <v>       0.03674613       0.49165860       0.55719464 </v>
   <v>       0.24500358       0.24607227       0.55608797 </v>
   <v>       0.23369248       0.77084445       0.55153579 </v>
   <v>       0.74468432       0.22521150       0.55466453 </v>
   <v>       0.71515321       0.79198814       0.54582786 </v>
   <v>       0.00141771       0.99550421       0.65486939 </v>
   <v>       0.00286779       0.50371469       0.65593253 </v>
   <v>       0.49702410       0.00622616       0.65480345 </v>
   <v>       0.49835425       0.50132475       0.65482452 </v>
   <v>       0.25576953       0.23888804       0.65593533 </v>
   <v>       0.24862264       0.75188538       0.65438583 </v>
   <v>       0.74203904       0.25476314       0.65573247 </v>
   <v>       0.75481388       0.75410352       0.65369996 </v>
   <v>       0.14429106       0.10532663       0.60986630 </v>
   <v>       0.14692227       0.60702638       0.61000006 </v>
   <v>       0.64676677       0.10623534       0.61014267 </v>
   <v>       0.61031554       0.63967938       0.61444400 </v>
   <v>       0.36246883       0.38766481       0.61290945 </v>
   <v>       0.36112924       0.88744628       0.60761445 </v>
   <v>       0.89048973       0.36086470       0.61615626 </v>
   <v>       0.86339238       0.88844827       0.60842931 </v>
   <v>       0.11779359       0.36261196       0.61361333 </v>
   <v>       0.11817388       0.87464738       0.60848590 </v>
   <v>       0.61677219       0.36976156       0.60637397 </v>
   <v>       0.62082051       0.86679066       0.61320346 </v>
   <v>       0.39594493       0.14053091       0.60757538 </v>
   <v>       0.38090131       0.63739092       0.60684989 </v>
   <v>       0.88703807       0.13673915       0.61341438 </v>
   <v>       0.91450471       0.66382288       0.61409420 </v>
   <v>       0.00000000       0.00000000       0.75492797 </v>
   <v>       0.00000000       0.50000000       0.75492797 </v>
   <v>       0.50000000       0.00000000       0.75492797 </v>
   <v>       0.49999999       0.50000000       0.75492797 </v>
   <v>       0.25000050       0.25000000       0.75493902 </v>
   <v>       0.25000051       0.74999997       0.75493902 </v>
   <v>       0.75000047       0.25000000       0.75493902 </v>
   <v>       0.75000046       0.74999997       0.75493902 </v>
   <v>       0.13579050       0.11421000       0.70478299 </v>
   <v>       0.13579050       0.61420998       0.70478299 </v>
   <v>       0.63579045       0.11421000       0.70478299 </v>
   <v>       0.63579049       0.61420998       0.70478299 </v>
   <v>       0.36420952       0.38578999       0.70478299 </v>
   <v>       0.36420950       0.88578996       0.70478299 </v>
   <v>       0.86420954       0.38578999       0.70478299 </v>
   <v>       0.86420953       0.88578996       0.70478299 </v>
   <v>       0.11421799       0.36421899       0.70478098 </v>
   <v>       0.11421799       0.86421899       0.70478098 </v>
   <v>       0.61421800       0.36421899       0.70478098 </v>
   <v>       0.61421799       0.86421899       0.70478098 </v>
   <v>       0.38578201       0.13578149       0.70478202 </v>
   <v>       0.38578200       0.63578149       0.70478202 </v>
   <v>       0.88578199       0.13578149       0.70478202 </v>
   <v>       0.88578203       0.63578149       0.70478202 </v>
   <v>       0.13466700       0.11533200       0.80125603 </v>
   <v>       0.13466699       0.61533199       0.80125603 </v>
   <v>       0.63466699       0.11533200       0.80125603 </v>
   <v>       0.63466698       0.61533199       0.80125603 </v>
   <v>       0.36533300       0.38466799       0.80125603 </v>
   <v>       0.36533299       0.88466796       0.80125603 </v>
   <v>       0.86533295       0.38466799       0.80125603 </v>
   <v>       0.86533294       0.88466796       0.80125603 </v>
   <v>       0.11532850       0.36533700       0.80126500 </v>
   <v>       0.11532850       0.86533698       0.80126500 </v>
   <v>       0.61532850       0.36533700       0.80126500 </v>
   <v>       0.61532849       0.86533698       0.80126500 </v>
   <v>       0.38467151       0.13466300       0.80126500 </v>
   <v>       0.38467150       0.63466297       0.80126500 </v>
   <v>       0.88467149       0.13466300       0.80126500 </v>
   <v>       0.88467153       0.63466297       0.80126500 </v>
   <v>       0.99584531       0.00700607       0.60491146 </v>
   <v>       0.00870834       0.50418654       0.60595402 </v>
   <v>       0.50401457       0.99485052       0.60445922 </v>
   <v>       0.49496427       0.50019086       0.60284751 </v>
   <v>       0.25275949       0.24888454       0.60594310 </v>
   <v>       0.24241097       0.75771905       0.60373251 </v>
   <v>       0.75118925       0.25626590       0.60621860 </v>
   <v>       0.74897961       0.75543243       0.60502470 </v>
   <v>       0.00000050       0.00000050       0.70482896 </v>
   <v>       0.00000050       0.50000048       0.70482896 </v>
   <v>       0.50000048       0.00000050       0.70482896 </v>
   <v>       0.50000046       0.50000048       0.70482896 </v>
   <v>       0.24999999       0.24999947       0.70482499 </v>
   <v>       0.25000001       0.74999950       0.70482499 </v>
   <v>       0.74999999       0.24999947       0.70482499 </v>
   <v>       0.74999998       0.74999950       0.70482499 </v>
   <v>       0.00000000       0.00000000       0.80731797 </v>
   <v>       0.00000000       0.50000000       0.80731797 </v>
   <v>       0.50000000       0.00000000       0.80731797 </v>
   <v>       0.49999999       0.50000000       0.80731797 </v>
   <v>       0.24999999       0.25000000       0.80731797 </v>
   <v>       0.25000001       0.74999997       0.80731797 </v>
   <v>       0.74999999       0.25000000       0.80731797 </v>
   <v>       0.74999998       0.74999997       0.80731797 </v>
  </varray>
 </structure>
</modeling>
