 vasp.6.2.1 16May21 (build Nov 15 2021 14:57:28) complex                         
 executed on             LinuxPGI date 2023.07.25  01:15:36
 running on    4 total cores
 distrk:  each k-point on    4 cores,    1 groups
 distr:  one band on NCORE=   1 cores,    4 groups


--------------------------------------------------------------------------------------------------------


 INCAR:
   SYSTEM = PSC
   ISTART = 1
   ICHARG = 1
   PREC = Normal
   ENCUT = 500
   GGA_COMPAT = F
   NELM = 600
   ISYM = 0
   LREAL = Auto
   ISMEAR = 0
   SIGMA = 0.05
   AMIN = 0.01
   BMIX = 0.01
   LVTOT = T
   LWAVE = F
   LDIPOL = T
   IDIPOL = 3
   LVDW = T
   IVDW = 12

 POTCAR:    PAW_PBE H 15Jun2001                   
 POTCAR:    PAW_PBE C 08Apr2002                   
 POTCAR:    PAW_PBE N 08Apr2002                   
 POTCAR:    PAW_PBE I 08Apr2002                   
 POTCAR:    PAW_PBE Pb 08Apr2002                  
 WARNING: For LVTOT=.TRUE., VASP.5.x writes the TOTAL local potential to the
     file LOCPOT. If you want only the Hartree contributions, use LVHAR=.TRUE.
     instead. 

 POTCAR:    PAW_PBE H 15Jun2001                   
   SHA256 =  030f79b5d3ab3cf0e668861823c8fb652ff669f3e15e46930bd03bfd63a607b6 H/POTCAR              
   COPYR  = (c) Copyright 15Jun2001 Georg Kresse                                                    
   COPYR  = This file is part of the software VASP. Any use, copying, and all other rights are regul
   COPYR  = If you do not have a valid VASP license, you may not use, copy or distribute this file. 
   VRHFIN =H: ultrasoft test                                                                        
   LEXCH  = PE                                                                                      
   EATOM  =    12.4884 eV,    0.9179 Ry                                                             
                                                                                                    
   TITEL  = PAW_PBE H 15Jun2001                                                                     
   LULTRA =        F    use ultrasoft PP ?                                                          
   IUNSCR =        0    unscreen: 0-lin 1-nonlin 2-no                                               
   RPACOR =    0.000    partial core radius                                                         
   POMASS =    1.000; ZVAL   =    1.000    mass and valenz                                          
   RCORE  =    1.100    outmost cutoff radius                                                       
   RWIGS  =    0.700; RWIGS  =    0.370    wigner-seitz radius (au A)                               
   ENMAX  =  250.000; ENMIN  =  200.000 eV                                                          
   RCLOC  =    0.701    cutoff for local pot                                                        
   LCOR   =        T    correct aug charges                                                         
   LPAW   =        T    paw PP                                                                      
   EAUG   =  400.000                                                                                
   RMAX   =    1.123    core radius for proj-oper                                                   
   RAUG   =    1.200    factor for augmentation sphere                                              
   RDEP   =    1.112    radius for radial grids                                                     
   RDEPT  =    0.926    core radius for aug-charge                                                  
                                                                                                    
   Atomic configuration                                                                             
    2 entries                                                                                       
     n  l   j            E        occ.                                                              
     1  0  0.50        -6.4927   1.0000                                                             
     2  1  0.50        -3.4015   0.0000                                                             
   Description                                                                                      
     l       E           TYP  RCUT    TYP  RCUT                                                     
     0     -6.4927494     23  1.100                                                                 
     0      6.8029130     23  1.100                                                                 
     1     -4.0817478     23  1.100                                                                 
  local pseudopotential read in
  atomic valenz-charges read in
  non local Contribution for L=            0  read in
    real space projection operators read in
  non local Contribution for L=            0  read in
    real space projection operators read in
  non local Contribution for L=            1  read in
    real space projection operators read in
    PAW grid and wavefunctions read in
 
   number of l-projection  operators is LMAX  =            3
   number of lm-projection operators is LMMAX =            5
 
 POTCAR:    PAW_PBE C 08Apr2002                   
   SHA256 =  253f7b50bb8d59471dbedb8285d89021f4a42ed1a2c5d38a03a736e69125dd95 C/POTCAR              
   COPYR  = (c) Copyright 08Apr2002 Georg Kresse                                                    
   COPYR  = This file is part of the software VASP. Any use, copying, and all other rights are regul
   COPYR  = If you do not have a valid VASP license, you may not use, copy or distribute this file. 
   VRHFIN =C: s2p2                                                                                  
   LEXCH  = PE                                                                                      
   EATOM  =   147.1560 eV,   10.8157 Ry                                                             
                                                                                                    
   TITEL  = PAW_PBE C 08Apr2002                                                                     
   LULTRA =        F    use ultrasoft PP ?                                                          
   IUNSCR =        1    unscreen: 0-lin 1-nonlin 2-no                                               
   RPACOR =    1.200    partial core radius                                                         
   POMASS =   12.011; ZVAL   =    4.000    mass and valenz                                          
   RCORE  =    1.500    outmost cutoff radius                                                       
   RWIGS  =    1.630; RWIGS  =    0.863    wigner-seitz radius (au A)                               
   ENMAX  =  400.000; ENMIN  =  300.000 eV                                                          
   ICORE  =        2    local potential                                                             
   LCOR   =        T    correct aug charges                                                         
   LPAW   =        T    paw PP                                                                      
   EAUG   =  644.873                                                                                
   DEXC   =    0.000                                                                                
   RMAX   =    1.529    core radius for proj-oper                                                   
   RAUG   =    1.300    factor for augmentation sphere                                              
   RDEP   =    1.501    radius for radial grids                                                     
   RDEPT  =    1.300    core radius for aug-charge                                                  
                                                                                                    
   Atomic configuration                                                                             
    4 entries                                                                                       
     n  l   j            E        occ.                                                              
     1  0  0.50      -273.3789   2.0000                                                             
     2  0  0.50       -13.7508   2.0000                                                             
     2  1  0.50        -5.2854   2.0000                                                             
     3  2  1.50        -5.4423   0.0000                                                             
   Description                                                                                      
     l       E           TYP  RCUT    TYP  RCUT                                                     
     0    -13.7508458     23  1.200                                                                 
     0     -8.2022199     23  1.200                                                                 
     1     -5.2854383     23  1.500                                                                 
     1     34.0145650     23  1.500                                                                 
     2     -5.4423304      7  1.500                                                                 
  local pseudopotential read in
  partial core-charges read in
  partial kinetic energy density read in
  atomic valenz-charges read in
  non local Contribution for L=            0  read in
    real space projection operators read in
  non local Contribution for L=            0  read in
    real space projection operators read in
  non local Contribution for L=            1  read in
    real space projection operators read in
  non local Contribution for L=            1  read in
    real space projection operators read in
    PAW grid and wavefunctions read in
 
   number of l-projection  operators is LMAX  =            4
   number of lm-projection operators is LMMAX =            8
 
 POTCAR:    PAW_PBE N 08Apr2002                   
   SHA256 =  e053789ff3a61a86a1b75d8a110fcc91f86041011e7b0817c7c99e4e8a6349d7 N/POTCAR              
   COPYR  = (c) Copyright 08Apr2002 Georg Kresse                                                    
   COPYR  = This file is part of the software VASP. Any use, copying, and all other rights are regul
   COPYR  = If you do not have a valid VASP license, you may not use, copy or distribute this file. 
   VRHFIN =N: s2p3                                                                                  
   LEXCH  = PE                                                                                      
   EATOM  =   264.5486 eV,   19.4438 Ry                                                             
                                                                                                    
   TITEL  = PAW_PBE N 08Apr2002                                                                     
   LULTRA =        F    use ultrasoft PP ?                                                          
   IUNSCR =        1    unscreen: 0-lin 1-nonlin 2-no                                               
   RPACOR =    1.200    partial core radius                                                         
   POMASS =   14.001; ZVAL   =    5.000    mass and valenz                                          
   RCORE  =    1.500    outmost cutoff radius                                                       
   RWIGS  =    1.400; RWIGS  =    0.741    wigner-seitz radius (au A)                               
   ENMAX  =  400.000; ENMIN  =  300.000 eV                                                          
   ICORE  =        2    local potential                                                             
   LCOR   =        T    correct aug charges                                                         
   LPAW   =        T    paw PP                                                                      
   EAUG   =  627.112                                                                                
   DEXC   =    0.000                                                                                
   RMAX   =    1.529    core radius for proj-oper                                                   
   RAUG   =    1.300    factor for augmentation sphere                                              
   RDEP   =    1.514    radius for radial grids                                                     
   RDEPT  =    1.338    core radius for aug-charge                                                  
                                                                                                    
   Atomic configuration                                                                             
    4 entries                                                                                       
     n  l   j            E        occ.                                                              
     1  0  0.50      -384.7179   2.0000                                                             
     2  0  0.50       -18.5828   2.0000                                                             
     2  1  0.50        -7.0898   3.0000                                                             
     3  2  1.50        -6.8029   0.0000                                                             
   Description                                                                                      
     l       E           TYP  RCUT    TYP  RCUT                                                     
     0    -18.5828119     23  1.200                                                                 
     0    -13.5018863     23  1.200                                                                 
     1     -7.0897853     23  1.500                                                                 
     1      9.5240782     23  1.500                                                                 
     2     -6.8029130      7  1.500                                                                 
  local pseudopotential read in
  partial core-charges read in
  partial kinetic energy density read in
  atomic valenz-charges read in
  non local Contribution for L=            0  read in
    real space projection operators read in
  non local Contribution for L=            0  read in
    real space projection operators read in
  non local Contribution for L=            1  read in
    real space projection operators read in
  non local Contribution for L=            1  read in
    real space projection operators read in
    PAW grid and wavefunctions read in
 
   number of l-projection  operators is LMAX  =            4
   number of lm-projection operators is LMMAX =            8
 
 POTCAR:    PAW_PBE I 08Apr2002                   
   SHA256 =  e40f3f59b681c1fc3e3091736183c4589116986673d2b852a5012aec72758799 I/POTCAR              
   COPYR  = (c) Copyright 08Apr2002 Georg Kresse                                                    
   COPYR  = This file is part of the software VASP. Any use, copying, and all other rights are regul
   COPYR  = If you do not have a valid VASP license, you may not use, copy or distribute this file. 
   VRHFIN =I : s2p5                                                                                 
   LEXCH  = PE                                                                                      
   EATOM  =   315.8678 eV,   23.2156 Ry                                                             
                                                                                                    
   TITEL  = PAW_PBE I 08Apr2002                                                                     
   LULTRA =        F    use ultrasoft PP ?                                                          
   IUNSCR =        1    unscreen: 0-lin 1-nonlin 2-no                                               
   RPACOR =    2.200    partial core radius                                                         
   POMASS =  126.904; ZVAL   =    7.000    mass and valenz                                          
   RCORE  =    2.300    outmost cutoff radius                                                       
   RWIGS  =    2.810; RWIGS  =    1.487    wigner-seitz radius (au A)                               
   ENMAX  =  175.647; ENMIN  =  131.735 eV                                                          
   ICORE  =        3    local potential                                                             
   LCOR   =        T    correct aug charges                                                         
   LPAW   =        T    paw PP                                                                      
   EAUG   =  370.139                                                                                
   DEXC   =    0.000                                                                                
   RMAX   =    2.359    core radius for proj-oper                                                   
   RAUG   =    1.300    factor for augmentation sphere                                              
   RDEP   =    2.392    radius for radial grids                                                     
   RDEPT  =    2.170    core radius for aug-charge                                                  
                                                                                                    
   Atomic configuration                                                                             
   13 entries                                                                                       
     n  l   j            E        occ.                                                              
     1  0  0.50    -32976.3739   2.0000                                                             
     2  0  0.50     -5094.5933   2.0000                                                             
     2  1  1.50     -4572.0131   6.0000                                                             
     3  0  0.50     -1028.2813   2.0000                                                             
     3  1  1.50      -859.0250   6.0000                                                             
     3  2  2.50      -605.7620  10.0000                                                             
     4  0  0.50      -180.5540   2.0000                                                             
     4  1  1.50      -127.5306   6.0000                                                             
     4  2  2.50       -50.2720  10.0000                                                             
     5  0  0.50       -17.4058   2.0000                                                             
     5  1  0.50        -7.0851   5.0000                                                             
     5  2  1.50        -7.0750   0.0000                                                             
     4  3  2.50        -7.0750   0.0000                                                             
   Description                                                                                      
     l       E           TYP  RCUT    TYP  RCUT                                                     
     0    -17.4058016     23  2.300                                                                 
     0    -18.7663842     23  2.300                                                                 
     1     -7.0850686     23  2.300                                                                 
     1     -4.2150896     23  2.300                                                                 
     2     -7.0750295     23  2.300                                                                 
     3     -1.3605826     23  2.300                                                                 
  local pseudopotential read in
  partial core-charges read in
  partial kinetic energy density read in
  atomic valenz-charges read in
  non local Contribution for L=            0  read in
    real space projection operators read in
  non local Contribution for L=            0  read in
    real space projection operators read in
  non local Contribution for L=            1  read in
    real space projection operators read in
  non local Contribution for L=            1  read in
    real space projection operators read in
  non local Contribution for L=            2  read in
    real space projection operators read in
    PAW grid and wavefunctions read in
 
   number of l-projection  operators is LMAX  =            5
   number of lm-projection operators is LMMAX =           13
 
 POTCAR:    PAW_PBE Pb 08Apr2002                  
   SHA256 =  797118a27cf1bcd06b9881c67a26cdde129e3cd1a551dd4a281f9681ce847303 Pb/POTCAR             
   COPYR  = (c) Copyright 08Apr2002 Georg Kresse                                                    
   COPYR  = This file is part of the software VASP. Any use, copying, and all other rights are regul
   COPYR  = If you do not have a valid VASP license, you may not use, copy or distribute this file. 
   VRHFIN =Pb:                                                                                      
   LEXCH  = PE                                                                                      
   EATOM  =    96.9868 eV,    7.1283 Ry                                                             
                                                                                                    
   TITEL  = PAW_PBE Pb 08Apr2002                                                                    
   LULTRA =        F    use ultrasoft PP ?                                                          
   IUNSCR =        1    unscreen: 0-lin 1-nonlin 2-no                                               
   RPACOR =    2.200    partial core radius                                                         
   POMASS =  207.200; ZVAL   =    4.000    mass and valenz                                          
   RCORE  =    3.100    outmost cutoff radius                                                       
   RWIGS  =    3.260; RWIGS  =    1.725    wigner-seitz radius (au A)                               
   ENMAX  =   97.973; ENMIN  =   73.480 eV                                                          
   ICORE  =        3    local potential                                                             
   LCOR   =        T    correct aug charges                                                         
   LPAW   =        T    paw PP                                                                      
   EAUG   =  234.873                                                                                
   DEXC   =    0.000                                                                                
   RMAX   =    3.158    core radius for proj-oper                                                   
   RAUG   =    1.300    factor for augmentation sphere                                              
   RDEP   =    3.202    radius for radial grids                                                     
   RDEPT  =    2.659    core radius for aug-charge                                                  
                                                                                                    
   Atomic configuration                                                                             
   17 entries                                                                                       
     n  l   j            E        occ.                                                              
     1  0  0.50    -88091.8466   2.0000                                                             
     2  0  0.50    -15753.4197   2.0000                                                             
     2  1  1.50    -13508.1797   6.0000                                                             
     3  0  0.50     -3781.7194   2.0000                                                             
     3  1  1.50     -3138.2529   6.0000                                                             
     3  2  2.50     -2483.2977  10.0000                                                             
     4  0  0.50      -856.2895   2.0000                                                             
     4  1  1.50      -645.4943   6.0000                                                             
     4  2  2.50      -401.8768  10.0000                                                             
     4  3  3.50      -132.9059  14.0000                                                             
     5  0  0.50      -144.0950   2.0000                                                             
     5  1  1.50       -85.7879   6.0000                                                             
     5  2  2.50       -21.1769  10.0000                                                             
     6  0  0.50       -12.0372   2.0000                                                             
     6  1  1.50        -3.4971   2.0000                                                             
     6  2  2.50        -1.3606   0.0000                                                             
     5  3  2.50        -2.7212   0.0000                                                             
   Description                                                                                      
     l       E           TYP  RCUT    TYP  RCUT                                                     
     0    -12.0371566     23  3.100                                                                 
     0    -13.3977392     23  3.100                                                                 
     1     -3.4971341     23  3.100                                                                 
     1     -5.4423304     23  3.100                                                                 
     2     -1.3605826     23  3.100                                                                 
     3     -1.3605826     23  3.100                                                                 
  local pseudopotential read in
  partial core-charges read in
  partial kinetic energy density read in
  atomic valenz-charges read in
  non local Contribution for L=            0  read in
    real space projection operators read in
  non local Contribution for L=            0  read in
    real space projection operators read in
  non local Contribution for L=            1  read in
    real space projection operators read in
  non local Contribution for L=            1  read in
    real space projection operators read in
  non local Contribution for L=            2  read in
    real space projection operators read in
    PAW grid and wavefunctions read in
 
   number of l-projection  operators is LMAX  =            5
   number of lm-projection operators is LMMAX =           13
 
 Optimization of the real space projectors (new method)

 maximal supplied QI-value         = 34.20
 optimisation between [QCUT,QGAM] = [ 11.29, 22.57] = [ 35.68,142.71] Ry 
 Optimized for a Real-space Cutoff    1.16 Angstroem

   l    n(q)    QCUT    max X(q) W(low)/X(q) W(high)/X(q)  e(spline) 
   0      8    11.287    19.460    0.40E-03    0.73E-03    0.16E-06
   0      8    11.287    12.209    0.38E-03    0.70E-03    0.15E-06
   1      7    11.287     4.655    0.22E-03    0.25E-04    0.22E-06
 Optimization of the real space projectors (new method)

 maximal supplied QI-value         = 25.13
 optimisation between [QCUT,QGAM] = [ 11.31, 22.87] = [ 35.82,146.48] Ry 
 Optimized for a Real-space Cutoff    1.00 Angstroem

   l    n(q)    QCUT    max X(q) W(low)/X(q) W(high)/X(q)  e(spline) 
   0      7    11.310   115.676    0.43E-03    0.13E-02    0.19E-06
   0      7    11.310    87.132    0.43E-03    0.13E-02    0.18E-06
   1      6    11.310     4.429    0.42E-03    0.74E-03    0.11E-06
   1      6    11.310     2.733    0.34E-03    0.55E-03    0.92E-07
 Optimization of the real space projectors (new method)

 maximal supplied QI-value         = 25.13
 optimisation between [QCUT,QGAM] = [ 11.31, 22.87] = [ 35.82,146.48] Ry 
 Optimized for a Real-space Cutoff    1.27 Angstroem

   l    n(q)    QCUT    max X(q) W(low)/X(q) W(high)/X(q)  e(spline) 
   0      9    11.310    79.467    0.75E-04    0.16E-03    0.36E-06
   0      9    11.310    66.151    0.74E-04    0.16E-03    0.36E-06
   1      8    11.310    17.416    0.35E-03    0.12E-03    0.95E-06
   1      8    11.310    12.382    0.37E-03    0.13E-03    0.98E-06
 Optimization of the real space projectors (new method)

 maximal supplied QI-value         = 16.25
 optimisation between [QCUT,QGAM] = [ 11.38, 22.75] = [ 36.24,144.96] Ry 
 Optimized for a Real-space Cutoff    1.31 Angstroem

   l    n(q)    QCUT    max X(q) W(low)/X(q) W(high)/X(q)  e(spline) 
   0      9    11.376   194.483    0.24E-03    0.23E-03    0.67E-07
   0      9    11.376   190.334    0.23E-03    0.22E-03    0.65E-07
   1      8    11.376   116.687    0.25E-03    0.63E-04    0.16E-06
   1      8    11.376    88.696    0.25E-03    0.61E-04    0.16E-06
   2      8    11.376     4.877    0.17E-03    0.14E-03    0.29E-07
 Optimization of the real space projectors (new method)

 maximal supplied QI-value         = 12.09
 optimisation between [QCUT,QGAM] = [ 11.37, 22.86] = [ 36.19,146.31] Ry 
 Optimized for a Real-space Cutoff    1.66 Angstroem

   l    n(q)    QCUT    max X(q) W(low)/X(q) W(high)/X(q)  e(spline) 
   0     11    11.369   135.111    0.12E-03    0.69E-04    0.19E-05
   0     11    11.369   146.850    0.11E-03    0.65E-04    0.18E-05
   1     11    11.369   148.016    0.17E-03    0.32E-03    0.89E-06
   1     11    11.369   122.989    0.17E-03    0.32E-03    0.91E-06
   2     10    11.369     8.916    0.12E-03    0.45E-04    0.33E-06
  PAW_PBE H 15Jun2001                   :
 energy of atom  1       EATOM=  -12.4884
 kinetic energy error for atom=    0.0020 (will be added to EATOM!!)
  PAW_PBE C 08Apr2002                   :
 energy of atom  2       EATOM= -147.1560
 kinetic energy error for atom=    0.0076 (will be added to EATOM!!)
  PAW_PBE N 08Apr2002                   :
 energy of atom  3       EATOM= -264.5486
 kinetic energy error for atom=    0.0138 (will be added to EATOM!!)
  PAW_PBE I 08Apr2002                   :
 energy of atom  4       EATOM= -315.8678
 kinetic energy error for atom=    0.0009 (will be added to EATOM!!)
  PAW_PBE Pb 08Apr2002                  :
 energy of atom  5       EATOM=  -96.9868
 kinetic energy error for atom=    0.0000 (will be added to EATOM!!)
 
 
 POSCAR:  H  C  N  I Pb
  positions in cartesian coordinates
  No initial velocities read in
 exchange correlation table for  LEXCH =        8
   RHO(1)=    0.500       N(1)  =     2000
   RHO(2)=  100.500       N(2)  =     4000
 


--------------------------------------------------------------------------------------------------------


 ion  position               nearest neighbor table
   1  0.444  0.330  0.567- 187 1.03
   2  0.421  0.830  0.569- 188 1.03
   3  0.962  0.323  0.578- 189 1.03
   4  0.948  0.815  0.574- 190 1.03
   5  0.325  0.953  0.573- 194 1.02
   6  0.346  0.560  0.565- 195 1.02
   7  0.804  0.082  0.572- 196 1.01
   8  0.015  0.139  0.561- 183 1.02
   9  0.065  0.654  0.568- 184 1.02
  10  0.560  0.172  0.555- 185 1.02
  11  0.502  0.648  0.562- 186 1.02
  12  0.364  0.020  0.557- 194 1.03
  13  0.288  0.630  0.555- 195 1.03
  14  0.874  0.023  0.563- 196 1.03
  15  0.965  0.186  0.580- 183 1.02
  16  0.992  0.689  0.584- 184 1.04
  17  0.562  0.258  0.568- 185 1.04
  18  0.433  0.695  0.576- 186 1.02
  19  0.285  0.439  0.573- 191 1.02
  20  0.191  0.930  0.570- 192 1.01
  21  0.676  0.033  0.571- 193 1.02
  22  0.368  0.286  0.556- 187 1.02
  23  0.489  0.870  0.553- 188 1.02
  24  0.018  0.366  0.559- 189 1.03
  25  0.997  0.863  0.555- 190 1.03
  26  0.193  0.430  0.565- 191 1.02
  27  0.139  0.991  0.555- 192 1.03
  28  0.666  0.943  0.561- 193 1.01
  29  0.436  0.183  0.546- 146 1.08
  30  0.550  0.757  0.547- 147 1.09
  31  0.059  0.250  0.545- 144 1.09
  32  0.079  0.763  0.549- 145 1.09
  33  0.186  0.550  0.553- 148 1.09
  34  0.246  0.058  0.545- 149 1.09
  35  0.790  0.929  0.555- 150 1.09
  36  0.485  0.337  0.666- 205 1.03
  37  0.445  0.813  0.674- 206 1.03
  38  0.967  0.281  0.678- 207 1.02
  39  0.926  0.726  0.673- 208 1.03
  40  0.310  0.052  0.671- 209 1.03
  41  0.300  0.551  0.675- 210 1.03
  42  0.796  0.060  0.675- 211 1.03
  43  0.753  0.597  0.662- 212 1.02
  44  0.084  0.163  0.645- 197 1.02
  45  0.110  0.720  0.651- 198 1.01
  46  0.580  0.171  0.649- 199 1.02
  47  0.563  0.667  0.651- 200 1.02
  48  0.182  0.414  0.648- 201 1.01
  49  0.174  0.922  0.649- 202 1.01
  50  0.711  0.400  0.662- 203 1.03
  51  0.676  0.922  0.649- 204 1.01
  52  0.063  0.178  0.672- 197 1.01
  53  0.056  0.677  0.670- 198 1.02
  54  0.597  0.257  0.660- 199 1.01
  55  0.530  0.698  0.676- 200 1.02
  56  0.200  0.446  0.674- 201 1.03
  57  0.206  0.950  0.673- 202 1.03
  58  0.673  0.486  0.669- 203 1.02
  59  0.692  0.960  0.674- 204 1.03
  60  0.400  0.297  0.660- 205 1.02
  61  0.430  0.845  0.648- 206 1.02
  62  0.937  0.326  0.655- 207 1.01
  63  0.902  0.796  0.655- 208 1.02
  64  0.333  0.077  0.645- 209 1.02
  65  0.333  0.576  0.650- 210 1.01
  66  0.836  0.077  0.651- 211 1.02
  67  0.837  0.581  0.649- 212 1.04
  68  0.008  0.255  0.633- 151 1.08
  69  0.018  0.800  0.640- 152 1.09
  70  0.453  0.190  0.647- 153 1.08
  71  0.504  0.756  0.632- 154 1.08
  72  0.250  0.999  0.629- 156 1.09
  73  0.262  0.492  0.631- 155 1.09
  74  0.766  0.991  0.632- 158 1.08
  75  0.817  0.452  0.647- 157 1.09
  76  0.449  0.301  0.769- 221 1.02
  77  0.449  0.801  0.769- 222 1.02
  78  0.949  0.301  0.769- 223 1.02
  79  0.949  0.801  0.769- 224 1.02
  80  0.301  0.051  0.769- 225 1.02
  81  0.301  0.551  0.769- 226 1.02
  82  0.801  0.051  0.769- 227 1.02
  83  0.801  0.551  0.769- 228 1.02
  84  0.079  0.171  0.743- 213 1.02
  85  0.079  0.671  0.743- 214 1.02
  86  0.579  0.171  0.743- 215 1.02
  87  0.579  0.671  0.743- 216 1.02
  88  0.171  0.421  0.743- 217 1.02
  89  0.171  0.921  0.743- 218 1.02
  90  0.671  0.421  0.743- 219 1.02
  91  0.671  0.921  0.743- 220 1.02
  92  0.051  0.199  0.769- 213 1.02
  93  0.051  0.699  0.769- 214 1.02
  94  0.551  0.199  0.769- 215 1.02
  95  0.551  0.699  0.769- 216 1.02
  96  0.199  0.449  0.769- 217 1.02
  97  0.199  0.949  0.769- 218 1.02
  98  0.699  0.449  0.769- 219 1.02
  99  0.699  0.949  0.769- 220 1.02
 100  0.421  0.329  0.743- 221 1.02
 101  0.421  0.829  0.743- 222 1.02
 102  0.921  0.329  0.743- 223 1.02
 103  0.921  0.829  0.743- 224 1.02
 104  0.329  0.079  0.743- 225 1.02
 105  0.329  0.579  0.743- 226 1.02
 106  0.829  0.079  0.743- 227 1.02
 107  0.829  0.579  0.743- 228 1.02
 108  0.000  0.250  0.726- 161 1.09
 109  0.000  0.750  0.726- 162 1.09
 110  0.500  0.250  0.726- 159 1.09
 111  0.500  0.750  0.726- 160 1.09
 112  0.250  0.000  0.726- 163 1.09
 113  0.250  0.500  0.726- 164 1.09
 114  0.750  0.000  0.726- 165 1.09
 115  0.750  0.500  0.726- 166 1.09
 116  0.776  0.556  0.520- 173 1.10
 117  0.721  0.477  0.525- 173 1.09
 118  0.870  0.501  0.541- 174 1.10
 119  0.857  0.482  0.568- 174 1.10
 120  0.743  0.641  0.560- 175 1.10
 121  0.808  0.598  0.577- 175 1.10
 122  0.666  0.549  0.570- 176 1.09
 123  0.678  0.458  0.561- 176 1.10
 124  0.616  0.556  0.538- 177 1.10
 125  0.672  0.636  0.535- 177 1.11
 126  0.606  0.645  0.504- 178 1.11
 127  0.687  0.601  0.495- 178 1.10
 128  0.788  0.392  0.531- 179 1.10
 129  0.779  0.369  0.558- 179 1.10
 130  0.866  0.368  0.546- 179 1.10
 131  0.864  0.695  0.555- 180 1.10
 132  0.845  0.647  0.531- 180 1.10
 133  0.908  0.609  0.550- 180 1.10
 134  0.761  0.529  0.599- 181 1.09
 135  0.774  0.436  0.590- 181 1.10
 136  0.688  0.465  0.600- 181 1.10
 137  0.535  0.530  0.503- 182 1.10
 138  0.578  0.548  0.479- 182 1.09
 139  0.697  0.477  0.468- 168 1.11
 140  0.561  0.417  0.523- 169 1.09
 141  0.762  0.356  0.471- 170 1.10
 142  0.628  0.298  0.526- 171 1.09
 143  0.729  0.267  0.500- 172 1.09
 144  0.020  0.252  0.558-  31 1.09 189 1.31 183 1.31
 145  0.035  0.758  0.560-  32 1.09 184 1.31 190 1.32
 146  0.463  0.229  0.554-  29 1.08 187 1.30 185 1.32
 147  0.499  0.759  0.557-  30 1.09 188 1.30 186 1.31
 148  0.239  0.530  0.559-  33 1.09 195 1.31 191 1.32
 149  0.251  0.010  0.555-  34 1.09 194 1.31 192 1.31
 150  0.770  0.981  0.561-  35 1.09 196 1.31 193 1.31
 151  0.010  0.245  0.650-  68 1.08 207 1.31 197 1.32
 152  0.006  0.760  0.652-  69 1.09 208 1.31 198 1.32
 153  0.488  0.233  0.654-  70 1.08 205 1.30 199 1.31
 154  0.497  0.756  0.649-  71 1.08 200 1.31 206 1.32
 155  0.257  0.495  0.649-  73 1.09 201 1.30 210 1.32
 156  0.253  1.000  0.647-  72 1.09 209 1.30 202 1.32
 157  0.776  0.488  0.655-  75 1.09 212 1.30 203 1.31
 158  0.757  0.999  0.649-  74 1.08 211 1.30 204 1.32
 159  0.500  0.250  0.743- 110 1.09 221 1.31 215 1.31
 160  0.500  0.750  0.743- 111 1.09 222 1.31 216 1.31
 161  1.000  0.250  0.743- 108 1.09 223 1.31 213 1.31
 162  1.000  0.750  0.743- 109 1.09 224 1.31 214 1.31
 163  0.250  0.000  0.743- 112 1.09 225 1.31 218 1.31
 164  0.250  0.500  0.743- 113 1.09 226 1.31 217 1.31
 165  0.750  0.000  0.743- 114 1.09 227 1.31 220 1.31
 166  0.750  0.500  0.743- 115 1.09 228 1.31 219 1.31
 167  0.624  0.456  0.496- 169 1.40 168 1.40 182 1.51
 168  0.681  0.437  0.481- 139 1.11 170 1.39 167 1.40
 169  0.605  0.404  0.511- 140 1.09 171 1.39 167 1.40
 170  0.718  0.370  0.483- 141 1.10 168 1.39 172 1.40
 171  0.642  0.337  0.513- 142 1.09 169 1.39 172 1.39
 172  0.700  0.320  0.499- 143 1.09 171 1.39 170 1.40
 173  0.732  0.534  0.530- 117 1.09 116 1.10 229 1.53 177 1.53
 174  0.831  0.478  0.552- 118 1.10 119 1.10 229 1.51 179 1.52
 175  0.792  0.605  0.560- 121 1.10 120 1.10 180 1.51 229 1.52
 176  0.707  0.504  0.568- 122 1.09 123 1.10 181 1.51 229 1.53
 177  0.662  0.581  0.528- 124 1.10 125 1.11 173 1.53 178 1.54
 178  0.638  0.593  0.505- 127 1.10 126 1.11 182 1.54 177 1.54
 179  0.813  0.398  0.546- 130 1.10 128 1.10 129 1.10 174 1.52
 180  0.856  0.639  0.548- 132 1.10 131 1.10 133 1.10 175 1.51
 181  0.735  0.483  0.590- 134 1.09 135 1.10 136 1.10 176 1.51
 182  0.589  0.531  0.495- 138 1.09 137 1.10 167 1.51 178 1.54
 183  0.000  0.189  0.567-   8 1.02  15 1.02 144 1.31
 184  0.032  0.698  0.572-   9 1.02  16 1.04 145 1.31
 185  0.534  0.221  0.558-  10 1.02  17 1.04 146 1.32
 186  0.475  0.697  0.565-  11 1.02  18 1.02 147 1.31
 187  0.424  0.287  0.559-  22 1.02   1 1.03 146 1.30
 188  0.466  0.823  0.559-  23 1.02   2 1.03 147 1.30
 189  0.997  0.317  0.565-  24 1.03   3 1.03 144 1.31
 190  0.988  0.813  0.563-  25 1.03   4 1.03 145 1.32
 191  0.242  0.460  0.564-  26 1.02  19 1.02 148 1.32
 192  0.190  0.973  0.560-  20 1.01  27 1.03 149 1.31
 193  0.699  0.988  0.564-  28 1.01  21 1.02 150 1.31
 194  0.317  0.993  0.562-   5 1.02  12 1.03 149 1.31
 195  0.295  0.576  0.559-   6 1.02  13 1.03 148 1.31
 196  0.819  0.032  0.566-   7 1.01  14 1.03 150 1.31
 197  0.055  0.191  0.656-  52 1.01  44 1.02 151 1.32
 198  0.060  0.715  0.658-  45 1.01  53 1.02 152 1.32
 199  0.560  0.220  0.655-  54 1.01  46 1.02 153 1.31
 200  0.532  0.704  0.660-  55 1.02  47 1.02 154 1.31
 201  0.211  0.449  0.658-  48 1.01  56 1.03 155 1.30
 202  0.208  0.955  0.657-  49 1.01  57 1.03 156 1.32
 203  0.715  0.456  0.662-  58 1.02  50 1.03 157 1.31
 204  0.705  0.958  0.659-  51 1.01  59 1.03 158 1.32
 205  0.456  0.293  0.660-  60 1.02  36 1.03 153 1.30
 206  0.456  0.808  0.658-  61 1.02  37 1.03 154 1.32
 207  0.969  0.286  0.662-  62 1.01  38 1.02 151 1.31
 208  0.941  0.762  0.661-  63 1.02  39 1.03 152 1.31
 209  0.301  0.045  0.655-  64 1.02  40 1.03 156 1.30
 210  0.300  0.543  0.659-  65 1.01  41 1.03 155 1.32
 211  0.798  0.048  0.659-  66 1.02  42 1.03 158 1.30
 212  0.789  0.559  0.656-  43 1.02  67 1.04 157 1.30
 213  0.046  0.204  0.753-  92 1.02  84 1.02 161 1.31
 214  0.046  0.704  0.753-  93 1.02  85 1.02 162 1.31
 215  0.546  0.204  0.753-  94 1.02  86 1.02 159 1.31
 216  0.546  0.704  0.753-  95 1.02  87 1.02 160 1.31
 217  0.204  0.454  0.753-  96 1.02  88 1.02 164 1.31
 218  0.204  0.954  0.753-  97 1.02  89 1.02 163 1.31
 219  0.704  0.454  0.753-  98 1.02  90 1.02 166 1.31
 220  0.704  0.954  0.753-  99 1.02  91 1.02 165 1.31
 221  0.454  0.296  0.753-  76 1.02 100 1.02 159 1.31
 222  0.454  0.796  0.753-  77 1.02 101 1.02 160 1.31
 223  0.954  0.296  0.753-  78 1.02 102 1.02 161 1.31
 224  0.954  0.796  0.753-  79 1.02 103 1.02 162 1.31
 225  0.296  0.046  0.753-  80 1.02 104 1.02 163 1.31
 226  0.296  0.546  0.753-  81 1.02 105 1.02 164 1.31
 227  0.796  0.046  0.753-  82 1.02 106 1.02 165 1.31
 228  0.796  0.546  0.753-  83 1.02 107 1.02 166 1.31
 229  0.765  0.530  0.553- 174 1.51 175 1.52 173 1.53 176 1.53
 230  0.506  0.018  0.551- 304 3.27
 231  0.477  0.499  0.555- 305 3.15
 232  0.003  0.003  0.550- 302 3.49
 233  0.040  0.505  0.553- 303 3.29
 234  0.233  0.242  0.552- 306 3.16
 235  0.253  0.765  0.553- 307 3.19
 236  0.735  0.202  0.555- 308 3.08
 237  0.704  0.792  0.553- 309 3.20
 238  0.001  0.982  0.654- 302 3.07 310 3.18
 239  0.001  0.499  0.655- 311 3.10 303 3.13
 240  0.503  0.015  0.654- 304 3.15 312 3.19
 241  0.514  0.488  0.655- 313 3.13 305 3.14
 242  0.261  0.246  0.654- 314 3.16 306 3.26
 243  0.255  0.754  0.655- 315 3.13 307 3.18
 244  0.755  0.264  0.655- 316 3.14 308 3.27
 245  0.745  0.752  0.654- 317 3.16 309 3.23
 246  0.135  0.109  0.608- 302 3.18 306 3.19
 247  0.150  0.605  0.610- 307 3.11 303 3.17
 248  0.648  0.105  0.610- 308 3.10 304 3.18
 249  0.617  0.631  0.612- 309 3.17 305 3.32
 250  0.360  0.383  0.606- 305 3.18 306 3.27
 251  0.372  0.883  0.607- 304 3.27 307 3.35
 252  0.892  0.365  0.611- 303 3.27 308 3.49
 253  0.872  0.872  0.607- 302 3.22 309 3.23
 254  0.125  0.367  0.610- 306 3.13 303 3.21
 255  0.125  0.869  0.608- 307 3.18 302 3.26
 256  0.587  0.334  0.602- 308 3.23 305 3.29
 257  0.618  0.873  0.612- 309 3.06 304 3.24
 258  0.385  0.134  0.605- 304 3.12 306 3.23
 259  0.384  0.629  0.611- 305 3.24 307 3.24
 260  0.886  0.133  0.612- 302 3.20 308 3.34
 261  0.902  0.640  0.612- 303 3.20 309 3.71
 262  0.000  0.000  0.755- 310 3.13 318 3.27
 263  0.000  0.500  0.755- 311 3.13 319 3.27
 264  0.500  0.000  0.755- 312 3.13 320 3.27
 265  0.500  0.500  0.755- 313 3.13 321 3.27
 266  0.250  0.250  0.755- 314 3.13 322 3.27
 267  0.250  0.750  0.755- 315 3.13 323 3.27
 268  0.750  0.250  0.755- 316 3.13 324 3.27
 269  0.750  0.750  0.755- 317 3.13 325 3.27
 270  0.136  0.114  0.705- 310 3.20 314 3.20
 271  0.136  0.614  0.705- 311 3.20 315 3.20
 272  0.636  0.114  0.705- 312 3.20 316 3.20
 273  0.636  0.614  0.705- 313 3.20 317 3.20
 274  0.364  0.386  0.705- 313 3.20 314 3.20
 275  0.364  0.886  0.705- 312 3.20 315 3.20
 276  0.864  0.386  0.705- 311 3.20 316 3.20
 277  0.864  0.886  0.705- 310 3.20 317 3.20
 278  0.114  0.364  0.705- 314 3.21 311 3.21
 279  0.114  0.864  0.705- 315 3.21 310 3.21
 280  0.614  0.364  0.705- 316 3.21 313 3.21
 281  0.614  0.864  0.705- 317 3.21 312 3.21
 282  0.386  0.136  0.705- 314 3.21 312 3.21
 283  0.386  0.636  0.705- 315 3.21 313 3.21
 284  0.886  0.136  0.705- 316 3.21 310 3.21
 285  0.886  0.636  0.705- 317 3.21 311 3.21
 286  0.135  0.115  0.801- 318 3.22 322 3.22
 287  0.135  0.615  0.801- 319 3.22 323 3.22
 288  0.635  0.115  0.801- 320 3.22 324 3.22
 289  0.635  0.615  0.801- 321 3.22 325 3.22
 290  0.365  0.385  0.801- 321 3.22 322 3.22
 291  0.365  0.885  0.801- 320 3.22 323 3.22
 292  0.865  0.385  0.801- 319 3.22 324 3.22
 293  0.865  0.885  0.801- 318 3.22 325 3.22
 294  0.115  0.365  0.801- 319 3.23 322 3.23
 295  0.115  0.865  0.801- 318 3.23 323 3.23
 296  0.615  0.365  0.801- 321 3.23 324 3.23
 297  0.615  0.865  0.801- 320 3.23 325 3.23
 298  0.385  0.135  0.801- 320 3.23 322 3.23
 299  0.385  0.635  0.801- 321 3.23 323 3.23
 300  0.885  0.135  0.801- 318 3.23 324 3.23
 301  0.885  0.635  0.801- 319 3.23 325 3.23
 302  0.998  0.998  0.605- 238 3.07 246 3.18 260 3.20 253 3.22 255 3.26 232 3.49
 303  0.009  0.501  0.605- 239 3.13 247 3.17 261 3.20 254 3.21 252 3.27 233 3.29
 304  0.503  0.008  0.604- 258 3.12 240 3.15 248 3.18 257 3.24 251 3.27 230 3.27
 305  0.498  0.493  0.605- 241 3.14 231 3.15 250 3.18 259 3.24 256 3.29 249 3.32
 306  0.245  0.245  0.602- 254 3.13 234 3.16 246 3.19 258 3.23 242 3.26 250 3.27
 307  0.249  0.745  0.604- 247 3.11 243 3.18 255 3.18 235 3.19 259 3.24 251 3.35
 308  0.742  0.245  0.603- 236 3.08 248 3.10 256 3.23 244 3.27 260 3.34 252 3.49
 309  0.736  0.757  0.603- 257 3.06 249 3.17 237 3.20 253 3.23 245 3.23 261 3.71
 310  0.000  0.000  0.705- 262 3.13 238 3.18 270 3.20 277 3.20 279 3.21 284 3.21
 311  0.000  0.500  0.705- 239 3.10 263 3.13 271 3.20 276 3.20 278 3.21 285 3.21
 312  0.500  0.000  0.705- 264 3.13 240 3.19 272 3.20 275 3.20 281 3.21 282 3.21
 313  0.500  0.500  0.705- 241 3.13 265 3.13 273 3.20 274 3.20 280 3.21 283 3.21
 314  0.250  0.250  0.705- 266 3.13 242 3.16 270 3.20 274 3.20 282 3.21 278 3.21
 315  0.250  0.750  0.705- 267 3.13 243 3.13 271 3.20 275 3.20 283 3.21 279 3.21
 316  0.750  0.250  0.705- 268 3.13 244 3.14 272 3.20 276 3.20 284 3.21 280 3.21
 317  0.750  0.750  0.705- 269 3.13 245 3.16 273 3.20 277 3.20 285 3.21 281 3.21
 318  0.000  0.000  0.807- 286 3.22 293 3.22 300 3.23 295 3.23 262 3.27
 319  0.000  0.500  0.807- 287 3.22 292 3.22 301 3.23 294 3.23 263 3.27
 320  0.500  0.000  0.807- 288 3.22 291 3.22 298 3.23 297 3.23 264 3.27
 321  0.500  0.500  0.807- 289 3.22 290 3.22 299 3.23 296 3.23 265 3.27
 322  0.250  0.250  0.807- 290 3.22 286 3.22 294 3.23 298 3.23 266 3.27
 323  0.250  0.750  0.807- 291 3.22 287 3.22 299 3.23 295 3.23 267 3.27
 324  0.750  0.250  0.807- 292 3.22 288 3.22 296 3.23 300 3.23 268 3.27
 325  0.750  0.750  0.807- 293 3.22 289 3.22 297 3.23 301 3.23 269 3.27
 

IMPORTANT INFORMATION: All symmetrisations will be switched off!
NOSYMM: (Re-)initialisation of all symmetry stuff for point group C_1.


----------------------------------------------------------------------------------------

                                     Primitive cell                                     

  volume of cell :   20385.2105

  direct lattice vectors                    reciprocal lattice vectors
    18.060800552  0.000000000  0.000000000     0.055368531  0.000015077 -0.000000000
    -0.004918649 18.062799454  0.000000000     0.000000000  0.055362404  0.000000000
     0.000000000  0.000000000 62.487499237     0.000000000 -0.000000000  0.016003201

  length of vectors
    18.060800552 18.062800123 62.487499237     0.055368533  0.055362404  0.016003201

  position of ions in fractional coordinates (direct lattice)
     0.444229816  0.330088598  0.567441193
     0.421164582  0.829894249  0.568570325
     0.961739483  0.322565955  0.577633539
     0.947658581  0.814687508  0.574386918
     0.324597680  0.952588056  0.573497214
     0.345642366  0.559912985  0.564739359
     0.803974190  0.082267750  0.572223705
     0.015326296  0.139458215  0.560883363
     0.064664590  0.653773837  0.568473382
     0.559508674  0.171695833  0.554867084
     0.502473573  0.648137366  0.562492815
     0.363760079  0.020312256  0.557447068
     0.287843626  0.630472521  0.555037894
     0.873742287  0.022691590  0.562985895
     0.964798430  0.185818268  0.579740162
     0.992185883  0.688560448  0.583759337
     0.562123738  0.258053392  0.567768712
     0.432713771  0.694740736  0.575689852
     0.284532247  0.438558548  0.572878926
     0.190643401  0.930245728  0.570417252
     0.675502351  0.032948123  0.570670171
     0.368355403  0.285707614  0.555627795
     0.489288557  0.870444627  0.552932187
     0.018453970  0.365584572  0.558658858
     0.997158473  0.862577347  0.554914456
     0.193496270  0.430089321  0.564548463
     0.139113690  0.990891900  0.555112982
     0.666116941  0.942976930  0.561113389
     0.436049385  0.183313439  0.545745569
     0.550206394  0.757488958  0.547422846
     0.058647722  0.249672601  0.544816734
     0.079026254  0.762924218  0.548886212
     0.186021736  0.550273022  0.552693920
     0.245531272  0.058105944  0.544728154
     0.789932133  0.928861418  0.554806036
     0.484738951  0.337444057  0.666493536
     0.444641589  0.812912396  0.673770871
     0.967139515  0.280935124  0.678225986
     0.925697067  0.725798510  0.673088850
     0.310122087  0.052235945  0.671195710
     0.299826141  0.550945084  0.675043098
     0.795936620  0.059680992  0.675131006
     0.753350096  0.597185682  0.662059910
     0.084132873  0.162985109  0.644930508
     0.110316123  0.719949158  0.650559075
     0.580249172  0.171129960  0.648949744
     0.563379581  0.666638262  0.651260021
     0.181573409  0.414318568  0.648237505
     0.173863985  0.922127262  0.648626620
     0.711460767  0.399763535  0.661797101
     0.676274322  0.921980670  0.649356869
     0.063494263  0.177523762  0.671840492
     0.056456569  0.676677692  0.669546698
     0.596873046  0.257013013  0.660092232
     0.529920607  0.697828452  0.675981884
     0.199884830  0.446439106  0.673860671
     0.206014272  0.950347249  0.673393781
     0.673127694  0.485575615  0.668844348
     0.691721186  0.959904250  0.674486041
     0.399744544  0.296833384  0.660026789
     0.430480784  0.845184411  0.647906750
     0.936652145  0.325750844  0.655254960
     0.901797161  0.796453927  0.655349156
     0.332669328  0.077328690  0.645246367
     0.333125393  0.576208415  0.649986939
     0.835912050  0.076660984  0.650508589
     0.836719092  0.580551026  0.648902982
     0.007506676  0.255272458  0.632542166
     0.017688829  0.799664080  0.639521711
     0.453076560  0.190237185  0.646948245
     0.503900333  0.755972819  0.631936698
     0.249713264  0.998691841  0.629192436
     0.261833079  0.492341429  0.631371582
     0.766204758  0.990730502  0.632465673
     0.816909590  0.452435289  0.647146222
     0.448745018  0.301283966  0.768889017
     0.448745007  0.801283913  0.768889017
     0.948744965  0.301283966  0.768889017
     0.948745007  0.801283913  0.768889017
     0.301275995  0.051294496  0.768872961
     0.301276011  0.551294499  0.768872961
     0.801275943  0.051294496  0.768872961
     0.801275984  0.551294499  0.768872961
     0.078771004  0.171180501  0.743441971
     0.078771006  0.671180448  0.743441971
     0.578771004  0.171180501  0.743441971
     0.578770992  0.671180448  0.743441971
     0.171199499  0.421174482  0.743421032
     0.171199501  0.921174508  0.743421032
     0.671199512  0.421174482  0.743421032
     0.671199501  0.921174508  0.743421032
     0.051256000  0.198714991  0.768889017
     0.051256002  0.698714925  0.768889017
     0.551256027  0.198714991  0.768889017
     0.551256016  0.698714925  0.768889017
     0.198723491  0.448703970  0.768872046
     0.198723493  0.948703970  0.768872046
     0.698723518  0.448703970  0.768872046
     0.698723507  0.948703970  0.768872046
     0.421231519  0.328817467  0.743441971
     0.421231508  0.828817440  0.743441971
     0.921231466  0.328817467  0.743441971
     0.921231508  0.828817440  0.743441971
     0.328800503  0.078824997  0.743421032
     0.328800492  0.578824964  0.743421032
     0.828800477  0.078824997  0.743421032
     0.828800519  0.578824964  0.743421032
     0.000003500  0.250001478  0.725821992
     0.000003500  0.750001452  0.725821992
     0.500003506  0.250001478  0.725821992
     0.500003495  0.750001452  0.725821992
     0.250000502  0.000000000  0.725803983
     0.250000517  0.500000000  0.725803983
     0.750000502  0.000000000  0.725803983
     0.750000490  0.500000000  0.725803983
     0.775873378  0.555626076  0.519719246
     0.721360218  0.477320536  0.525419910
     0.870084538  0.501229025  0.540751406
     0.856659918  0.481822279  0.568025844
     0.742997489  0.641015853  0.559781946
     0.808070976  0.597514506  0.577042417
     0.666347623  0.549014272  0.569694146
     0.677848792  0.457796526  0.560649673
     0.615954579  0.555679824  0.537600874
     0.671938692  0.635944475  0.535437477
     0.606081852  0.644886928  0.504126375
     0.686752865  0.601161982  0.494704110
     0.787664740  0.392032499  0.530643611
     0.778639967  0.368912042  0.558239279
     0.866188529  0.368395417  0.545631228
     0.863528625  0.694791686  0.555204920
     0.844626492  0.647310448  0.531309393
     0.908320899  0.609200274  0.550387001
     0.761051933  0.529194384  0.598806964
     0.774323697  0.436376471  0.590052466
     0.687519563  0.465404992  0.599928709
     0.535095346  0.530084553  0.503396279
     0.577801911  0.547949395  0.478630736
     0.696676176  0.476853329  0.468395107
     0.561013639  0.417005126  0.522586457
     0.762214654  0.356196851  0.471361124
     0.628116692  0.297727328  0.525580953
     0.729155602  0.267130426  0.500423455
     0.020015716  0.252456334  0.558238547
     0.034518542  0.758176543  0.560492049
     0.463282384  0.228654628  0.553843441
     0.498890767  0.758923841  0.556622195
     0.239070931  0.529986930  0.558565883
     0.250833806  0.010319720  0.555282755
     0.770402060  0.981231108  0.561382974
     0.010222862  0.244556874  0.649591718
     0.006315186  0.760053554  0.652182752
     0.488185139  0.232999509  0.653551495
     0.497212808  0.755939662  0.649094365
     0.257150205  0.494698477  0.648733759
     0.253299553  0.999970095  0.646530193
     0.775781998  0.488432710  0.654680016
     0.756942512  0.998959952  0.649441359
     0.499988984  0.249994984  0.743277021
     0.499989025  0.749994958  0.743277021
     0.999988984  0.249994984  0.743277021
     0.999989025  0.749994958  0.743277021
     0.250000502  0.000001000  0.743255960
     0.250000517  0.500001003  0.743255960
     0.750000502  0.000001000  0.743255960
     0.750000491  0.500001003  0.743255960
     0.624389211  0.455844331  0.495643721
     0.680775925  0.437322659  0.481154617
     0.604899222  0.404310526  0.511307041
     0.718359289  0.370108649  0.482815838
     0.642009236  0.337027377  0.513011117
     0.699525070  0.319551417  0.498997846
     0.732310462  0.534141107  0.530216157
     0.830695331  0.477650627  0.552220741
     0.791593283  0.604772448  0.560301581
     0.706510904  0.503859195  0.568483088
     0.661546388  0.580739461  0.528344750
     0.637768383  0.592611078  0.504877959
     0.813333072  0.398043254  0.546455550
     0.855800700  0.639266032  0.548406929
     0.735319898  0.482965930  0.590297754
     0.589070760  0.531435647  0.495156410
     0.000382035  0.189434514  0.567065752
     0.031699377  0.697745718  0.571916697
     0.534245135  0.220946955  0.558039898
     0.475339418  0.696817112  0.564990141
     0.424060082  0.286678221  0.558567226
     0.465763350  0.822701988  0.558616002
     0.996814012  0.317470712  0.564747112
     0.987655334  0.813408589  0.562675164
     0.241525978  0.459699777  0.564140911
     0.190423424  0.973201091  0.559953306
     0.698639239  0.988004845  0.563554795
     0.316702996  0.993210372  0.562342028
     0.294948829  0.575929432  0.559371586
     0.818974818  0.031994863  0.566422557
     0.054965990  0.191306945  0.656311751
     0.060361393  0.714614372  0.657580804
     0.559596109  0.219750797  0.654526177
     0.531973821  0.703649134  0.659715630
     0.210648706  0.449220437  0.657684890
     0.208231327  0.955264206  0.657045663
     0.715218009  0.456400027  0.661801131
     0.705365536  0.957842460  0.658533021
     0.456120331  0.293448206  0.659977524
     0.455660337  0.807753533  0.657745021
     0.968671273  0.285973213  0.662028166
     0.941344351  0.762187109  0.661331493
     0.301114434  0.045056550  0.654985497
     0.299593339  0.543319354  0.658734172
     0.797910373  0.047693188  0.659066636
     0.789076352  0.559025667  0.655715380
     0.045862501  0.204119496  0.752725994
     0.045862500  0.704119456  0.752725994
     0.545862507  0.204119496  0.752725994
     0.545862496  0.704119456  0.752725994
     0.204119002  0.454101003  0.752704994
     0.204118991  0.954100951  0.752704994
     0.704118976  0.454101003  0.752704994
     0.704118964  0.954100951  0.752704994
     0.454140018  0.295888490  0.752726971
     0.454140007  0.795888516  0.752726971
     0.954140018  0.295888490  0.752726971
     0.954140060  0.795888516  0.752726971
     0.295882492  0.045900498  0.752704994
     0.295882481  0.545900528  0.752704994
     0.795882439  0.045900498  0.752704994
     0.795882481  0.545900528  0.752704994
     0.765380990  0.529620198  0.552639099
     0.506217562  0.017828474  0.551290257
     0.476871039  0.499250589  0.555021289
     0.002550894  0.003038061  0.549518297
     0.039920247  0.505496558  0.553321792
     0.232505211  0.242179076  0.551823201
     0.252616677  0.765077097  0.553225581
     0.735382136  0.201761511  0.555270241
     0.704264186  0.792441143  0.553241759
     0.001129192  0.982220659  0.654234493
     0.001100703  0.498508359  0.655262774
     0.503173935  0.014808376  0.653965030
     0.513768890  0.488002989  0.655017120
     0.260834180  0.245854694  0.654322035
     0.254735039  0.754181393  0.654727755
     0.755349497  0.264062035  0.654709746
     0.745302212  0.752139759  0.654217582
     0.134563432  0.108568669  0.607919260
     0.149538948  0.605145199  0.609567661
     0.647681940  0.104815273  0.610363779
     0.617033692  0.631371297  0.611579904
     0.360434355  0.383278297  0.606269027
     0.372353368  0.882585142  0.607186936
     0.892095106  0.364504147  0.611485036
     0.872047497  0.872091969  0.606562665
     0.125190593  0.366977587  0.609562350
     0.124579446  0.869109426  0.607572694
     0.587252475  0.334267985  0.601869038
     0.617521000  0.873285249  0.611835937
     0.385417155  0.134290046  0.605250757
     0.384117709  0.629469260  0.611355555
     0.885637268  0.132742823  0.612090504
     0.902282637  0.640349229  0.612331885
     0.000000000  0.000000000  0.754927972
     0.000000000  0.500000000  0.754927972
     0.500000000  0.000000000  0.754927972
     0.499999989  0.500000000  0.754927972
     0.250000496  0.250000000  0.754939022
     0.250000511  0.749999974  0.754939022
     0.750000470  0.250000000  0.754939022
     0.750000458  0.749999974  0.754939022
     0.135790500  0.114209997  0.704782994
     0.135790502  0.614209984  0.704782994
     0.635790447  0.114209997  0.704782994
     0.635790488  0.614209984  0.704782994
     0.364209516  0.385789989  0.704782994
     0.364209505  0.885789963  0.704782994
     0.864209542  0.385789989  0.704782994
     0.864209531  0.885789963  0.704782994
     0.114217990  0.364218986  0.704780979
     0.114217992  0.864218986  0.704780979
     0.614218004  0.364218986  0.704780979
     0.614217992  0.864218986  0.704780979
     0.385782012  0.135781489  0.704782017
     0.385782001  0.635781489  0.704782017
     0.885781985  0.135781489  0.704782017
     0.885782027  0.635781489  0.704782017
     0.134667000  0.115332001  0.801256025
     0.134666989  0.615331988  0.801256025
     0.634666987  0.115332001  0.801256025
     0.634666976  0.615331988  0.801256025
     0.365333002  0.384667985  0.801256025
     0.365332990  0.884667959  0.801256025
     0.865332949  0.384667985  0.801256025
     0.865332938  0.884667959  0.801256025
     0.115328503  0.365337004  0.801264999
     0.115328505  0.865336978  0.801264999
     0.615328503  0.365337004  0.801264999
     0.615328492  0.865336978  0.801264999
     0.384671513  0.134662996  0.801264999
     0.384671501  0.634662970  0.801264999
     0.884671486  0.134662996  0.801264999
     0.884671528  0.634662970  0.801264999
     0.998055015  0.997869453  0.605385123
     0.009075426  0.500976388  0.605247644
     0.502592377  0.007708930  0.603573054
     0.498189153  0.492665290  0.604969695
     0.245288733  0.244583220  0.602270669
     0.248852537  0.744671629  0.603963207
     0.742495327  0.245482101  0.602808924
     0.736239944  0.756535484  0.602572243
     0.000000500  0.000000500  0.704828963
     0.000000500  0.500000475  0.704828963
     0.500000475  0.000000500  0.704828963
     0.500000464  0.500000475  0.704828963
     0.249999994  0.249999472  0.704824995
     0.250000010  0.749999498  0.704824995
     0.749999994  0.249999472  0.704824995
     0.749999983  0.749999498  0.704824995
     0.000000000  0.000000000  0.807317968
     0.000000000  0.500000000  0.807317968
     0.500000000  0.000000000  0.807317968
     0.499999989  0.500000000  0.807317968
     0.249999994  0.250000000  0.807317968
     0.250000010  0.749999974  0.807317968
     0.749999994  0.250000000  0.807317968
     0.749999983  0.749999974  0.807317968

  ion indices of the primitive-cell ions
   primitive index   ion index
                 1           1
                 2           2
                 3           3
                 4           4
                 5           5
                 6           6
                 7           7
                 8           8
                 9           9
                10          10
                11          11
                12          12
                13          13
                14          14
                15          15
                16          16
                17          17
                18          18
                19          19
                20          20
                21          21
                22          22
                23          23
                24          24
                25          25
                26          26
                27          27
                28          28
                29          29
                30          30
                31          31
                32          32
                33          33
                34          34
                35          35
                36          36
                37          37
                38          38
                39          39
                40          40
                41          41
                42          42
                43          43
                44          44
                45          45
                46          46
                47          47
                48          48
                49          49
                50          50
                51          51
                52          52
                53          53
                54          54
                55          55
                56          56
                57          57
                58          58
                59          59
                60          60
                61          61
                62          62
                63          63
                64          64
                65          65
                66          66
                67          67
                68          68
                69          69
                70          70
                71          71
                72          72
                73          73
                74          74
                75          75
                76          76
                77          77
                78          78
                79          79
                80          80
                81          81
                82          82
                83          83
                84          84
                85          85
                86          86
                87          87
                88          88
                89          89
                90          90
                91          91
                92          92
                93          93
                94          94
                95          95
                96          96
                97          97
                98          98
                99          99
               100         100
               101         101
               102         102
               103         103
               104         104
               105         105
               106         106
               107         107
               108         108
               109         109
               110         110
               111         111
               112         112
               113         113
               114         114
               115         115
               116         116
               117         117
               118         118
               119         119
               120         120
               121         121
               122         122
               123         123
               124         124
               125         125
               126         126
               127         127
               128         128
               129         129
               130         130
               131         131
               132         132
               133         133
               134         134
               135         135
               136         136
               137         137
               138         138
               139         139
               140         140
               141         141
               142         142
               143         143
               144         144
               145         145
               146         146
               147         147
               148         148
               149         149
               150         150
               151         151
               152         152
               153         153
               154         154
               155         155
               156         156
               157         157
               158         158
               159         159
               160         160
               161         161
               162         162
               163         163
               164         164
               165         165
               166         166
               167         167
               168         168
               169         169
               170         170
               171         171
               172         172
               173         173
               174         174
               175         175
               176         176
               177         177
               178         178
               179         179
               180         180
               181         181
               182         182
               183         183
               184         184
               185         185
               186         186
               187         187
               188         188
               189         189
               190         190
               191         191
               192         192
               193         193
               194         194
               195         195
               196         196
               197         197
               198         198
               199         199
               200         200
               201         201
               202         202
               203         203
               204         204
               205         205
               206         206
               207         207
               208         208
               209         209
               210         210
               211         211
               212         212
               213         213
               214         214
               215         215
               216         216
               217         217
               218         218
               219         219
               220         220
               221         221
               222         222
               223         223
               224         224
               225         225
               226         226
               227         227
               228         228
               229         229
               230         230
               231         231
               232         232
               233         233
               234         234
               235         235
               236         236
               237         237
               238         238
               239         239
               240         240
               241         241
               242         242
               243         243
               244         244
               245         245
               246         246
               247         247
               248         248
               249         249
               250         250
               251         251
               252         252
               253         253
               254         254
               255         255
               256         256
               257         257
               258         258
               259         259
               260         260
               261         261
               262         262
               263         263
               264         264
               265         265
               266         266
               267         267
               268         268
               269         269
               270         270
               271         271
               272         272
               273         273
               274         274
               275         275
               276         276
               277         277
               278         278
               279         279
               280         280
               281         281
               282         282
               283         283
               284         284
               285         285
               286         286
               287         287
               288         288
               289         289
               290         290
               291         291
               292         292
               293         293
               294         294
               295         295
               296         296
               297         297
               298         298
               299         299
               300         300
               301         301
               302         302
               303         303
               304         304
               305         305
               306         306
               307         307
               308         308
               309         309
               310         310
               311         311
               312         312
               313         313
               314         314
               315         315
               316         316
               317         317
               318         318
               319         319
               320         320
               321         321
               322         322
               323         323
               324         324
               325         325

----------------------------------------------------------------------------------------

 
 
 KPOINTS: Automatic Mesh                          

Automatic generation of k-mesh.
 Grid dimensions read from file:
 generate k-points for:    3    3    1

 Generating k-lattice:

  Cartesian coordinates                     Fractional coordinates (reciprocal lattice)
     0.018456177  0.000005026 -0.000000000     0.333333333  0.000000000  0.000000000
     0.000000000  0.018454135  0.000000000     0.000000000  0.333333333  0.000000000
     0.000000000 -0.000000000  0.016003201     0.000000000  0.000000000  1.000000000

  Length of vectors
     0.018456178  0.018454135  0.016003201

  Shift w.r.t. Gamma in fractional coordinates (k-lattice)
     0.000000000  0.000000000  0.000000000

 
 Subroutine IBZKPT returns following result:
 ===========================================
 
 Found      5 irreducible k-points:
 
 Following reciprocal coordinates:
            Coordinates               Weight
  0.000000  0.000000  0.000000      1.000000
  0.333333  0.000000  0.000000      2.000000
  0.000000  0.333333  0.000000      2.000000
  0.333333  0.333333  0.000000      2.000000
 -0.333333  0.333333  0.000000      2.000000
 
 Following cartesian coordinates:
            Coordinates               Weight
  0.000000  0.000000  0.000000      1.000000
  0.018456  0.000005  0.000000      2.000000
  0.000000  0.018454  0.000000      2.000000
  0.018456  0.018459  0.000000      2.000000
 -0.018456  0.018449  0.000000      2.000000
 


--------------------------------------------------------------------------------------------------------




 Dimension of arrays:
   k-points           NKPTS =      5   k-points in BZ     NKDIM =      5   number of bands    NBANDS=    732
   number of dos      NEDOS =    301   number of ions     NIONS =    325
   non local maximal  LDIM  =      5   non local SUM 2l+1 LMDIM =     13
   total plane-waves  NPLWV = ******
   max r-space proj   IRMAX =   3336   max aug-charges    IRDMAX=  19845
   dimension x,y,z NGX =   100 NGY =  100 NGZ =  350
   dimension x,y,z NGXF=   200 NGYF=  200 NGZF=  700
   support grid    NGXF=   200 NGYF=  200 NGZF=  700
   ions per type =             143  39  47  72  24
   NGX,Y,Z   is equivalent  to a cutoff of   9.20,  9.20,  9.31 a.u.
   NGXF,Y,Z  is equivalent  to a cutoff of  18.41, 18.41, 18.62 a.u.

 SYSTEM =  PSC                                     
 POSCAR =   H  C  N  I Pb                          

 Startparameter for this run:
   NWRITE =      2    write-flag & timer
   PREC   = normal    normal or accurate (medium, high low for compatibility)
   ISTART =      0    job   : 0-new  1-cont  2-samecut
   ICHARG =      1    charge: 1-file 2-atom 10-const
   ISPIN  =      1    spin polarized calculation?
   LNONCOLLINEAR =      F non collinear calculations
   LSORBIT =      F    spin-orbit coupling
   INIWAV =      1    electr: 0-lowe 1-rand  2-diag
   LASPH  =      F    aspherical Exc in radial PAW
 Electronic Relaxation 1
   ENCUT  =  500.0 eV  36.75 Ry    6.06 a.u.  32.93 32.93113.93*2*pi/ulx,y,z
   ENINI  =  500.0     initial cutoff
   ENAUG  =  644.9 eV  augmentation charge cutoff
   NELM   =    600;   NELMIN=  2; NELMDL=  0     # of ELM steps 
   EDIFF  = 0.1E-03   stopping-criterion for ELM
   LREAL  =      T    real-space projection
   NLSPLINE    = F    spline interpolate recip. space projectors
   LCOMPAT=      F    compatible to vasp.4.4
   GGA_COMPAT  = F    GGA compatible to vasp.4.4-vasp.4.6
   LMAXPAW     = -100 max onsite density
   LMAXMIX     =    2 max onsite mixed and CHGCAR
   VOSKOWN=      0    Vosko Wilk Nusair interpolation
   ROPT   =   -0.00050  -0.00050  -0.00050  -0.00050
   ROPT   =   -0.00050
 Ionic relaxation
   EDIFFG = 0.1E-02   stopping-criterion for IOM
   NSW    =      0    number of steps for IOM
   NBLOCK =      1;   KBLOCK =      1    inner block; outer block 
   IBRION =     -1    ionic relax: 0-MD 1-quasi-New 2-CG
   NFREE  =      0    steps in history (QN), initial steepest desc. (CG)
   ISIF   =      2    stress and relaxation
   IWAVPR =     10    prediction:  0-non 1-charg 2-wave 3-comb
   ISYM   =      0    0-nonsym 1-usesym 2-fastsym
   LCORR  =      T    Harris-Foulkes like correction to forces

   POTIM  = 0.5000    time-step for ionic-motion
   TEIN   =    0.0    initial temperature
   TEBEG  =    0.0;   TEEND  =   0.0 temperature during run
   SMASS  =  -3.00    Nose mass-parameter (am)
   estimated Nose-frequenzy (Omega)   =  0.10E-29 period in steps = 0.13E+47 mass=  -0.745E-26a.u.
   SCALEE = 1.0000    scale energy and forces
   NPACO  =    256;   APACO  = 16.0  distance and # of slots for P.C.
   PSTRESS=    0.0 pullay stress

  Mass of Ions in am
   POMASS =   1.00 12.01 14.00126.90207.20
  Ionic Valenz
   ZVAL   =   1.00  4.00  5.00  7.00  4.00
  Atomic Wigner-Seitz radii
   RWIGS  =  -1.00 -1.00 -1.00 -1.00 -1.00
  virtual crystal weights 
   VCA    =   1.00  1.00  1.00  1.00  1.00
   NELECT =    1134.0000    total number of electrons
   NUPDOWN=      -1.0000    fix difference up-down

 DOS related values:
   EMIN   =  10.00;   EMAX   =-10.00  energy-range for DOS
   EFERMI =   0.00
   ISMEAR =     0;   SIGMA  =   0.05  broadening in eV -4-tet -1-fermi 0-gaus

 Electronic relaxation 2 (details)
   IALGO  =     38    algorithm
   LDIAG  =      T    sub-space diagonalisation (order eigenvalues)
   LSUBROT=      F    optimize rotation matrix (better conditioning)
   TURBO    =      0    0=normal 1=particle mesh
   IRESTART =      0    0=no restart 2=restart with 2 vectors
   NREBOOT  =      0    no. of reboots
   NMIN     =      0    reboot dimension
   EREF     =   0.00    reference energy to select bands
   IMIX   =      4    mixing-type and parameters
     AMIX     =   0.40;   BMIX     =  0.01
     AMIX_MAG =   1.60;   BMIX_MAG =  0.01
     AMIN     =   0.01
     WC   =   100.;   INIMIX=   1;  MIXPRE=   1;  MAXMIX= -45

 Intra band minimization:
   WEIMIN = 0.0000     energy-eigenvalue tresh-hold
   EBREAK =  0.34E-07  absolut break condition
   DEPER  =   0.30     relativ break condition  

   TIME   =   0.40     timestep for ELM

  volume/ion in A,a.u.               =      62.72       423.28
  Fermi-wavevector in a.u.,A,eV,Ry     =   0.624944  1.180972  5.313816  0.390554
  Thomas-Fermi vector in A             =   1.685677
 
 Write flags
   LWAVE        =      F    write WAVECAR
   LDOWNSAMPLE  =      F    k-point downsampling of WAVECAR
   LCHARG       =      T    write CHGCAR
   LVTOT        =      T    write LOCPOT, total local potential
   LVHAR        =      F    write LOCPOT, Hartree potential only
   LELF         =      F    write electronic localiz. function (ELF)
   LORBIT       =      0    0 simple, 1 ext, 2 COOP (PROOUT), +10 PAW based schemes


 Dipole corrections
   LMONO  =      F    monopole corrections only (constant potential shift)
   LDIPOL =      T    correct potential (dipole corrections)
   IDIPOL =      3    1-x, 2-y, 3-z, 4-all directions 
   EPSILON=  1.0000000 bulk dielectric constant

 Exchange correlation treatment:
   GGA     =    --    GGA type
   LEXCH   =     8    internal setting for exchange type
   VOSKOWN=      0    Vosko Wilk Nusair interpolation
   LHFCALC =     F    Hartree Fock is set to
   LHFONE  =     F    Hartree Fock one center treatment
   AEXX    =    0.0000 exact exchange contribution

 Linear response parameters
   LEPSILON=     F    determine dielectric tensor
   LRPA    =     F    only Hartree local field effects (RPA)
   LNABLA  =     F    use nabla operator in PAW spheres
   LVEL    =     F    velocity operator in full k-point grid
   LINTERFAST=   F  fast interpolation
   KINTER  =     0    interpolate to denser k-point grid
   CSHIFT  =0.1000    complex shift for real part using Kramers Kronig
   OMEGAMAX=  -1.0    maximum frequency
   DEG_THRESHOLD= 0.2000000E-02 threshold for treating states as degnerate
   RTIME   =   -0.100 relaxation time in fs
  (WPLASMAI=    0.000 imaginary part of plasma frequency in eV, 0.658/RTIME)
   DFIELD  = 0.0000000 0.0000000 0.0000000 field for delta impulse in time
 
 Orbital magnetization related:
   ORBITALMAG=     F  switch on orbital magnetization
   LCHIMAG   =     F  perturbation theory with respect to B field
   DQ        =  0.001000  dq finite difference perturbation B field
   LLRAUG    =     F  two centre corrections for induced B field



--------------------------------------------------------------------------------------------------------


 Static calculation
 charge density and potential will be updated during run
 non-spin polarized calculation
 Variant of blocked Davidson
 Davidson routine will perform the subspace rotation
 perform sub-space diagonalisation
    after iterative eigenvector-optimisation
 modified Broyden-mixing scheme, WC =      100.0
 initial mixing is a Kerker type mixing with AMIX =  0.4000 and BMIX =      0.0100
 Hartree-type preconditioning will be used
 using additional bands           165
 real space projection scheme for non local part
[...]
     13.54561      0.00000     45.35368        -0.001021     -0.004456      0.013324
     13.54315      9.03140     45.35368         0.002992     -0.008780     -0.007544
     14.01016     10.03616     32.47596         0.078300      0.084628      0.021967
     13.02600      8.62175     32.83218        -0.048445     -0.193865     -0.041034
     15.71196      9.05360     33.79020        -0.011959     -0.007352     -0.018296
     15.46959      8.70306     35.49451         0.022034     -0.040090      0.043166
     13.41598     11.57854     34.97937         0.014013      0.035971      0.016252
     14.59147     10.79278     36.05794        -0.068887     -0.047460      0.063793
     12.03207      9.91673     35.59876        -0.000152      0.115888      0.023091
     12.24024      8.26909     35.03360        -0.007253     -0.179670      0.040389
     11.12190     10.03713     33.59333         0.065444     -0.016349     -0.159475
     12.13262     11.48694     33.45815        -0.047443     -0.131699     -0.091075
     10.94315     11.64846     31.50160         0.086610     -0.093978     -0.012218
     12.40035     10.85867     30.91282         0.089243     -0.002708      0.004635
     14.22393      7.08120     33.15859        -0.022793     -0.014775      0.041069
     14.06105      6.66358     34.88298         0.062233      0.133256     -0.095802
     15.64225      6.65425     34.09513         0.055127     -0.060530      0.058440
     15.59260     12.54988     34.69337        -0.034202      0.028449     -0.003086
     15.25145     11.69224     33.20020         0.002828      0.005492     -0.053824
     16.40201     11.00386     34.39231        -0.114514     -0.018786     -0.007727
     13.74260      9.55873     37.41795         0.072004      0.081529      0.037024
     13.98276      7.88218     36.87090        -0.071762      0.060614     -0.038552
     12.41486      8.40652     37.48804         0.068138      0.013560     -0.041441
      9.66164      9.57481     31.45597         0.118658     -0.032330      0.061854
     10.43287      9.89750     29.90844        -0.083940     -0.035817     -0.271149
     12.58018      8.61331     29.26884        -0.165629     -0.274841      0.347773
     10.13030      7.53228     32.65512        -0.176107      0.115136      0.118184
     13.76445      6.43391     29.45418        -0.114397      0.076308      0.117080
     11.34283      5.37779     32.84224        -0.114493     -0.025817      0.093294
     13.16782      4.82512     31.27021        -0.031965      0.022370      0.046592
      0.36026      4.56007     34.88293         0.008250     -0.216908      0.048562
      0.61970     13.69479     35.02375        -0.260349      0.123034      0.249651
      8.36613      4.13014     34.60829         0.704992     -0.259972      0.125067
      9.00663     13.70829     34.78193         0.261979     -0.198240     -0.236689
      4.31521      9.57305     34.90339        -0.040321     -0.154634      0.029130
      4.53021      0.18640     34.69823        -0.266153     -0.025932     -0.132189
     13.90925     17.72378     35.07942         0.087162     -0.067117     -0.037587
      0.18343      4.41738     40.59136         0.354178     -0.499058      0.721591
      0.11032     13.72869     40.75327         0.532523     -0.334003      0.286002
      8.81587      4.20862     40.83880         0.359059     -0.273742      0.066246
      8.97634     13.65439     40.56028        -0.090062      0.013749      0.714537
      4.64191      8.93564     40.53775         0.606126      0.658686      0.069521
      4.56987     18.06226     40.40005        -0.640725     -0.657576      0.196252
     14.00884      8.82246     40.90932        -0.335747     -0.769536      0.048315
     13.66607     18.04401     40.58197        -0.800035     -0.741845      0.129718
      9.02897      4.51561     46.44552         0.013320     -0.002266     -0.001304
      9.02651     13.54701     46.44552         0.008468      0.008721      0.037179
     18.05937      4.51561     46.44552        -0.002691      0.020436      0.052855
     18.05691     13.54701     46.44552         0.007426      0.014657      0.009143
      4.51521      0.00002     46.44421         0.003025      0.001636      0.055188
      4.51275      9.03142     46.44421        -0.007922     -0.009719      0.035115
     13.54561      0.00002     46.44421        -0.006230     -0.008124      0.012790
     13.54315      9.03142     46.44421        -0.009805     -0.015785      0.007691
     11.27473      8.23382     30.97154        -0.016056      0.233426     -0.187536
     12.29321      7.89927     30.06615         0.238762      0.335391     -0.317656
     10.92298      7.30298     31.95030         0.009931     -0.146064      0.050867
     12.97232      6.68520     30.16995         0.056892     -0.287322     -0.000924
     11.59354      6.08766     32.05678         0.219053     -0.230267      0.011470
     12.63241      5.77199     31.18113         0.070200      0.183984     -0.333219
     13.22349      9.64808     33.13188        -0.348331      0.163974      0.172752
     15.00067      8.62771     34.50689         0.115591     -0.144332     -0.103613
     14.29383     10.92388     35.01184         0.118138      0.052280      0.037319
     12.75767      9.10111     35.52309        -0.093964     -0.170220     -0.273750
     11.94520     10.48978     33.01494         0.363007      0.241569      0.123588
     11.51569     10.70422     31.54856        -0.162101      0.163285      0.255426
     14.68749      7.18978     34.14664        -0.018054     -0.043398      0.061848
     15.45330     11.54693     34.26858         0.056712      0.036732     -0.175572
     13.27809      8.72372     36.88623        -0.036846     -0.191513      0.083358
     10.63648      9.59922     30.94109        -0.065088     -0.046803      0.072862
      0.00597      3.42172     35.43452        -0.158508      0.150440     -0.042608
      0.56908     12.60324     35.73764        -0.336788     -0.307649      0.294799
      9.64781      3.99092     34.87052         0.116052      0.065872      0.125510
      8.58158     12.58647     35.30482         0.008458     -0.038151      0.044639
      7.65745      5.17821     34.90347        -0.175286      0.774157      0.275095
      8.40801     14.86030     34.90652        -0.235270      0.520290      0.169629
     18.00170      5.73441     35.28963        -0.006276     -0.105448     -0.124329
     17.83385     14.69244     35.16016         0.044478      0.094515     -0.229508
      4.35989      8.30346     35.25175        -0.116326      0.070238      0.113908
      3.43441     17.57874     34.99008         0.043737      0.269700     -0.095116
     12.61312     17.84613     35.21513        -0.049633      0.007279      0.106089
      5.71502     17.94016     35.13935         0.262454      0.113469     -0.058362
      5.32418     10.40290     34.95373        -0.106679      0.129919     -0.081342
     14.79118      0.57792     35.39433         0.212727     -0.331471     -0.156673
      0.99179      3.45554     41.01128        -0.471407      0.612268     -0.840924
      1.08666     12.90794     41.09058        -0.753170      0.280381     -0.087612
     10.10567      3.96931     40.89970        -0.157510     -0.046316     -0.078735
      9.60441     12.70987     41.22398         0.007589     -0.039477      0.055048
      3.80227      8.11418     41.09708        -0.241595     -0.076539      0.889251
      3.75613     17.25475     41.05714         0.413202      0.384638      0.308486
     12.91516      8.24386     41.35430        -0.134616      0.172305      0.103311
     12.73475     17.30132     41.15008         0.378363      0.417831      0.356790
      8.23645      5.30050     41.24035         0.113888      0.885745      0.447960
      8.22562     14.59029     41.10084         0.026078     -0.013862     -0.166040
     17.49357      5.16548     41.36848         0.146681     -0.138760     -0.090187
     16.99768     13.76723     41.32495        -0.195742      0.019916     -0.041812
      5.43815      0.81385     40.92841         0.528766      0.481759      0.838469
      5.40822      9.81387     41.16265        -0.555537     -0.533089      0.434176
     14.41067      0.86147     41.18343         0.399125      0.597167      0.776191
     14.24860     10.09757     40.97401         0.659221      1.000156     -0.264761
      0.82731      3.68697     47.03596         0.027052     -0.034093     -0.089026
      0.82485     12.71837     47.03596         0.028196     -0.031430     -0.068482
      9.85771      3.68697     47.03596         0.018995     -0.024716     -0.066648
      9.85525     12.71837     47.03596         0.024438     -0.028233     -0.098103
      3.68432      8.20234     47.03465        -0.009689     -0.005913     -0.067865
      3.68186     17.23373     47.03465        -0.010186     -0.008181     -0.059663
     12.71472      8.20234     47.03465        -0.012327     -0.006116     -0.066662
     12.71226     17.23373     47.03465        -0.012016     -0.011693     -0.056369
      8.20068      5.34457     47.03603        -0.025093      0.024226     -0.067005
      8.19822     14.37597     47.03603        -0.019742      0.015045     -0.093766
     17.23108      5.34457     47.03603        -0.006567      0.004231     -0.088228
     17.22862     14.37597     47.03603        -0.014625      0.013751     -0.065585
      5.34365      0.82909     47.03465         0.005467      0.005273     -0.063310
      5.34119      9.86049     47.03465         0.016619      0.020573     -0.067831
     14.37405      0.82909     47.03465         0.023739      0.019843     -0.058147
     14.37159      9.86049     47.03465         0.024025      0.028351     -0.071371
     13.82079      9.56642     34.53304        -0.133693      0.231583     -0.022080
      9.14261      0.32203     34.44875         0.039084     -0.002363      0.014239
      8.61022      9.01786     34.68189         0.020924     -0.007453      0.048045
      0.04606      0.05488     34.33802         0.026195      0.009200     -0.005661
      0.71851      9.13068     34.57570        -0.077224     -0.055331     -0.016428
      4.19804      4.37443     34.48205        -0.002887     -0.012194      0.021078
      4.55870     13.81943     34.56968         0.007063      0.050507      0.031543
     13.28060      3.64438     34.69745         0.057199      0.092279     -0.053264
     12.71568     14.31371     34.57069        -0.028856     -0.063739     -0.041855
      0.01556     17.74165     40.88148        -0.013927      0.008198     -0.043106
      0.01743      9.00446     40.94573         0.003352      0.016195     -0.013832
      9.08765      0.26748     40.86464        -0.047715     -0.027167      0.055611
      9.27668      8.81470     40.93038         0.007901      0.001686      0.072909
      4.70966      4.44082     40.88695        -0.000780     -0.004740     -0.004139
      4.59701     13.62263     40.91230         0.046331     -0.001011     -0.034326
     13.64092      4.76970     40.91117        -0.044687     -0.044602     -0.022084
     13.45706     13.58575     40.88042        -0.025458      0.016288      0.034126
      2.42979      1.96105     37.98735         0.028640      0.040846     -0.030994
      2.69782     10.93062     38.09036         0.017800     -0.010410     -0.016013
     11.69714      1.89326     38.14011         0.047717      0.015497      0.023902
     11.14102     11.40433     38.21610        -0.044541     -0.062313     -0.146690
      6.50785      6.92308     37.88424         0.009412      0.080878     -0.033316
      6.72066     15.94196     37.94159        -0.011173     -0.038349     -0.016196
     16.11016      6.58397     38.21017        -0.052338     -0.016251     -0.169294
     15.74559     15.75242     37.90258         0.020754      0.050299     -0.013028
      2.25924      6.62864     38.09003        -0.016872     -0.033501      0.003115
      2.24573     15.69855     37.96570        -0.028511     -0.015260     -0.051707
     10.60461      6.03782     37.60929         0.077182      0.043785      0.014116
     11.14863     15.77398     38.23210        -0.002133     -0.057282     -0.010711
      6.96028      2.42565     37.82061         0.003963     -0.007342     -0.020896
      6.93438     11.36998     38.20208         0.027356     -0.007725     -0.016697
     15.99467      2.39771     38.24800         0.033937      0.036378     -0.018850
     16.29280     11.56650     38.26309        -0.110075      0.046887     -0.173366
      0.00000      0.00000     47.17356         0.001768      0.005341      0.323917
     -0.00246      9.03140     47.17356        -0.001416      0.003468      0.438433
      9.03040      0.00000     47.17356        -0.002470     -0.003421      0.368927
      9.02794      9.03140     47.17356         0.004521      0.004190      0.412521
      4.51398      4.51570     47.17425        -0.003831     -0.003175      0.433926
      4.51152     13.54710     47.17425         0.006433     -0.001060      0.421832
     13.54438      4.51570     47.17425         0.004012      0.001944      0.438348
     13.54192     13.54710     47.17425        -0.005981     -0.007598      0.395433
      2.45192      2.06295     44.04013        -0.011739     -0.025717     -0.036766
      2.44946     11.09435     44.04013         0.025117     -0.019264     -0.057610
     11.48232      2.06295     44.04013         0.059054     -0.029789     -0.061613
     11.47986     11.09435     44.04013        -0.000585     -0.022581     -0.092950
      6.57602      6.96845     44.04013        -0.027848      0.068698     -0.011014
      6.57356     15.99985     44.04013         0.003031      0.015284     -0.039715
     15.60642      6.96845     44.04013         0.067230     -0.018023      0.022445
     15.60396     15.99985     44.04013        -0.034536      0.013833     -0.006546
      2.06108      6.57881     44.04000         0.022717      0.005113     -0.045815
      2.05862     15.61021     44.04000         0.069247      0.044019     -0.016322
     11.09148      6.57881     44.04000        -0.036000     -0.051644     -0.010742
     11.08902     15.61021     44.04000        -0.028627      0.010406     -0.045514
      6.96686      2.45259     44.04007        -0.057159     -0.086566     -0.031671
      6.96440     11.48399     44.04007         0.040083      0.006339     -0.046621
     15.99726      2.45259     44.04007         0.036642      0.022872     -0.052644
     15.99481     11.48399     44.04007        -0.001970      0.012617     -0.026683
      2.43163      2.08322     50.06849         0.001796     -0.018578      0.022733
      2.42917     11.11462     50.06849         0.014588     -0.006978      0.024169
     11.46203      2.08322     50.06849         0.005811     -0.016709      0.026510
     11.45957     11.11462     50.06849         0.011721     -0.007101      0.022001
      6.59631      6.94818     50.06849        -0.010327      0.012423      0.025236
      6.59385     15.97958     50.06849        -0.008227      0.011077      0.022152
     15.62671      6.94818     50.06849        -0.008853      0.010965      0.023710
     15.62425     15.97958     50.06849        -0.006717      0.014680      0.025098
      2.08113      6.59901     50.06905        -0.010494     -0.010666      0.023534
      2.07867     15.63041     50.06905        -0.015137     -0.004503      0.023710
     11.11153      6.59901     50.06905        -0.011311     -0.007664      0.024460
     11.10907     15.63041     50.06905        -0.011537     -0.011597      0.024388
      6.94681      2.43239     50.06905         0.013186      0.004729      0.024876
      6.94435     11.46379     50.06905         0.009694      0.011763      0.022894
     15.97721      2.43239     50.06905         0.020122      0.001454      0.024405
     15.97475     11.46379     50.06905         0.005242      0.013955      0.023559
     18.02076     18.02432     37.82900         0.002471     -0.052106      0.012946
      0.16145      9.04904     37.82041        -0.035796     -0.002035      0.018681
      9.07718      0.13924     37.71577        -0.064666     -0.011756     -0.014271
      8.99527      8.89891     37.80304        -0.026491     -0.022201     -0.068518
      4.42891      4.41786     37.63439         0.029180     -0.011394      0.032818
      4.49081     13.45085     37.74015         0.049573      0.048587     -0.002490
     13.40885      4.43409     37.66802        -0.037581      0.068833      0.004442
     13.29336     13.66515     37.65323        -0.005162     -0.013474      0.009381
      0.00001      0.00001     44.04300        -0.040535     -0.136356      0.172628
     -0.00245      9.03141     44.04300        -0.027496     -0.068936      0.185986
      9.03041      0.00001     44.04300         0.045344      0.105069      0.086060
      9.02795      9.03141     44.04300        -0.066364     -0.071206      0.225391
      4.51397      4.51569     44.04275         0.070619      0.017113      0.033814
      4.51151     13.54709     44.04275        -0.091862      0.028823      0.127064
     13.54437      4.51569     44.04275        -0.045287      0.011905      0.180760
     13.54191     13.54709     44.04275         0.015713      0.143313      0.114453
      0.00000      0.00000     50.44728        -0.001223      0.003295     -0.609506
     -0.00246      9.03140     50.44728        -0.000830     -0.003901     -0.637228
      9.03040      0.00000     50.44728         0.001632      0.007223     -0.622800
      9.02794      9.03140     50.44728         0.000095     -0.007032     -0.630421
      4.51397      4.51570     50.44728         0.003219      0.006096     -0.639144
      4.51151     13.54710     50.44728        -0.000114     -0.006941     -0.633155
     13.54437      4.51570     50.44728        -0.003923      0.005407     -0.642896
     13.54191     13.54710     50.44728         0.000220     -0.005456     -0.628154
 -----------------------------------------------------------------------------------
    total drift:                                0.030655      0.055004      0.509640


--------------------------------------------------------------------------------------------------------



  FREE ENERGIE OF THE ION-ELECTRON SYSTEM (eV)
  ---------------------------------------------------
  free  energy   TOTEN  =     -1575.84788618 eV

  energy  without entropy=    -1575.84788618  energy(sigma->0) =    -1575.84788618
 


--------------------------------------------------------------------------------------------------------


    POTLOK:  cpu time    0.5017: real time    0.5017


--------------------------------------------------------------------------------------------------------


     LOOP+:  cpu time  265.0882: real time  265.7313
 vacuum level on the upper side and lower side of the slab         2.284         1.574
    4ORBIT:  cpu time    0.0000: real time    0.0000

 total amount of memory used by VASP MPI-rank0  8653572. kBytes
=======================================================================

   base      :      30000. kBytes
   nonlr-proj:      53610. kBytes
   fftplans  :     249280. kBytes
   grid      :     701440. kBytes
   one-center:       2636. kBytes
   wavefun   :    7616606. kBytes
 
  
  
 General timing and accounting informations for this job:
 ========================================================
  
                  Total CPU time used (sec):      479.873
                            User time (sec):      391.856
                          System time (sec):       88.017
                         Elapsed time (sec):      481.571
  
                   Maximum memory used (kb):    10307072.
                   Average memory used (kb):          N/A
  
                          Minor page faults:      3542590
                          Major page faults:           12
                 Voluntary context switches:        10834
