 vasp.6.2.1 16May21 (build Nov 15 2021 14:57:28) complex                         
 executed on             LinuxPGI date 2023.07.30  21:27:24
 running on    4 total cores
 distrk:  each k-point on    4 cores,    1 groups
 distr:  one band on NCORE=   1 cores,    4 groups


--------------------------------------------------------------------------------------------------------


 INCAR:
   SYSTEM = PSC
   ISTART = 1
   ICHARG = 1
   PREC = Normal
   ENCUT = 500
   GGA_COMPAT = F
   NELM = 600
   ISYM = 0
   LREAL = Auto
   ISMEAR = 0
   SIGMA = 0.05
   AMIN = 0.01
   BMIX = 0.01
   LVTOT = T
   LWAVE = F
   LDIPOL = T
   IDIPOL = 3
   LVDW = T
   IVDW = 12

 POTCAR:    PAW_PBE H 15Jun2001                   
 POTCAR:    PAW_PBE C 08Apr2002                   
 POTCAR:    PAW_PBE N 08Apr2002                   
 POTCAR:    PAW_PBE I 08Apr2002                   
 POTCAR:    PAW_PBE Pb 08Apr2002                  
 WARNING: For LVTOT=.TRUE., VASP.5.x writes the TOTAL local potential to the
     file LOCPOT. If you want only the Hartree contributions, use LVHAR=.TRUE.
     instead. 

 POTCAR:    PAW_PBE H 15Jun2001                   
   SHA256 =  030f79b5d3ab3cf0e668861823c8fb652ff669f3e15e46930bd03bfd63a607b6 H/POTCAR              
   COPYR  = (c) Copyright 15Jun2001 Georg Kresse                                                    
   COPYR  = This file is part of the software VASP. Any use, copying, and all other rights are regul
   COPYR  = If you do not have a valid VASP license, you may not use, copy or distribute this file. 
   VRHFIN =H: ultrasoft test                                                                        
   LEXCH  = PE                                                                                      
   EATOM  =    12.4884 eV,    0.9179 Ry                                                             
                                                                                                    
   TITEL  = PAW_PBE H 15Jun2001                                                                     
   LULTRA =        F    use ultrasoft PP ?                                                          
   IUNSCR =        0    unscreen: 0-lin 1-nonlin 2-no                                               
   RPACOR =    0.000    partial core radius                                                         
   POMASS =    1.000; ZVAL   =    1.000    mass and valenz                                          
   RCORE  =    1.100    outmost cutoff radius                                                       
   RWIGS  =    0.700; RWIGS  =    0.370    wigner-seitz radius (au A)                               
   ENMAX  =  250.000; ENMIN  =  200.000 eV                                                          
   RCLOC  =    0.701    cutoff for local pot                                                        
   LCOR   =        T    correct aug charges                                                         
   LPAW   =        T    paw PP                                                                      
   EAUG   =  400.000                                                                                
   RMAX   =    1.123    core radius for proj-oper                                                   
   RAUG   =    1.200    factor for augmentation sphere                                              
   RDEP   =    1.112    radius for radial grids                                                     
   RDEPT  =    0.926    core radius for aug-charge                                                  
                                                                                                    
   Atomic configuration                                                                             
    2 entries                                                                                       
     n  l   j            E        occ.                                                              
     1  0  0.50        -6.4927   1.0000                                                             
     2  1  0.50        -3.4015   0.0000                                                             
   Description                                                                                      
     l       E           TYP  RCUT    TYP  RCUT                                                     
     0     -6.4927494     23  1.100                                                                 
     0      6.8029130     23  1.100                                                                 
     1     -4.0817478     23  1.100                                                                 
  local pseudopotential read in
  atomic valenz-charges read in
  non local Contribution for L=            0  read in
    real space projection operators read in
  non local Contribution for L=            0  read in
    real space projection operators read in
  non local Contribution for L=            1  read in
    real space projection operators read in
    PAW grid and wavefunctions read in
 
   number of l-projection  operators is LMAX  =            3
   number of lm-projection operators is LMMAX =            5
 
 POTCAR:    PAW_PBE C 08Apr2002                   
   SHA256 =  253f7b50bb8d59471dbedb8285d89021f4a42ed1a2c5d38a03a736e69125dd95 C/POTCAR              
   COPYR  = (c) Copyright 08Apr2002 Georg Kresse                                                    
   COPYR  = This file is part of the software VASP. Any use, copying, and all other rights are regul
   COPYR  = If you do not have a valid VASP license, you may not use, copy or distribute this file. 
   VRHFIN =C: s2p2                                                                                  
   LEXCH  = PE                                                                                      
   EATOM  =   147.1560 eV,   10.8157 Ry                                                             
                                                                                                    
   TITEL  = PAW_PBE C 08Apr2002                                                                     
   LULTRA =        F    use ultrasoft PP ?                                                          
   IUNSCR =        1    unscreen: 0-lin 1-nonlin 2-no                                               
   RPACOR =    1.200    partial core radius                                                         
   POMASS =   12.011; ZVAL   =    4.000    mass and valenz                                          
   RCORE  =    1.500    outmost cutoff radius                                                       
   RWIGS  =    1.630; RWIGS  =    0.863    wigner-seitz radius (au A)                               
   ENMAX  =  400.000; ENMIN  =  300.000 eV                                                          
   ICORE  =        2    local potential                                                             
   LCOR   =        T    correct aug charges                                                         
   LPAW   =        T    paw PP                                                                      
   EAUG   =  644.873                                                                                
   DEXC   =    0.000                                                                                
   RMAX   =    1.529    core radius for proj-oper                                                   
   RAUG   =    1.300    factor for augmentation sphere                                              
   RDEP   =    1.501    radius for radial grids                                                     
   RDEPT  =    1.300    core radius for aug-charge                                                  
                                                                                                    
   Atomic configuration                                                                             
    4 entries                                                                                       
     n  l   j            E        occ.                                                              
     1  0  0.50      -273.3789   2.0000                                                             
     2  0  0.50       -13.7508   2.0000                                                             
     2  1  0.50        -5.2854   2.0000                                                             
     3  2  1.50        -5.4423   0.0000                                                             
   Description                                                                                      
     l       E           TYP  RCUT    TYP  RCUT                                                     
     0    -13.7508458     23  1.200                                                                 
     0     -8.2022199     23  1.200                                                                 
     1     -5.2854383     23  1.500                                                                 
     1     34.0145650     23  1.500                                                                 
     2     -5.4423304      7  1.500                                                                 
  local pseudopotential read in
  partial core-charges read in
  partial kinetic energy density read in
  atomic valenz-charges read in
  non local Contribution for L=            0  read in
    real space projection operators read in
  non local Contribution for L=            0  read in
    real space projection operators read in
  non local Contribution for L=            1  read in
    real space projection operators read in
  non local Contribution for L=            1  read in
    real space projection operators read in
    PAW grid and wavefunctions read in
 
   number of l-projection  operators is LMAX  =            4
   number of lm-projection operators is LMMAX =            8
 
 POTCAR:    PAW_PBE N 08Apr2002                   
   SHA256 =  e053789ff3a61a86a1b75d8a110fcc91f86041011e7b0817c7c99e4e8a6349d7 N/POTCAR              
   COPYR  = (c) Copyright 08Apr2002 Georg Kresse                                                    
   COPYR  = This file is part of the software VASP. Any use, copying, and all other rights are regul
   COPYR  = If you do not have a valid VASP license, you may not use, copy or distribute this file. 
   VRHFIN =N: s2p3                                                                                  
   LEXCH  = PE                                                                                      
   EATOM  =   264.5486 eV,   19.4438 Ry                                                             
                                                                                                    
   TITEL  = PAW_PBE N 08Apr2002                                                                     
   LULTRA =        F    use ultrasoft PP ?                                                          
   IUNSCR =        1    unscreen: 0-lin 1-nonlin 2-no                                               
   RPACOR =    1.200    partial core radius                                                         
   POMASS =   14.001; ZVAL   =    5.000    mass and valenz                                          
   RCORE  =    1.500    outmost cutoff radius                                                       
   RWIGS  =    1.400; RWIGS  =    0.741    wigner-seitz radius (au A)                               
   ENMAX  =  400.000; ENMIN  =  300.000 eV                                                          
   ICORE  =        2    local potential                                                             
   LCOR   =        T    correct aug charges                                                         
   LPAW   =        T    paw PP                                                                      
   EAUG   =  627.112                                                                                
   DEXC   =    0.000                                                                                
   RMAX   =    1.529    core radius for proj-oper                                                   
   RAUG   =    1.300    factor for augmentation sphere                                              
   RDEP   =    1.514    radius for radial grids                                                     
   RDEPT  =    1.338    core radius for aug-charge                                                  
                                                                                                    
   Atomic configuration                                                                             
    4 entries                                                                                       
     n  l   j            E        occ.                                                              
     1  0  0.50      -384.7179   2.0000                                                             
     2  0  0.50       -18.5828   2.0000                                                             
     2  1  0.50        -7.0898   3.0000                                                             
     3  2  1.50        -6.8029   0.0000                                                             
   Description                                                                                      
     l       E           TYP  RCUT    TYP  RCUT                                                     
     0    -18.5828119     23  1.200                                                                 
     0    -13.5018863     23  1.200                                                                 
     1     -7.0897853     23  1.500                                                                 
     1      9.5240782     23  1.500                                                                 
     2     -6.8029130      7  1.500                                                                 
  local pseudopotential read in
  partial core-charges read in
  partial kinetic energy density read in
  atomic valenz-charges read in
  non local Contribution for L=            0  read in
    real space projection operators read in
  non local Contribution for L=            0  read in
    real space projection operators read in
  non local Contribution for L=            1  read in
    real space projection operators read in
  non local Contribution for L=            1  read in
    real space projection operators read in
    PAW grid and wavefunctions read in
 
   number of l-projection  operators is LMAX  =            4
   number of lm-projection operators is LMMAX =            8
 
 POTCAR:    PAW_PBE I 08Apr2002                   
   SHA256 =  e40f3f59b681c1fc3e3091736183c4589116986673d2b852a5012aec72758799 I/POTCAR              
   COPYR  = (c) Copyright 08Apr2002 Georg Kresse                                                    
   COPYR  = This file is part of the software VASP. Any use, copying, and all other rights are regul
   COPYR  = If you do not have a valid VASP license, you may not use, copy or distribute this file. 
   VRHFIN =I : s2p5                                                                                 
   LEXCH  = PE                                                                                      
   EATOM  =   315.8678 eV,   23.2156 Ry                                                             
                                                                                                    
   TITEL  = PAW_PBE I 08Apr2002                                                                     
   LULTRA =        F    use ultrasoft PP ?                                                          
   IUNSCR =        1    unscreen: 0-lin 1-nonlin 2-no                                               
   RPACOR =    2.200    partial core radius                                                         
   POMASS =  126.904; ZVAL   =    7.000    mass and valenz                                          
   RCORE  =    2.300    outmost cutoff radius                                                       
   RWIGS  =    2.810; RWIGS  =    1.487    wigner-seitz radius (au A)                               
   ENMAX  =  175.647; ENMIN  =  131.735 eV                                                          
   ICORE  =        3    local potential                                                             
   LCOR   =        T    correct aug charges                                                         
   LPAW   =        T    paw PP                                                                      
   EAUG   =  370.139                                                                                
   DEXC   =    0.000                                                                                
   RMAX   =    2.359    core radius for proj-oper                                                   
   RAUG   =    1.300    factor for augmentation sphere                                              
   RDEP   =    2.392    radius for radial grids                                                     
   RDEPT  =    2.170    core radius for aug-charge                                                  
                                                                                                    
   Atomic configuration                                                                             
   13 entries                                                                                       
     n  l   j            E        occ.                                                              
     1  0  0.50    -32976.3739   2.0000                                                             
     2  0  0.50     -5094.5933   2.0000                                                             
     2  1  1.50     -4572.0131   6.0000                                                             
     3  0  0.50     -1028.2813   2.0000                                                             
     3  1  1.50      -859.0250   6.0000                                                             
     3  2  2.50      -605.7620  10.0000                                                             
     4  0  0.50      -180.5540   2.0000                                                             
     4  1  1.50      -127.5306   6.0000                                                             
     4  2  2.50       -50.2720  10.0000                                                             
     5  0  0.50       -17.4058   2.0000                                                             
     5  1  0.50        -7.0851   5.0000                                                             
     5  2  1.50        -7.0750   0.0000                                                             
     4  3  2.50        -7.0750   0.0000                                                             
   Description                                                                                      
     l       E           TYP  RCUT    TYP  RCUT                                                     
     0    -17.4058016     23  2.300                                                                 
     0    -18.7663842     23  2.300                                                                 
     1     -7.0850686     23  2.300                                                                 
     1     -4.2150896     23  2.300                                                                 
     2     -7.0750295     23  2.300                                                                 
     3     -1.3605826     23  2.300                                                                 
  local pseudopotential read in
  partial core-charges read in
  partial kinetic energy density read in
  atomic valenz-charges read in
  non local Contribution for L=            0  read in
    real space projection operators read in
  non local Contribution for L=            0  read in
    real space projection operators read in
  non local Contribution for L=            1  read in
    real space projection operators read in
  non local Contribution for L=            1  read in
    real space projection operators read in
  non local Contribution for L=            2  read in
    real space projection operators read in
    PAW grid and wavefunctions read in
 
   number of l-projection  operators is LMAX  =            5
   number of lm-projection operators is LMMAX =           13
 
 POTCAR:    PAW_PBE Pb 08Apr2002                  
   SHA256 =  797118a27cf1bcd06b9881c67a26cdde129e3cd1a551dd4a281f9681ce847303 Pb/POTCAR             
   COPYR  = (c) Copyright 08Apr2002 Georg Kresse                                                    
   COPYR  = This file is part of the software VASP. Any use, copying, and all other rights are regul
   COPYR  = If you do not have a valid VASP license, you may not use, copy or distribute this file. 
   VRHFIN =Pb:                                                                                      
   LEXCH  = PE                                                                                      
   EATOM  =    96.9868 eV,    7.1283 Ry                                                             
                                                                                                    
   TITEL  = PAW_PBE Pb 08Apr2002                                                                    
   LULTRA =        F    use ultrasoft PP ?                                                          
   IUNSCR =        1    unscreen: 0-lin 1-nonlin 2-no                                               
   RPACOR =    2.200    partial core radius                                                         
   POMASS =  207.200; ZVAL   =    4.000    mass and valenz                                          
   RCORE  =    3.100    outmost cutoff radius                                                       
   RWIGS  =    3.260; RWIGS  =    1.725    wigner-seitz radius (au A)                               
   ENMAX  =   97.973; ENMIN  =   73.480 eV                                                          
   ICORE  =        3    local potential                                                             
   LCOR   =        T    correct aug charges                                                         
   LPAW   =        T    paw PP                                                                      
   EAUG   =  234.873                                                                                
   DEXC   =    0.000                                                                                
   RMAX   =    3.158    core radius for proj-oper                                                   
   RAUG   =    1.300    factor for augmentation sphere                                              
   RDEP   =    3.202    radius for radial grids                                                     
   RDEPT  =    2.659    core radius for aug-charge                                                  
                                                                                                    
   Atomic configuration                                                                             
   17 entries                                                                                       
     n  l   j            E        occ.                                                              
     1  0  0.50    -88091.8466   2.0000                                                             
     2  0  0.50    -15753.4197   2.0000                                                             
     2  1  1.50    -13508.1797   6.0000                                                             
     3  0  0.50     -3781.7194   2.0000                                                             
     3  1  1.50     -3138.2529   6.0000                                                             
     3  2  2.50     -2483.2977  10.0000                                                             
     4  0  0.50      -856.2895   2.0000                                                             
     4  1  1.50      -645.4943   6.0000                                                             
     4  2  2.50      -401.8768  10.0000                                                             
     4  3  3.50      -132.9059  14.0000                                                             
     5  0  0.50      -144.0950   2.0000                                                             
     5  1  1.50       -85.7879   6.0000                                                             
     5  2  2.50       -21.1769  10.0000                                                             
     6  0  0.50       -12.0372   2.0000                                                             
     6  1  1.50        -3.4971   2.0000                                                             
     6  2  2.50        -1.3606   0.0000                                                             
     5  3  2.50        -2.7212   0.0000                                                             
   Description                                                                                      
     l       E           TYP  RCUT    TYP  RCUT                                                     
     0    -12.0371566     23  3.100                                                                 
     0    -13.3977392     23  3.100                                                                 
     1     -3.4971341     23  3.100                                                                 
     1     -5.4423304     23  3.100                                                                 
     2     -1.3605826     23  3.100                                                                 
     3     -1.3605826     23  3.100                                                                 
  local pseudopotential read in
  partial core-charges read in
  partial kinetic energy density read in
  atomic valenz-charges read in
  non local Contribution for L=            0  read in
    real space projection operators read in
  non local Contribution for L=            0  read in
    real space projection operators read in
  non local Contribution for L=            1  read in
    real space projection operators read in
  non local Contribution for L=            1  read in
    real space projection operators read in
  non local Contribution for L=            2  read in
    real space projection operators read in
    PAW grid and wavefunctions read in
 
   number of l-projection  operators is LMAX  =            5
   number of lm-projection operators is LMMAX =           13
 
 Optimization of the real space projectors (new method)

 maximal supplied QI-value         = 34.20
 optimisation between [QCUT,QGAM] = [ 11.29, 22.57] = [ 35.68,142.71] Ry 
 Optimized for a Real-space Cutoff    1.16 Angstroem

   l    n(q)    QCUT    max X(q) W(low)/X(q) W(high)/X(q)  e(spline) 
   0      8    11.287    19.460    0.40E-03    0.73E-03    0.16E-06
   0      8    11.287    12.209    0.38E-03    0.70E-03    0.15E-06
   1      7    11.287     4.655    0.22E-03    0.25E-04    0.22E-06
 Optimization of the real space projectors (new method)

 maximal supplied QI-value         = 25.13
 optimisation between [QCUT,QGAM] = [ 11.31, 22.87] = [ 35.82,146.48] Ry 
 Optimized for a Real-space Cutoff    1.00 Angstroem

   l    n(q)    QCUT    max X(q) W(low)/X(q) W(high)/X(q)  e(spline) 
   0      7    11.310   115.676    0.43E-03    0.13E-02    0.19E-06
   0      7    11.310    87.132    0.43E-03    0.13E-02    0.18E-06
   1      6    11.310     4.429    0.42E-03    0.74E-03    0.11E-06
   1      6    11.310     2.733    0.34E-03    0.55E-03    0.92E-07
 Optimization of the real space projectors (new method)

 maximal supplied QI-value         = 25.13
 optimisation between [QCUT,QGAM] = [ 11.31, 22.87] = [ 35.82,146.48] Ry 
 Optimized for a Real-space Cutoff    1.27 Angstroem

   l    n(q)    QCUT    max X(q) W(low)/X(q) W(high)/X(q)  e(spline) 
   0      9    11.310    79.467    0.75E-04    0.16E-03    0.36E-06
   0      9    11.310    66.151    0.74E-04    0.16E-03    0.36E-06
   1      8    11.310    17.416    0.35E-03    0.12E-03    0.95E-06
   1      8    11.310    12.382    0.37E-03    0.13E-03    0.98E-06
 Optimization of the real space projectors (new method)

 maximal supplied QI-value         = 16.25
 optimisation between [QCUT,QGAM] = [ 11.38, 22.75] = [ 36.24,144.96] Ry 
 Optimized for a Real-space Cutoff    1.31 Angstroem

   l    n(q)    QCUT    max X(q) W(low)/X(q) W(high)/X(q)  e(spline) 
   0      9    11.376   194.483    0.24E-03    0.23E-03    0.67E-07
   0      9    11.376   190.334    0.23E-03    0.22E-03    0.65E-07
   1      8    11.376   116.687    0.25E-03    0.63E-04    0.16E-06
   1      8    11.376    88.696    0.25E-03    0.61E-04    0.16E-06
   2      8    11.376     4.877    0.17E-03    0.14E-03    0.29E-07
 Optimization of the real space projectors (new method)

 maximal supplied QI-value         = 12.09
 optimisation between [QCUT,QGAM] = [ 11.37, 22.86] = [ 36.19,146.31] Ry 
 Optimized for a Real-space Cutoff    1.66 Angstroem

   l    n(q)    QCUT    max X(q) W(low)/X(q) W(high)/X(q)  e(spline) 
   0     11    11.369   135.111    0.12E-03    0.69E-04    0.19E-05
   0     11    11.369   146.850    0.11E-03    0.65E-04    0.18E-05
   1     11    11.369   148.016    0.17E-03    0.32E-03    0.89E-06
   1     11    11.369   122.989    0.17E-03    0.32E-03    0.91E-06
   2     10    11.369     8.916    0.12E-03    0.45E-04    0.33E-06
  PAW_PBE H 15Jun2001                   :
 energy of atom  1       EATOM=  -12.4884
 kinetic energy error for atom=    0.0020 (will be added to EATOM!!)
  PAW_PBE C 08Apr2002                   :
 energy of atom  2       EATOM= -147.1560
 kinetic energy error for atom=    0.0076 (will be added to EATOM!!)
  PAW_PBE N 08Apr2002                   :
 energy of atom  3       EATOM= -264.5486
 kinetic energy error for atom=    0.0138 (will be added to EATOM!!)
  PAW_PBE I 08Apr2002                   :
 energy of atom  4       EATOM= -315.8678
 kinetic energy error for atom=    0.0009 (will be added to EATOM!!)
  PAW_PBE Pb 08Apr2002                  :
 energy of atom  5       EATOM=  -96.9868
 kinetic energy error for atom=    0.0000 (will be added to EATOM!!)
 
 
 POSCAR:  H  C  N  I Pb
  positions in cartesian coordinates
  No initial velocities read in
 exchange correlation table for  LEXCH =        8
   RHO(1)=    0.500       N(1)  =     2000
   RHO(2)=  100.500       N(2)  =     4000
 


--------------------------------------------------------------------------------------------------------


 ion  position               nearest neighbor table
   1  0.472  0.338  0.567- 187 1.03
   2  0.444  0.829  0.574- 188 1.03
   3  0.923  0.260  0.580- 189 1.03
   4  0.939  0.819  0.574- 190 1.04
   5  0.319  0.078  0.570- 194 1.02
   6  0.350  0.548  0.561- 195 1.04
   7  0.802  0.093  0.569- 196 1.03
   8  0.106  0.248  0.557- 183 1.03
   9  0.077  0.674  0.576- 184 1.02
  10  0.545  0.151  0.561- 185 1.02
  11  0.502  0.645  0.559- 186 1.03
  12  0.371  0.014  0.555- 194 1.03
  13  0.298  0.628  0.554- 195 1.03
  14  0.875  0.035  0.559- 196 1.03
  15  0.058  0.262  0.581- 183 1.02
  16  0.991  0.697  0.586- 184 1.03
  17  0.573  0.241  0.569- 185 1.03
  18  0.450  0.692  0.578- 186 1.03
  19  0.274  0.438  0.573- 191 1.02
  20  0.184  0.060  0.572- 192 1.03
  21  0.680  0.031  0.574- 193 1.02
  22  0.386  0.306  0.558- 187 1.02
  23  0.501  0.871  0.555- 188 1.03
  24  0.878  0.240  0.556- 189 1.03
  25  0.989  0.867  0.555- 190 1.03
  26  0.179  0.443  0.568- 191 1.03
  27  0.146  0.985  0.559- 192 1.02
  28  0.675  0.937  0.566- 193 1.03
  29  0.427  0.187  0.552- 146 1.09
  30  0.545  0.757  0.543- 147 1.09
  31  0.994  0.231  0.537- 144 1.10
  32  0.083  0.777  0.554- 145 1.09
  33  0.185  0.564  0.556- 148 1.09
  34  0.264  0.942  0.547- 149 1.09
  35  0.797  0.933  0.556- 150 1.09
  36  0.453  0.304  0.673- 205 1.02
  37  0.446  0.808  0.673- 206 1.02
  38  0.942  0.278  0.675- 207 1.02
  39  0.923  0.729  0.671- 208 1.02
  40  0.306  0.051  0.672- 209 1.01
  41  0.295  0.555  0.675- 210 1.01
  42  0.803  0.054  0.675- 211 1.02
  43  0.842  0.471  0.663- 212 1.01
  44  0.092  0.173  0.649- 197 1.02
  45  0.114  0.720  0.652- 198 1.03
  46  0.580  0.169  0.650- 199 1.02
  47  0.570  0.668  0.650- 200 1.02
  48  0.185  0.412  0.648- 201 1.02
  49  0.166  0.929  0.648- 202 1.03
  50  0.642  0.475  0.657- 203 1.03
  51  0.676  0.920  0.650- 204 1.03
  52  0.053  0.187  0.674- 197 1.02
  53  0.052  0.674  0.668- 198 1.02
  54  0.555  0.203  0.674- 199 1.02
  55  0.539  0.700  0.675- 200 1.01
  56  0.202  0.446  0.674- 201 1.02
  57  0.198  0.955  0.673- 202 1.01
  58  0.715  0.419  0.666- 203 1.02
  59  0.703  0.952  0.675- 204 1.01
  60  0.419  0.324  0.648- 205 1.02
  61  0.424  0.836  0.647- 206 1.02
  62  0.922  0.318  0.650- 207 1.03
  63  0.908  0.809  0.656- 208 1.02
  64  0.334  0.076  0.647- 209 1.02
  65  0.326  0.584  0.650- 210 1.01
  66  0.830  0.081  0.649- 211 1.03
  67  0.850  0.556  0.651- 212 1.02
  68  0.013  0.256  0.632- 151 1.10
  69  0.029  0.810  0.642- 152 1.09
  70  0.498  0.241  0.631- 153 1.10
  71  0.500  0.750  0.631- 154 1.10
  72  0.249  0.001  0.630- 156 1.09
  73  0.263  0.496  0.632- 155 1.09
  74  0.753  0.998  0.632- 158 1.09
  75  0.723  0.568  0.646- 157 1.10
  76  0.449  0.301  0.769- 221 1.02
  77  0.449  0.801  0.769- 222 1.02
  78  0.949  0.301  0.769- 223 1.02
  79  0.949  0.801  0.769- 224 1.02
  80  0.301  0.051  0.769- 225 1.02
  81  0.301  0.551  0.769- 226 1.02
  82  0.801  0.051  0.769- 227 1.02
  83  0.801  0.551  0.769- 228 1.02
  84  0.079  0.171  0.743- 213 1.02
  85  0.079  0.671  0.743- 214 1.02
  86  0.579  0.171  0.743- 215 1.02
  87  0.579  0.671  0.743- 216 1.02
  88  0.171  0.421  0.743- 217 1.02
  89  0.171  0.921  0.743- 218 1.02
  90  0.671  0.421  0.743- 219 1.02
  91  0.671  0.921  0.743- 220 1.02
  92  0.051  0.199  0.769- 213 1.02
  93  0.051  0.699  0.769- 214 1.02
  94  0.551  0.199  0.769- 215 1.02
  95  0.551  0.699  0.769- 216 1.02
  96  0.199  0.449  0.769- 217 1.02
  97  0.199  0.949  0.769- 218 1.02
  98  0.699  0.449  0.769- 219 1.02
  99  0.699  0.949  0.769- 220 1.02
 100  0.421  0.329  0.743- 221 1.02
 101  0.421  0.829  0.743- 222 1.02
 102  0.921  0.329  0.743- 223 1.02
 103  0.921  0.829  0.743- 224 1.02
 104  0.329  0.079  0.743- 225 1.02
 105  0.329  0.579  0.743- 226 1.02
 106  0.829  0.079  0.743- 227 1.02
 107  0.829  0.579  0.743- 228 1.02
 108  0.000  0.250  0.726- 161 1.09
 109  0.000  0.750  0.726- 162 1.09
 110  0.500  0.250  0.726- 159 1.09
 111  0.500  0.750  0.726- 160 1.09
 112  0.250  0.000  0.726- 163 1.09
 113  0.250  0.500  0.726- 164 1.09
 114  0.750  0.000  0.726- 165 1.09
 115  0.750  0.500  0.726- 166 1.09
 116  0.720  0.443  0.541- 173 1.10
 117  0.738  0.494  0.517- 173 1.10
 118  0.660  0.552  0.558- 174 1.10
 119  0.708  0.637  0.556- 174 1.10
 120  0.851  0.508  0.568- 175 1.10
 121  0.789  0.577  0.578- 175 1.09
 122  0.875  0.562  0.531- 176 1.10
 123  0.803  0.624  0.523- 176 1.10
 124  0.872  0.463  0.519- 177 1.10
 125  0.863  0.422  0.544- 177 1.10
 126  0.873  0.326  0.519- 178 1.10
 127  0.784  0.323  0.530- 178 1.10
 128  0.636  0.550  0.519- 179 1.10
 129  0.690  0.633  0.515- 179 1.10
 130  0.609  0.635  0.530- 179 1.10
 131  0.756  0.467  0.596- 180 1.09
 132  0.754  0.411  0.573- 180 1.09
 133  0.685  0.479  0.578- 180 1.10
 134  0.818  0.691  0.558- 181 1.10
 135  0.898  0.690  0.543- 181 1.10
 136  0.891  0.628  0.565- 181 1.10
 137  0.821  0.381  0.485- 182 1.10
 138  0.786  0.293  0.492- 182 1.10
 139  0.663  0.304  0.518- 168 1.10
 140  0.733  0.463  0.471- 169 1.09
 141  0.537  0.356  0.517- 170 1.09
 142  0.605  0.514  0.470- 171 1.08
 143  0.507  0.462  0.493- 172 1.08
 144  0.993  0.243  0.554-  31 1.10 183 1.31 189 1.32
 145  0.034  0.768  0.564-  32 1.09 184 1.31 190 1.32
 146  0.466  0.229  0.558-  29 1.09 187 1.31 185 1.31
 147  0.505  0.757  0.556-  30 1.09 186 1.31 188 1.32
 148  0.236  0.535  0.560-  33 1.09 191 1.31 195 1.32
 149  0.259  0.994  0.556-  34 1.09 194 1.31 192 1.31
 150  0.775  0.985  0.562-  35 1.09 193 1.31 196 1.31
 151  0.007  0.246  0.649-  68 1.10 197 1.31 207 1.31
 152  0.012  0.767  0.653-  69 1.09 198 1.31 208 1.32
 153  0.500  0.247  0.648-  70 1.10 199 1.31 205 1.32
 154  0.496  0.752  0.648-  71 1.10 206 1.31 200 1.31
 155  0.257  0.497  0.649-  73 1.09 201 1.31 210 1.32
 156  0.250  0.002  0.647-  72 1.09 202 1.30 209 1.32
 157  0.745  0.518  0.653-  75 1.10 203 1.31 212 1.31
 158  0.753  1.000  0.649-  74 1.09 204 1.30 211 1.32
 159  0.500  0.250  0.743- 110 1.09 221 1.31 215 1.31
 160  0.500  0.750  0.743- 111 1.09 222 1.31 216 1.31
 161  1.000  0.250  0.743- 108 1.09 223 1.31 213 1.31
 162  1.000  0.750  0.743- 109 1.09 224 1.31 214 1.31
 163  0.250  0.000  0.743- 112 1.09 225 1.31 218 1.31
 164  0.250  0.500  0.743- 113 1.09 226 1.31 217 1.31
 165  0.750  0.000  0.743- 114 1.09 227 1.31 220 1.31
 166  0.750  0.500  0.743- 115 1.09 228 1.31 219 1.31
 167  0.707  0.380  0.495- 168 1.40 169 1.40 182 1.51
 168  0.651  0.350  0.507- 139 1.10 167 1.40 170 1.40
 169  0.689  0.439  0.481- 140 1.09 171 1.39 167 1.40
 170  0.579  0.380  0.507- 141 1.09 172 1.39 168 1.40
 171  0.618  0.468  0.480- 142 1.08 169 1.39 172 1.41
 172  0.562  0.439  0.493- 143 1.08 170 1.39 171 1.41
 173  0.762  0.476  0.532- 116 1.10 117 1.10 229 1.52 177 1.53
 174  0.696  0.586  0.547- 118 1.10 119 1.10 179 1.52 229 1.52
 175  0.793  0.525  0.569- 121 1.09 120 1.10 180 1.51 229 1.53
 176  0.829  0.597  0.536- 122 1.10 123 1.10 181 1.51 229 1.52
 177  0.833  0.432  0.529- 124 1.10 125 1.10 173 1.53 178 1.54
 178  0.819  0.355  0.519- 127 1.10 126 1.10 177 1.54 182 1.54
 179  0.657  0.601  0.526- 129 1.10 128 1.10 130 1.10 174 1.52
 180  0.744  0.467  0.579- 131 1.09 132 1.09 133 1.10 175 1.51
 181  0.860  0.654  0.552- 134 1.10 136 1.10 135 1.10 176 1.51
 182  0.785  0.352  0.496- 138 1.10 137 1.10 167 1.51 178 1.54
 183  0.056  0.250  0.565-  15 1.02   8 1.03 144 1.31
 184  0.033  0.709  0.576-   9 1.02  16 1.03 145 1.31
 185  0.533  0.206  0.562-  10 1.02  17 1.03 146 1.31
 186  0.484  0.695  0.565-  11 1.03  18 1.03 147 1.31
 187  0.441  0.296  0.560-  22 1.02   1 1.03 146 1.31
 188  0.479  0.823  0.562-  23 1.03   2 1.03 147 1.32
 189  0.928  0.249  0.563-  24 1.03   3 1.03 144 1.32
 190  0.981  0.817  0.562-  25 1.03   4 1.04 145 1.32
 191  0.231  0.466  0.566-  19 1.02  26 1.03 148 1.31
 192  0.193  0.015  0.562-  27 1.02  20 1.03 149 1.31
 193  0.704  0.986  0.567-  21 1.02  28 1.03 150 1.31
 194  0.319  0.031  0.560-   5 1.02  12 1.03 149 1.31
 195  0.299  0.572  0.558-  13 1.03   6 1.04 148 1.32
 196  0.820  0.041  0.564-  14 1.03   7 1.03 150 1.31
 197  0.053  0.199  0.658-  44 1.02  52 1.02 151 1.31
 198  0.061  0.716  0.658-  53 1.02  45 1.03 152 1.31
 199  0.548  0.205  0.658-  54 1.02  46 1.02 153 1.31
 200  0.537  0.703  0.659-  55 1.01  47 1.02 154 1.31
 201  0.213  0.448  0.658-  56 1.02  48 1.02 155 1.31
 202  0.202  0.960  0.657-  57 1.01  49 1.03 156 1.30
 203  0.698  0.467  0.659-  58 1.02  50 1.03 157 1.31
 204  0.709  0.954  0.659-  59 1.01  51 1.03 158 1.30
 205  0.455  0.295  0.657-  36 1.02  60 1.02 153 1.32
 206  0.453  0.801  0.657-  37 1.02  61 1.02 154 1.31
 207  0.954  0.282  0.659-  38 1.02  62 1.03 151 1.31
 208  0.944  0.769  0.661-  63 1.02  39 1.02 152 1.32
 209  0.300  0.045  0.656-  40 1.01  64 1.02 156 1.32
 210  0.296  0.549  0.659-  65 1.01  41 1.01 155 1.32
 211  0.798  0.048  0.659-  42 1.02  66 1.03 158 1.32
 212  0.817  0.514  0.656-  43 1.01  67 1.02 157 1.31
 213  0.046  0.204  0.753-  92 1.02  84 1.02 161 1.31
 214  0.046  0.704  0.753-  93 1.02  85 1.02 162 1.31
 215  0.546  0.204  0.753-  94 1.02  86 1.02 159 1.31
 216  0.546  0.704  0.753-  95 1.02  87 1.02 160 1.31
 217  0.204  0.454  0.753-  96 1.02  88 1.02 164 1.31
 218  0.204  0.954  0.753-  97 1.02  89 1.02 163 1.31
 219  0.704  0.454  0.753-  98 1.02  90 1.02 166 1.31
 220  0.704  0.954  0.753-  99 1.02  91 1.02 165 1.31
 221  0.454  0.296  0.753-  76 1.02 100 1.02 159 1.31
 222  0.454  0.796  0.753-  77 1.02 101 1.02 160 1.31
 223  0.954  0.296  0.753-  78 1.02 102 1.02 161 1.31
 224  0.954  0.796  0.753-  79 1.02 103 1.02 162 1.31
 225  0.296  0.046  0.753-  80 1.02 104 1.02 163 1.31
 226  0.296  0.546  0.753-  81 1.02 105 1.02 164 1.31
 227  0.796  0.046  0.753-  82 1.02 106 1.02 165 1.31
 228  0.796  0.546  0.753-  83 1.02 107 1.02 166 1.31
 229  0.770  0.546  0.546- 174 1.52 176 1.52 173 1.52 175 1.53
 230  0.512  0.013  0.552- 304 3.29
 231  0.485  0.501  0.554- 305 3.14
 232  0.005  0.009  0.551- 302 3.35
 233  0.028  0.503  0.555- 303 3.13
 234  0.252  0.245  0.553- 306 3.20
 235  0.251  0.766  0.553- 307 3.15
 236  0.734  0.211  0.556- 308 3.18
 237  0.699  0.796  0.555- 309 3.24
 238  0.995  0.984  0.654- 302 3.12 310 3.18
 239  0.015  0.495  0.655- 311 3.10 303 3.18
 240  0.498  0.004  0.655- 304 3.12 312 3.14
 241  0.502  0.496  0.655- 313 3.14 305 3.16
 242  0.256  0.246  0.654- 306 3.15 314 3.15
 243  0.255  0.755  0.654- 315 3.16 307 3.20
 244  0.747  0.266  0.655- 316 3.12 308 3.13
 245  0.746  0.742  0.655- 317 3.13 309 3.18
 246  0.129  0.123  0.607- 302 3.20 306 3.22
 247  0.154  0.605  0.608- 307 3.18 303 3.22
 248  0.640  0.113  0.611- 308 3.19 304 3.21
 249  0.631  0.620  0.608- 305 3.20 309 3.21
 250  0.364  0.388  0.607- 306 3.18 305 3.21
 251  0.372  0.883  0.606- 304 3.21 307 3.25
 252  0.888  0.370  0.609- 303 3.24 308 3.32
 253  0.867  0.882  0.606- 309 3.19 302 3.23
 254  0.123  0.364  0.608- 306 3.14 303 3.27
 255  0.123  0.875  0.607- 307 3.20 302 3.26
 256  0.597  0.348  0.601- 308 3.21 305 3.24
 257  0.615  0.867  0.613- 309 3.10 304 3.20
 258  0.387  0.133  0.606- 304 3.18 306 3.21
 259  0.386  0.634  0.610- 305 3.23 307 3.28
 260  0.883  0.137  0.612- 302 3.20 308 3.27
 261  0.901  0.642  0.614- 303 3.23 309 3.58
 262  0.000  0.000  0.755- 310 3.13 318 3.27
 263  0.000  0.500  0.755- 311 3.13 319 3.27
 264  0.500  0.000  0.755- 312 3.13 320 3.27
 265  0.500  0.500  0.755- 313 3.13 321 3.27
 266  0.250  0.250  0.755- 314 3.13 322 3.27
 267  0.250  0.750  0.755- 315 3.13 323 3.27
 268  0.750  0.250  0.755- 316 3.13 324 3.27
 269  0.750  0.750  0.755- 317 3.13 325 3.27
 270  0.136  0.114  0.705- 310 3.20 314 3.20
 271  0.136  0.614  0.705- 311 3.20 315 3.20
 272  0.636  0.114  0.705- 312 3.20 316 3.20
 273  0.636  0.614  0.705- 313 3.20 317 3.20
 274  0.364  0.386  0.705- 313 3.20 314 3.20
 275  0.364  0.886  0.705- 312 3.20 315 3.20
 276  0.864  0.386  0.705- 311 3.20 316 3.20
 277  0.864  0.886  0.705- 310 3.20 317 3.20
 278  0.114  0.364  0.705- 314 3.21 311 3.21
 279  0.114  0.864  0.705- 315 3.21 310 3.21
 280  0.614  0.364  0.705- 316 3.21 313 3.21
 281  0.614  0.864  0.705- 317 3.21 312 3.21
 282  0.386  0.136  0.705- 314 3.21 312 3.21
 283  0.386  0.636  0.705- 315 3.21 313 3.21
 284  0.886  0.136  0.705- 316 3.21 310 3.21
 285  0.886  0.636  0.705- 317 3.21 311 3.21
 286  0.135  0.115  0.801- 318 3.22 322 3.22
 287  0.135  0.615  0.801- 319 3.22 323 3.22
 288  0.635  0.115  0.801- 320 3.22 324 3.22
 289  0.635  0.615  0.801- 321 3.22 325 3.22
 290  0.365  0.385  0.801- 321 3.22 322 3.22
 291  0.365  0.885  0.801- 320 3.22 323 3.22
 292  0.865  0.385  0.801- 319 3.22 324 3.22
 293  0.865  0.885  0.801- 318 3.22 325 3.22
 294  0.115  0.365  0.801- 319 3.23 322 3.23
 295  0.115  0.865  0.801- 318 3.23 323 3.23
 296  0.615  0.365  0.801- 321 3.23 324 3.23
 297  0.615  0.865  0.801- 320 3.23 325 3.23
 298  0.385  0.135  0.801- 320 3.23 322 3.23
 299  0.385  0.635  0.801- 321 3.23 323 3.23
 300  0.885  0.135  0.801- 318 3.23 324 3.23
 301  0.885  0.635  0.801- 319 3.23 325 3.23
 302  0.997  0.004  0.605- 238 3.12 260 3.20 246 3.20 253 3.23 255 3.26 232 3.35
 303  0.008  0.503  0.605- 233 3.13 239 3.18 247 3.22 261 3.23 252 3.24 254 3.27
 304  0.504  0.002  0.605- 240 3.12 258 3.18 257 3.20 248 3.21 251 3.21 230 3.29
 305  0.502  0.499  0.604- 231 3.14 241 3.16 249 3.20 250 3.21 259 3.23 256 3.24
 306  0.253  0.250  0.604- 254 3.14 242 3.15 250 3.18 234 3.20 258 3.21 246 3.22
 307  0.249  0.752  0.603- 235 3.15 247 3.18 255 3.20 243 3.20 251 3.25 259 3.28
 308  0.747  0.253  0.605- 244 3.13 236 3.18 248 3.19 256 3.21 260 3.27 252 3.32
 309  0.743  0.757  0.604- 257 3.10 245 3.18 253 3.19 249 3.21 237 3.24 261 3.58
 310  0.000  0.000  0.705- 262 3.13 238 3.18 270 3.20 277 3.20 279 3.21 284 3.21
 311  0.000  0.500  0.705- 239 3.10 263 3.13 271 3.20 276 3.20 278 3.21 285 3.21
 312  0.500  0.000  0.705- 264 3.13 240 3.14 272 3.20 275 3.20 281 3.21 282 3.21
 313  0.500  0.500  0.705- 265 3.13 241 3.14 273 3.20 274 3.20 280 3.21 283 3.21
 314  0.250  0.250  0.705- 266 3.13 242 3.15 270 3.20 274 3.20 282 3.21 278 3.21
 315  0.250  0.750  0.705- 267 3.13 243 3.16 271 3.20 275 3.20 283 3.21 279 3.21
 316  0.750  0.250  0.705- 244 3.12 268 3.13 272 3.20 276 3.20 284 3.21 280 3.21
 317  0.750  0.750  0.705- 269 3.13 245 3.13 273 3.20 277 3.20 285 3.21 281 3.21
 318  0.000  0.000  0.807- 286 3.22 293 3.22 300 3.23 295 3.23 262 3.27
 319  0.000  0.500  0.807- 287 3.22 292 3.22 301 3.23 294 3.23 263 3.27
 320  0.500  0.000  0.807- 288 3.22 291 3.22 298 3.23 297 3.23 264 3.27
 321  0.500  0.500  0.807- 289 3.22 290 3.22 299 3.23 296 3.23 265 3.27
 322  0.250  0.250  0.807- 290 3.22 286 3.22 294 3.23 298 3.23 266 3.27
 323  0.250  0.750  0.807- 291 3.22 287 3.22 299 3.23 295 3.23 267 3.27
 324  0.750  0.250  0.807- 292 3.22 288 3.22 296 3.23 300 3.23 268 3.27
 325  0.750  0.750  0.807- 293 3.22 289 3.22 297 3.23 301 3.23 269 3.27
 

IMPORTANT INFORMATION: All symmetrisations will be switched off!
NOSYMM: (Re-)initialisation of all symmetry stuff for point group C_1.


----------------------------------------------------------------------------------------

                                     Primitive cell                                     

  volume of cell :   20385.2105

  direct lattice vectors                    reciprocal lattice vectors
    18.060800552  0.000000000  0.000000000     0.055368531  0.000015077 -0.000000000
    -0.004918649 18.062799454  0.000000000     0.000000000  0.055362404  0.000000000
     0.000000000  0.000000000 62.487499237     0.000000000 -0.000000000  0.016003201

  length of vectors
    18.060800552 18.062800123 62.487499237     0.055368533  0.055362404  0.016003201

  position of ions in fractional coordinates (direct lattice)
     0.472232029  0.338294839  0.566850377
     0.443805359  0.829464318  0.574400043
     0.922740854  0.259978634  0.579531135
     0.938780096  0.819373410  0.573696839
     0.319159188  0.077777523  0.569519001
     0.350120832  0.548227798  0.560944532
     0.801851060  0.093300642  0.568605061
     0.106255591  0.248051237  0.557037806
     0.077244467  0.673794885  0.575689181
     0.544929446  0.150909245  0.560962663
     0.502198943  0.644847699  0.559052369
     0.371268669  0.013543896  0.555276773
     0.297610252  0.627573188  0.554278831
     0.874764871  0.035256821  0.559375737
     0.057820331  0.261844478  0.580578647
     0.990776710  0.696877618  0.586154164
     0.573365864  0.240553989  0.568599017
     0.450324851  0.692372707  0.578077720
     0.274449050  0.437820832  0.572687298
     0.183632445  0.059891444  0.571957782
     0.679584547  0.030647971  0.573802634
     0.385806368  0.305679032  0.557682283
     0.500569161  0.870726409  0.555171710
     0.878380720  0.240470437  0.555738169
     0.989424835  0.866733424  0.554651770
     0.179111676  0.443235817  0.567604189
     0.146063800  0.984840499  0.558638468
     0.675479694  0.936763406  0.565752745
     0.427378377  0.186975884  0.551757331
     0.544838022  0.756542401  0.542831290
     0.994483458  0.231320595  0.537159501
     0.083070296  0.776606478  0.553510489
     0.184919009  0.563732846  0.555645560
     0.263675421  0.942181737  0.547013401
     0.796806711  0.932854918  0.555977169
     0.452892296  0.303931956  0.673276143
     0.445821572  0.808385891  0.672881289
     0.942252321  0.277802953  0.674764539
     0.923339072  0.729070225  0.670865749
     0.305697434  0.050759183  0.672240596
     0.295449641  0.554880150  0.675194556
     0.802816673  0.053918449  0.674773208
     0.841775743  0.470708362  0.663497209
     0.091614420  0.173275712  0.648940221
     0.113877306  0.719875769  0.651814819
     0.580208704  0.169310261  0.649638297
     0.569911776  0.668286078  0.650136261
     0.185299657  0.412259220  0.648085680
     0.166405020  0.928757756  0.647746501
     0.641700998  0.474987933  0.656978205
     0.675644549  0.920099065  0.650258661
     0.052763393  0.187297884  0.674193074
     0.052004349  0.673575563  0.668382525
     0.554785175  0.203455090  0.674416447
     0.539363198  0.699562275  0.674855377
     0.201753370  0.445593815  0.673742423
     0.197728691  0.955128341  0.672984031
     0.714916017  0.419141137  0.666111197
     0.702913327  0.951981819  0.675461150
     0.419426799  0.324257329  0.647819635
     0.423613785  0.835671057  0.646868700
     0.921849669  0.317589639  0.649918688
     0.908036867  0.808511655  0.655796206
     0.334363627  0.075841504  0.646642642
     0.326478587  0.584151513  0.650370438
     0.830352414  0.080719055  0.649029289
     0.850391058  0.556191856  0.650746429
     0.012810052  0.256014899  0.632015693
     0.028818519  0.810118659  0.642074407
     0.498222322  0.240833500  0.630708608
     0.499531529  0.749778276  0.630769411
     0.248635382  0.001006626  0.629565496
     0.263031570  0.495672542  0.631562050
     0.753312246  0.998101954  0.631973387
     0.722980187  0.568479624  0.645626081
     0.448745018  0.301283966  0.768889017
     0.448745007  0.801283913  0.768889017
     0.948744965  0.301283966  0.768889017
     0.948745007  0.801283913  0.768889017
     0.301275995  0.051294496  0.768872961
     0.301276011  0.551294499  0.768872961
     0.801275943  0.051294496  0.768872961
     0.801275984  0.551294499  0.768872961
     0.078771004  0.171180501  0.743441971
     0.078771006  0.671180448  0.743441971
     0.578771004  0.171180501  0.743441971
     0.578770992  0.671180448  0.743441971
     0.171199499  0.421174482  0.743421032
     0.171199501  0.921174508  0.743421032
     0.671199512  0.421174482  0.743421032
     0.671199501  0.921174508  0.743421032
     0.051256000  0.198714991  0.768889017
     0.051256002  0.698714925  0.768889017
     0.551256027  0.198714991  0.768889017
     0.551256016  0.698714925  0.768889017
     0.198723491  0.448703970  0.768872046
     0.198723493  0.948703970  0.768872046
     0.698723518  0.448703970  0.768872046
     0.698723507  0.948703970  0.768872046
     0.421231519  0.328817467  0.743441971
     0.421231508  0.828817440  0.743441971
     0.921231466  0.328817467  0.743441971
     0.921231508  0.828817440  0.743441971
     0.328800503  0.078824997  0.743421032
     0.328800492  0.578824964  0.743421032
     0.828800477  0.078824997  0.743421032
     0.828800519  0.578824964  0.743421032
     0.000003500  0.250001478  0.725821992
     0.000003500  0.750001452  0.725821992
     0.500003506  0.250001478  0.725821992
     0.500003495  0.750001452  0.725821992
     0.250000502  0.000000000  0.725803983
     0.250000517  0.500000000  0.725803983
     0.750000502  0.000000000  0.725803983
     0.750000490  0.500000000  0.725803983
     0.720419059  0.442654066  0.540565822
     0.737608875  0.493617603  0.517062281
     0.660285515  0.551738950  0.557688021
     0.707646157  0.637365526  0.556045481
     0.851013514  0.507747693  0.568116682
     0.789455753  0.576504874  0.577924064
     0.874672949  0.562283496  0.531056901
     0.802791423  0.623723972  0.522569974
     0.872009613  0.462512364  0.518574424
     0.862760876  0.422237563  0.544050284
     0.872962877  0.326214117  0.518641332
     0.783918529  0.322970807  0.530012015
     0.636319194  0.550361828  0.518530653
     0.690130225  0.633124920  0.515124638
     0.608512270  0.634719674  0.530433058
     0.756132671  0.467036018  0.596228689
     0.754078266  0.411278556  0.572996686
     0.684704401  0.478805365  0.577940668
     0.817533164  0.691175519  0.558465338
     0.897966347  0.689905364  0.542848750
     0.890965862  0.628238123  0.564809868
     0.820806079  0.381315754  0.484802472
     0.786232739  0.293264708  0.491541735
     0.663223161  0.304239872  0.518188239
     0.732626265  0.462539185  0.470919568
     0.536584341  0.356120162  0.517213251
     0.604845700  0.513740655  0.469610041
     0.506790610  0.462118071  0.493261134
     0.993108757  0.242904754  0.554358986
     0.034270690  0.767901827  0.563562732
     0.465740301  0.228525036  0.557986543
     0.504594587  0.757498462  0.555824123
     0.236352648  0.535481323  0.559860758
     0.258949922  0.993838856  0.556013248
     0.774999206  0.985168512  0.561967625
     0.006928367  0.245546936  0.649235995
     0.011861705  0.766601630  0.653183196
     0.500334252  0.246843173  0.648175603
     0.496433387  0.751526355  0.648319186
     0.256793532  0.497373948  0.648975323
     0.250109270  0.001914743  0.647064724
     0.745202519  0.518307498  0.653287221
     0.752992021  0.999953540  0.649478109
     0.499988984  0.249994984  0.743277021
     0.499989025  0.749994958  0.743277021
     0.999988984  0.249994984  0.743277021
     0.999989025  0.749994958  0.743277021
     0.250000502  0.000001000  0.743255960
     0.250000517  0.500001003  0.743255960
     0.750000502  0.000001000  0.743255960
     0.750000491  0.500001003  0.743255960
     0.707080874  0.380383505  0.494655089
     0.650789041  0.350212363  0.507308743
     0.689224695  0.439036948  0.480959998
     0.579058557  0.379752651  0.506886357
     0.617977419  0.468000632  0.480200904
     0.562084983  0.438767838  0.493453006
     0.762230093  0.476483270  0.532359896
     0.696191165  0.585590145  0.547454896
     0.792712081  0.525073154  0.568740342
     0.828772167  0.597257381  0.536443660
     0.833222187  0.431679957  0.528854923
     0.819062550  0.354914157  0.519023428
     0.656965924  0.600632685  0.526428717
     0.744179221  0.467248054  0.579066199
     0.859748997  0.654259048  0.551791701
     0.785484192  0.351805164  0.496355686
     0.055815527  0.249584614  0.564629168
     0.032879245  0.708694430  0.575565560
     0.533491444  0.206308819  0.562214317
     0.484189245  0.694899974  0.564774033
     0.441083474  0.296484840  0.560169475
     0.478962746  0.823046493  0.561590780
     0.927731535  0.248759571  0.563499670
     0.980709550  0.817263666  0.562410829
     0.231113398  0.466252184  0.566056883
     0.192639578  0.014751551  0.562156444
     0.704427933  0.986067957  0.566849827
     0.319428835  0.031459825  0.560053851
     0.298989692  0.572123615  0.557999790
     0.820337188  0.041443504  0.564023639
     0.052699308  0.198710873  0.658159716
     0.060958435  0.715844770  0.657880424
     0.547920170  0.204945199  0.658235415
     0.537118447  0.703173902  0.658745466
     0.212988417  0.448298483  0.657802528
     0.202095102  0.960046929  0.656884254
     0.697708674  0.467271549  0.659148989
     0.708548447  0.954421872  0.659343119
     0.455044318  0.294870101  0.657224959
     0.452665141  0.801474091  0.656828700
     0.954370655  0.282489436  0.658897840
     0.943909919  0.768712747  0.660745194
     0.300001207  0.045168323  0.656171892
     0.295513011  0.548601764  0.659063767
     0.797686712  0.048332492  0.658655543
     0.817193874  0.514443287  0.656183857
     0.045862501  0.204119496  0.752725994
     0.045862500  0.704119456  0.752725994
     0.545862507  0.204119496  0.752725994
     0.545862496  0.704119456  0.752725994
     0.204119002  0.454101003  0.752704994
     0.204118991  0.954100951  0.752704994
     0.704118976  0.454101003  0.752704994
     0.704118964  0.954100951  0.752704994
     0.454140018  0.295888490  0.752726971
     0.454140007  0.795888516  0.752726971
     0.954140018  0.295888490  0.752726971
     0.954140060  0.795888516  0.752726971
     0.295882492  0.045900498  0.752704994
     0.295882481  0.545900528  0.752704994
     0.795882439  0.045900498  0.752704994
     0.795882481  0.545900528  0.752704994
     0.770369963  0.546059343  0.545967965
     0.511913258  0.012743400  0.552165616
     0.485239544  0.500948141  0.554053505
     0.005037060  0.009034149  0.550936488
     0.028015497  0.502640941  0.554851272
     0.251642345  0.244965581  0.552766810
     0.250813315  0.765799105  0.552839701
     0.734361922  0.211080081  0.555852388
     0.699223784  0.796174363  0.555097476
     0.995347754  0.984474623  0.654158855
     0.015089239  0.495208503  0.655442620
     0.498107126  0.003783964  0.654599556
     0.501923722  0.495908442  0.654675926
     0.255601527  0.245737694  0.654390041
     0.254624702  0.754749391  0.654315747
     0.747184309  0.265744750  0.655158689
     0.746091426  0.741908250  0.654733189
     0.129124442  0.122769191  0.607348589
     0.153758901  0.605142718  0.608123829
     0.640304425  0.113485309  0.611019001
     0.630757716  0.619783310  0.608362525
     0.363518935  0.387769006  0.606535316
     0.371930308  0.883176371  0.606325679
     0.887861590  0.370156220  0.608666357
     0.867404871  0.881860547  0.606035887
     0.122898163  0.364299186  0.608194950
     0.123004617  0.875206980  0.606709057
     0.596851061  0.347685095  0.600881109
     0.615465778  0.867264463  0.613299486
     0.386697524  0.132888175  0.606279711
     0.385561108  0.633883200  0.609976007
     0.883033718  0.136553075  0.612320225
     0.900560795  0.641813626  0.614435700
     0.000000000  0.000000000  0.754927972
     0.000000000  0.500000000  0.754927972
     0.500000000  0.000000000  0.754927972
     0.499999989  0.500000000  0.754927972
     0.250000496  0.250000000  0.754939022
     0.250000511  0.749999974  0.754939022
     0.750000470  0.250000000  0.754939022
     0.750000458  0.749999974  0.754939022
     0.135790500  0.114209997  0.704782994
     0.135790502  0.614209984  0.704782994
     0.635790447  0.114209997  0.704782994
     0.635790488  0.614209984  0.704782994
     0.364209516  0.385789989  0.704782994
     0.364209505  0.885789963  0.704782994
     0.864209542  0.385789989  0.704782994
     0.864209531  0.885789963  0.704782994
     0.114217990  0.364218986  0.704780979
     0.114217992  0.864218986  0.704780979
     0.614218004  0.364218986  0.704780979
     0.614217992  0.864218986  0.704780979
     0.385782012  0.135781489  0.704782017
     0.385782001  0.635781489  0.704782017
     0.885781985  0.135781489  0.704782017
     0.885782027  0.635781489  0.704782017
     0.134667000  0.115332001  0.801256025
     0.134666989  0.615331988  0.801256025
     0.634666987  0.115332001  0.801256025
     0.634666976  0.615331988  0.801256025
     0.365333002  0.384667985  0.801256025
     0.365332990  0.884667959  0.801256025
     0.865332949  0.384667985  0.801256025
     0.865332938  0.884667959  0.801256025
     0.115328503  0.365337004  0.801264999
     0.115328505  0.865336978  0.801264999
     0.615328503  0.365337004  0.801264999
     0.615328492  0.865336978  0.801264999
     0.384671513  0.134662996  0.801264999
     0.384671501  0.634662970  0.801264999
     0.884671486  0.134662996  0.801264999
     0.884671528  0.634662970  0.801264999
     0.997419411  0.004225620  0.604540410
     0.007798503  0.503150914  0.604622702
     0.504114958  0.001661648  0.604706886
     0.501748848  0.499243937  0.604096901
     0.253409003  0.250431489  0.603995440
     0.249427950  0.751988810  0.603145722
     0.746522874  0.253270897  0.605192457
     0.742804642  0.756739125  0.604050932
     0.000000500  0.000000500  0.704828963
     0.000000500  0.500000475  0.704828963
     0.500000475  0.000000500  0.704828963
     0.500000464  0.500000475  0.704828963
     0.249999994  0.249999472  0.704824995
     0.250000010  0.749999498  0.704824995
     0.749999994  0.249999472  0.704824995
     0.749999983  0.749999498  0.704824995
     0.000000000  0.000000000  0.807317968
     0.000000000  0.500000000  0.807317968
     0.500000000  0.000000000  0.807317968
     0.499999989  0.500000000  0.807317968
     0.249999994  0.250000000  0.807317968
     0.250000010  0.749999974  0.807317968
     0.749999994  0.250000000  0.807317968
     0.749999983  0.749999974  0.807317968

  ion indices of the primitive-cell ions
   primitive index   ion index
                 1           1
                 2           2
                 3           3
                 4           4
                 5           5
                 6           6
                 7           7
                 8           8
                 9           9
                10          10
                11          11
                12          12
                13          13
                14          14
                15          15
                16          16
                17          17
                18          18
                19          19
                20          20
                21          21
                22          22
                23          23
                24          24
                25          25
                26          26
                27          27
                28          28
                29          29
                30          30
                31          31
                32          32
                33          33
                34          34
                35          35
                36          36
                37          37
                38          38
                39          39
                40          40
                41          41
                42          42
                43          43
                44          44
                45          45
                46          46
                47          47
                48          48
                49          49
                50          50
                51          51
                52          52
                53          53
                54          54
                55          55
                56          56
                57          57
                58          58
                59          59
                60          60
                61          61
                62          62
                63          63
                64          64
                65          65
                66          66
                67          67
                68          68
                69          69
                70          70
                71          71
                72          72
                73          73
                74          74
                75          75
                76          76
                77          77
                78          78
                79          79
                80          80
                81          81
                82          82
                83          83
                84          84
                85          85
                86          86
                87          87
                88          88
                89          89
                90          90
                91          91
                92          92
                93          93
                94          94
                95          95
                96          96
                97          97
                98          98
                99          99
               100         100
               101         101
               102         102
               103         103
               104         104
               105         105
               106         106
               107         107
               108         108
               109         109
               110         110
               111         111
               112         112
               113         113
               114         114
               115         115
               116         116
               117         117
               118         118
               119         119
               120         120
               121         121
               122         122
               123         123
               124         124
               125         125
               126         126
               127         127
               128         128
               129         129
               130         130
               131         131
               132         132
               133         133
               134         134
               135         135
               136         136
               137         137
               138         138
               139         139
               140         140
               141         141
               142         142
               143         143
               144         144
               145         145
               146         146
               147         147
               148         148
               149         149
               150         150
               151         151
               152         152
               153         153
               154         154
               155         155
               156         156
               157         157
               158         158
               159         159
               160         160
               161         161
               162         162
               163         163
               164         164
               165         165
               166         166
               167         167
               168         168
               169         169
               170         170
               171         171
               172         172
               173         173
               174         174
               175         175
               176         176
               177         177
               178         178
               179         179
               180         180
               181         181
               182         182
               183         183
               184         184
               185         185
               186         186
               187         187
               188         188
               189         189
               190         190
               191         191
               192         192
               193         193
               194         194
               195         195
               196         196
               197         197
               198         198
               199         199
               200         200
               201         201
               202         202
               203         203
               204         204
               205         205
               206         206
               207         207
               208         208
               209         209
               210         210
               211         211
               212         212
               213         213
               214         214
               215         215
               216         216
               217         217
               218         218
               219         219
               220         220
               221         221
               222         222
               223         223
               224         224
               225         225
               226         226
               227         227
               228         228
               229         229
               230         230
               231         231
               232         232
               233         233
               234         234
               235         235
               236         236
               237         237
               238         238
               239         239
               240         240
               241         241
               242         242
               243         243
               244         244
               245         245
               246         246
               247         247
               248         248
               249         249
               250         250
               251         251
               252         252
               253         253
               254         254
               255         255
               256         256
               257         257
               258         258
               259         259
               260         260
               261         261
               262         262
               263         263
               264         264
               265         265
               266         266
               267         267
               268         268
               269         269
               270         270
               271         271
               272         272
               273         273
               274         274
               275         275
               276         276
               277         277
               278         278
               279         279
               280         280
               281         281
               282         282
               283         283
               284         284
               285         285
               286         286
               287         287
               288         288
               289         289
               290         290
               291         291
               292         292
               293         293
               294         294
               295         295
               296         296
               297         297
               298         298
               299         299
               300         300
               301         301
               302         302
               303         303
               304         304
               305         305
               306         306
               307         307
               308         308
               309         309
               310         310
               311         311
               312         312
               313         313
               314         314
               315         315
               316         316
               317         317
               318         318
               319         319
               320         320
               321         321
               322         322
               323         323
               324         324
               325         325

----------------------------------------------------------------------------------------

 
 
 KPOINTS: Automatic Mesh                          

Automatic generation of k-mesh.
 Grid dimensions read from file:
 generate k-points for:    3    3    1

 Generating k-lattice:

  Cartesian coordinates                     Fractional coordinates (reciprocal lattice)
     0.018456177  0.000005026 -0.000000000     0.333333333  0.000000000  0.000000000
     0.000000000  0.018454135  0.000000000     0.000000000  0.333333333  0.000000000
     0.000000000 -0.000000000  0.016003201     0.000000000  0.000000000  1.000000000

  Length of vectors
     0.018456178  0.018454135  0.016003201

  Shift w.r.t. Gamma in fractional coordinates (k-lattice)
     0.000000000  0.000000000  0.000000000

 
 Subroutine IBZKPT returns following result:
 ===========================================
 
 Found      5 irreducible k-points:
 
 Following reciprocal coordinates:
            Coordinates               Weight
  0.000000  0.000000  0.000000      1.000000
  0.333333  0.000000  0.000000      2.000000
  0.000000  0.333333  0.000000      2.000000
  0.333333  0.333333  0.000000      2.000000
 -0.333333  0.333333  0.000000      2.000000
 
 Following cartesian coordinates:
            Coordinates               Weight
  0.000000  0.000000  0.000000      1.000000
  0.018456  0.000005  0.000000      2.000000
  0.000000  0.018454  0.000000      2.000000
  0.018456  0.018459  0.000000      2.000000
 -0.018456  0.018449  0.000000      2.000000
 


--------------------------------------------------------------------------------------------------------




 Dimension of arrays:
   k-points           NKPTS =      5   k-points in BZ     NKDIM =      5   number of bands    NBANDS=    732
   number of dos      NEDOS =    301   number of ions     NIONS =    325
   non local maximal  LDIM  =      5   non local SUM 2l+1 LMDIM =     13
   total plane-waves  NPLWV = ******
   max r-space proj   IRMAX =   3336   max aug-charges    IRDMAX=  19845
   dimension x,y,z NGX =   100 NGY =  100 NGZ =  350
   dimension x,y,z NGXF=   200 NGYF=  200 NGZF=  700
   support grid    NGXF=   200 NGYF=  200 NGZF=  700
   ions per type =             143  39  47  72  24
   NGX,Y,Z   is equivalent  to a cutoff of   9.20,  9.20,  9.31 a.u.
   NGXF,Y,Z  is equivalent  to a cutoff of  18.41, 18.41, 18.62 a.u.

 SYSTEM =  PSC                                     
 POSCAR =   H  C  N  I Pb                          

 Startparameter for this run:
   NWRITE =      2    write-flag & timer
   PREC   = normal    normal or accurate (medium, high low for compatibility)
   ISTART =      0    job   : 0-new  1-cont  2-samecut
   ICHARG =      1    charge: 1-file 2-atom 10-const
   ISPIN  =      1    spin polarized calculation?
   LNONCOLLINEAR =      F non collinear calculations
   LSORBIT =      F    spin-orbit coupling
   INIWAV =      1    electr: 0-lowe 1-rand  2-diag
   LASPH  =      F    aspherical Exc in radial PAW
 Electronic Relaxation 1
   ENCUT  =  500.0 eV  36.75 Ry    6.06 a.u.  32.93 32.93113.93*2*pi/ulx,y,z
   ENINI  =  500.0     initial cutoff
   ENAUG  =  644.9 eV  augmentation charge cutoff
   NELM   =    600;   NELMIN=  2; NELMDL=  0     # of ELM steps 
   EDIFF  = 0.1E-03   stopping-criterion for ELM
   LREAL  =      T    real-space projection
   NLSPLINE    = F    spline interpolate recip. space projectors
   LCOMPAT=      F    compatible to vasp.4.4
   GGA_COMPAT  = F    GGA compatible to vasp.4.4-vasp.4.6
   LMAXPAW     = -100 max onsite density
   LMAXMIX     =    2 max onsite mixed and CHGCAR
   VOSKOWN=      0    Vosko Wilk Nusair interpolation
   ROPT   =   -0.00050  -0.00050  -0.00050  -0.00050
   ROPT   =   -0.00050
 Ionic relaxation
   EDIFFG = 0.1E-02   stopping-criterion for IOM
   NSW    =      0    number of steps for IOM
   NBLOCK =      1;   KBLOCK =      1    inner block; outer block 
   IBRION =     -1    ionic relax: 0-MD 1-quasi-New 2-CG
   NFREE  =      0    steps in history (QN), initial steepest desc. (CG)
   ISIF   =      2    stress and relaxation
   IWAVPR =     10    prediction:  0-non 1-charg 2-wave 3-comb
   ISYM   =      0    0-nonsym 1-usesym 2-fastsym
   LCORR  =      T    Harris-Foulkes like correction to forces

   POTIM  = 0.5000    time-step for ionic-motion
   TEIN   =    0.0    initial temperature
   TEBEG  =    0.0;   TEEND  =   0.0 temperature during run
   SMASS  =  -3.00    Nose mass-parameter (am)
   estimated Nose-frequenzy (Omega)   =  0.10E-29 period in steps = 0.13E+47 mass=  -0.745E-26a.u.
   SCALEE = 1.0000    scale energy and forces
   NPACO  =    256;   APACO  = 16.0  distance and # of slots for P.C.
   PSTRESS=    0.0 pullay stress

  Mass of Ions in am
   POMASS =   1.00 12.01 14.00126.90207.20
  Ionic Valenz
   ZVAL   =   1.00  4.00  5.00  7.00  4.00
  Atomic Wigner-Seitz radii
   RWIGS  =  -1.00 -1.00 -1.00 -1.00 -1.00
  virtual crystal weights 
   VCA    =   1.00  1.00  1.00  1.00  1.00
   NELECT =    1134.0000    total number of electrons
   NUPDOWN=      -1.0000    fix difference up-down

 DOS related values:
   EMIN   =  10.00;   EMAX   =-10.00  energy-range for DOS
   EFERMI =   0.00
   ISMEAR =     0;   SIGMA  =   0.05  broadening in eV -4-tet -1-fermi 0-gaus

 Electronic relaxation 2 (details)
   IALGO  =     38    algorithm
   LDIAG  =      T    sub-space diagonalisation (order eigenvalues)
   LSUBROT=      F    optimize rotation matrix (better conditioning)
   TURBO    =      0    0=normal 1=particle mesh
   IRESTART =      0    0=no restart 2=restart with 2 vectors
   NREBOOT  =      0    no. of reboots
   NMIN     =      0    reboot dimension
   EREF     =   0.00    reference energy to select bands
   IMIX   =      4    mixing-type and parameters
     AMIX     =   0.40;   BMIX     =  0.01
     AMIX_MAG =   1.60;   BMIX_MAG =  0.01
     AMIN     =   0.01
     WC   =   100.;   INIMIX=   1;  MIXPRE=   1;  MAXMIX= -45

 Intra band minimization:
   WEIMIN = 0.0000     energy-eigenvalue tresh-hold
   EBREAK =  0.34E-07  absolut break condition
   DEPER  =   0.30     relativ break condition  

   TIME   =   0.40     timestep for ELM

  volume/ion in A,a.u.               =      62.72       423.28
  Fermi-wavevector in a.u.,A,eV,Ry     =   0.624944  1.180972  5.313816  0.390554
  Thomas-Fermi vector in A             =   1.685677
 
 Write flags
   LWAVE        =      F    write WAVECAR
   LDOWNSAMPLE  =      F    k-point downsampling of WAVECAR
   LCHARG       =      T    write CHGCAR
   LVTOT        =      T    write LOCPOT, total local potential
   LVHAR        =      F    write LOCPOT, Hartree potential only
   LELF         =      F    write electronic localiz. function (ELF)
   LORBIT       =      0    0 simple, 1 ext, 2 COOP (PROOUT), +10 PAW based schemes


 Dipole corrections
   LMONO  =      F    monopole corrections only (constant potential shift)
   LDIPOL =      T    correct potential (dipole corrections)
   IDIPOL =      3    1-x, 2-y, 3-z, 4-all directions 
   EPSILON=  1.0000000 bulk dielectric constant

 Exchange correlation treatment:
   GGA     =    --    GGA type
   LEXCH   =     8    internal setting for exchange type
   VOSKOWN=      0    Vosko Wilk Nusair interpolation
   LHFCALC =     F    Hartree Fock is set to
   LHFONE  =     F    Hartree Fock one center treatment
   AEXX    =    0.0000 exact exchange contribution

 Linear response parameters
   LEPSILON=     F    determine dielectric tensor
   LRPA    =     F    only Hartree local field effects (RPA)
   LNABLA  =     F    use nabla operator in PAW spheres
   LVEL    =     F    velocity operator in full k-point grid
   LINTERFAST=   F  fast interpolation
   KINTER  =     0    interpolate to denser k-point grid
   CSHIFT  =0.1000    complex shift for real part using Kramers Kronig
   OMEGAMAX=  -1.0    maximum frequency
   DEG_THRESHOLD= 0.2000000E-02 threshold for treating states as degnerate
   RTIME   =   -0.100 relaxation time in fs
  (WPLASMAI=    0.000 imaginary part of plasma frequency in eV, 0.658/RTIME)
   DFIELD  = 0.0000000 0.0000000 0.0000000 field for delta impulse in time
 
 Orbital magnetization related:
   ORBITALMAG=     F  switch on orbital magnetization
   LCHIMAG   =     F  perturbation theory with respect to B field
   DQ        =  0.001000  dq finite difference perturbation B field
   LLRAUG    =     F  two centre corrections for induced B field



--------------------------------------------------------------------------------------------------------


 Static calculation
 charge density and potential will be updated during run
 non-spin polarized calculation
 Variant of blocked Davidson
 Davidson routine will perform the subspace rotation
 perform sub-space diagonalisation
    after iterative eigenvector-optimisation
 modified Broyden-mixing scheme, WC =      100.0
 initial mixing is a Kerker type mixing with AMIX =  0.4000 and BMIX =      0.0100
 Hartree-type preconditioning will be used
 using additional bands           165
 real space projection scheme for non local part
[...]
     13.54561      0.00000     45.35368         0.004500     -0.010591      0.013333
     13.54315      9.03140     45.35368        -0.007093      0.003428     -0.010136
     13.00917      7.99557     33.77861        -0.010042      0.040159     -0.060467
     13.31938      8.91612     32.30993         0.182040      0.024331      0.142705
     11.92257      9.96595     34.84853         0.075227      0.012046     -0.066525
     12.77752     11.51261     34.74589        -0.045484      0.018349     -0.055639
     15.36749      9.17134     35.50019        -0.044695      0.010443      0.018249
     14.25537     10.41329     36.11303         0.070688      0.059926      0.054658
     15.79453     10.15641     33.18442        -0.080372     -0.061929     -0.031481
     14.49599     11.26620     32.65409         0.011046     -0.053184     -0.068848
     15.74692      8.35427     32.40442        -0.024559     -0.044753      0.005120
     15.58008      7.62679     33.99634        -0.072232      0.121289     -0.008257
     15.76480      5.89234     32.40860        -0.047950     -0.002456     -0.020982
     14.15661      5.83376     33.11913        -0.005759     -0.024160     -0.028243
     11.48973      9.94108     32.40168         0.030104      0.084689      0.067213
     12.46119     11.43601     32.18885         0.049184      0.015089     -0.037096
     10.98710     11.46481     33.14544         0.001926     -0.028959     -0.051635
     13.65406      8.43598     37.25684         0.117037     -0.039055      0.040709
     13.61723      7.42884     35.80513         0.038236     -0.071407     -0.016764
     12.36395      8.64857     36.11407         0.051848      0.019529     -0.081675
     14.76190     12.48456     34.89710        -0.094184      0.005519      0.007722
     16.21460     12.46162     33.92126         0.045999     -0.032580     -0.080714
     16.08847     11.34774     35.29356         0.040576      0.055754     -0.045538
     14.82254      6.88763     30.29409         0.049641      0.049115      0.040254
     14.19855      5.29718     30.71521        -0.002421     -0.094569     -0.081752
     11.97684      5.49542     32.38029        -0.030722      0.074960     -0.088470
     13.22954      8.35475     29.42659         0.053653      0.057873     -0.078808
      9.68939      6.43253     32.31936        -0.048572      0.006541      0.036497
     10.92147      9.27959     29.34476         0.017523      0.160849     -0.159235
      9.15077      8.34715     30.82265        -0.181896      0.078247     -0.009337
     17.93514      4.38754     34.64051        -0.386702     -0.085587     -0.163594
      0.61518     13.87046     35.21563        -0.075663      0.242887     -0.163593
      8.41052      4.12780     34.86718         0.271495     -0.077025      0.056981
      9.10966     13.68254     34.73206        -0.372918      0.446287      0.210164
      4.26608      9.67229     34.98430         0.297312      0.162522     -0.028468
      4.67195     17.95151     34.74388        -0.148852      0.082972      0.006519
     13.99226     17.79490     35.11595         0.101400      0.131838      0.178811
      0.12392      4.43527     40.56913         0.009624      0.136307     -0.518981
      0.21046     13.84697     40.81578        -0.273089      0.030152      0.052990
      9.03522      4.45868     40.50287        -0.331761      0.248862     -0.161082
      8.96229     13.57467     40.51184         0.004313      0.005924     -0.301329
      4.63545      8.98397     40.55285         0.299451      0.300753     -0.079372
      4.51716      0.03459     40.43346         0.590886      0.518876     -0.174163
     13.45640      9.36208     40.82228        -0.148242      0.321865      0.012272
     13.59472     18.06196     40.58426         0.506803      0.538730     -0.152568
      9.02897      4.51561     46.44552         0.005307      0.009339      0.025068
      9.02651     13.54701     46.44552         0.025907     -0.009774      0.038850
     18.05937      4.51561     46.44552         0.019498      0.001553      0.035445
     18.05691     13.54701     46.44552         0.012824      0.006982      0.002620
      4.51521      0.00002     46.44421        -0.005457     -0.007593      0.050418
      4.51275      9.03142     46.44421        -0.006364     -0.007279      0.044191
     13.54561      0.00002     46.44421        -0.014404     -0.018006      0.034452
     13.54315      9.03142     46.44421        -0.010100     -0.003664      0.011557
     12.76858      6.87079     30.90976         0.081279     -0.085550      0.068798
     11.75205      6.32582     31.70045        -0.212405     -0.035190      0.217358
     12.44579      7.93024     30.05399         0.168659      0.010986     -0.059639
     10.45639      6.85940     31.67406         0.164556     -0.283730      0.089798
     11.15886      8.45340     30.00655        -0.569500     -0.172450      0.336019
     10.14955      7.92538     30.83464         0.484785      0.147423     -0.334273
     13.76414      8.60662     33.26584        -0.058155     -0.053531     -0.075110
     12.57089     10.57740     34.20909        -0.043300      0.023630     -0.046569
     14.31443      9.48429     35.53916        -0.082076      0.050600      0.009706
     14.96535     10.78814     33.52102         0.064997      0.021095      0.023908
     15.04654      7.79735     33.04682         0.022186      0.064685     -0.074532
     14.79118      6.41074     32.43248        -0.020271      0.212123     -0.081589
     11.86238     10.84911     32.89521        -0.034231      0.036646      0.062703
     13.43817      8.43981     36.18440        -0.165301     -0.061905      0.013490
     15.52454     11.81775     34.48008         0.000064      0.086939      0.048459
     14.18474      6.35459     31.01603         0.016794     -0.003051      0.092023
      1.00685      4.50820     35.28226         0.213926      0.073676     -0.066220
      0.59034     12.80101     35.96565         0.041053     -0.046009     -0.081325
      9.63427      3.72651     35.13137         0.067888      0.154694      0.038163
      8.74143     12.55184     35.29132         0.068252      0.056162     -0.090765
      7.96486      5.35535     35.00359         0.153371      0.249351      0.068728
      8.64640     14.86652     35.09240         0.283715     -0.410725     -0.147161
     16.75435      4.49329     35.21169         0.043822     -0.004968      0.087040
     17.70838     14.76207     35.14365        -0.302086      0.113628      0.220728
      4.17180      8.42182     35.37148        -0.497625     -0.366600      0.045375
      3.47915      0.26645     35.12775        -0.047284      0.067132      0.180601
     12.71768     17.81115     35.42103        -0.296356     -0.431603      0.009739
      5.76899      0.56825     34.99636         0.348773      0.004797     -0.063905
      5.39718     10.33415     34.86801         0.157717     -0.071113      0.005216
     14.81574      0.74859     35.24443        -0.067175      0.184521     -0.090836
      0.95081      3.58927     41.12675        -0.019230     -0.057225      0.190855
      1.09744     12.93016     41.10930         0.361256     -0.108027     -0.165492
      9.89487      3.70188     41.13148         0.237739     -0.236671      0.088843
      9.69733     12.70129     41.16336        -0.080937      0.141026     -0.439828
      3.84454      8.09753     41.10443        -0.000120      0.019640     -0.164037
      3.64528     17.34114     41.04705        -0.470879     -0.433303     -0.277217
     12.59888      8.44023     41.18857         0.099604     -0.014995     -0.058932
     12.79226     17.23953     41.20070        -0.347643     -0.363839     -0.278202
      8.21701      5.32618     41.06834         0.212327     -0.249025     -0.411420
      8.17155     14.47687     41.04358         0.099443     -0.102609     -0.146419
     17.23531      5.10255     41.17288        -0.381786      0.367436     -0.024279
     17.04399     13.88510     41.28831         0.113046     -0.041254     -0.036183
      5.41804      0.81587     41.00254        -0.347806     -0.278954     -0.508780
      5.33450      9.90928     41.18325        -0.493734     -0.611977     -0.102392
     14.40662      0.87302     41.15774        -0.278746     -0.277216     -0.416587
     14.75665      9.29229     41.00329        -0.170575      0.220014     -0.197237
      0.82731      3.68697     47.03596         0.015675     -0.023480     -0.091167
      0.82485     12.71837     47.03596         0.026002     -0.027224     -0.067597
      9.85771      3.68697     47.03596         0.026188     -0.029996     -0.081628
      9.85525     12.71837     47.03596         0.009436     -0.013056     -0.080821
      3.68432      8.20234     47.03465        -0.005613     -0.007776     -0.066737
      3.68186     17.23373     47.03465        -0.007130     -0.003725     -0.062915
     12.71472      8.20234     47.03465        -0.006734     -0.013608     -0.058595
     12.71226     17.23373     47.03465        -0.007799      0.000455     -0.072463
      8.20068      5.34457     47.03603        -0.019717      0.014560     -0.082778
      8.19822     14.37597     47.03603        -0.027987      0.026759     -0.082826
     17.23108      5.34457     47.03603        -0.030048      0.021097     -0.102796
     17.22862     14.37597     47.03603        -0.018882      0.021696     -0.067254
      5.34365      0.82909     47.03465         0.012695      0.013574     -0.064129
      5.34119      9.86049     47.03465         0.016230      0.015541     -0.070541
     14.37405      0.82909     47.03465         0.022897      0.027382     -0.071649
     14.37159      9.86049     47.03465         0.023364      0.019553     -0.069343
     13.91081      9.86336     34.11617         0.090367     -0.350850      0.045275
      9.24550      0.23018     34.50345         0.050720      0.016092      0.002376
      8.76135      9.04853     34.62142         0.060030     -0.043938     -0.101717
      0.09093      0.16318     34.42664        -0.005624     -0.008177      0.006322
      0.50351      9.07910     34.67127        -0.062756     -0.004069     -0.028810
      4.54366      4.42476     34.54102        -0.037129     -0.028259     -0.000706
      4.52612     13.83248     34.54557        -0.003394     -0.043340     -0.040156
     13.26213      3.81270     34.73383        -0.022208      0.065533      0.001157
     12.62463     14.38114     34.68665         0.048167     -0.036670     -0.032981
     17.97193     17.78237     40.87675         0.044491      0.030042     -0.004990
      0.27009      8.94485     40.95697        -0.010737      0.019102      0.027288
      8.99619      0.06835     40.90429        -0.002564      0.005347      0.021907
      9.06271      8.95749     40.90906         0.000045     -0.007269     -0.007302
      4.61516      4.43871     40.89120        -0.022316     -0.002560      0.040758
      4.59501     13.63289     40.88655         0.006688      0.020200      0.005378
     13.49344      4.80009     40.93923        -0.001506      0.036198     -0.007258
     13.47136     13.40094     40.91264        -0.004514      0.007577     -0.057744
      2.33149      2.21756     37.95169         0.029435     -0.010047      0.011769
      2.77403     10.93057     38.00014        -0.028067      0.023825      0.003596
     11.56385      2.04986     38.18105        -0.005497      0.014973     -0.015027
     11.38894     11.19502     38.01505        -0.017974     -0.015236     -0.046668
      6.56354      7.00419     37.90088        -0.031479      0.018725      0.015193
      6.71302     15.95264     37.88778        -0.019710      0.031807      0.056044
     16.03367      6.68606     38.03404        -0.006279     -0.084511      0.015945
     15.66169     15.92887     37.86967        -0.007037     -0.009014      0.002112
      2.21785      6.58026     38.00458        -0.016032      0.017527      0.020298
      2.21726     15.80869     37.91173         0.010144      0.015960      0.031474
     10.77790      6.28017     37.54756        -0.033456     -0.011423      0.035315
     11.11154     15.66522     38.32355         0.043326     -0.023323      0.034065
      6.98341      2.40033     37.88490        -0.011910      0.010155      0.012231
      6.96042     11.44971     38.11588        -0.033145      0.012354      0.027610
     15.94762      2.46653     38.26236         0.023552      0.008878     -0.032340
     16.26169     11.59295     38.39455        -0.104693     -0.015391     -0.176150
      0.00000      0.00000     47.17356        -0.001573      0.006976      0.357701
     -0.00246      9.03140     47.17356        -0.003099     -0.003695      0.479159
      9.03040      0.00000     47.17356         0.001767      0.001267      0.394238
      9.02794      9.03140     47.17356        -0.002888     -0.001099      0.418939
      4.51398      4.51570     47.17425        -0.000704     -0.004135      0.411754
      4.51152     13.54710     47.17425         0.003799     -0.000160      0.413847
     13.54438      4.51570     47.17425         0.006383     -0.000083      0.404223
     13.54192     13.54710     47.17425        -0.001338     -0.003038      0.424543
      2.45192      2.06295     44.04013         0.001159     -0.035649     -0.025524
      2.44946     11.09435     44.04013         0.036669     -0.021267     -0.033668
     11.48232      2.06295     44.04013         0.035607      0.012654     -0.053713
     11.47986     11.09435     44.04013        -0.073614      0.022176     -0.005282
      6.57602      6.96845     44.04013         0.005264     -0.014153     -0.054032
      6.57356     15.99985     44.04013         0.023048      0.014090     -0.040967
     15.60642      6.96845     44.04013        -0.002099     -0.022753     -0.088116
     15.60396     15.99985     44.04013        -0.049136      0.044692     -0.017643
      2.06108      6.57881     44.04000         0.050991     -0.027614     -0.017366
      2.05862     15.61021     44.04000         0.054145      0.068759     -0.026016
     11.09148      6.57881     44.04000        -0.032263     -0.055121     -0.004471
     11.08902     15.61021     44.04000        -0.025483      0.011842     -0.037536
      6.96686      2.45259     44.04007        -0.005639     -0.024652     -0.036675
      6.96440     11.48399     44.04007         0.019549      0.019818     -0.025175
     15.99726      2.45259     44.04007         0.031289      0.046909     -0.058572
     15.99481     11.48399     44.04007         0.032887      0.005091     -0.087378
      2.43163      2.08322     50.06849         0.005551     -0.013948      0.021963
      2.42917     11.11462     50.06849         0.015565     -0.006632      0.024692
     11.46203      2.08322     50.06849         0.010915     -0.010708      0.022456
     11.45957     11.11462     50.06849         0.009078     -0.011548      0.024660
      6.59631      6.94818     50.06849        -0.013269      0.006826      0.023747
      6.59385     15.97958     50.06849        -0.006282      0.014783      0.023320
     15.62671      6.94818     50.06849        -0.016756      0.000875      0.021384
     15.62425     15.97958     50.06849        -0.004493      0.018790      0.025353
      2.08113      6.59901     50.06905        -0.004445     -0.017719      0.023167
      2.07867     15.63041     50.06905        -0.015451     -0.003192      0.024168
     11.11153      6.59901     50.06905        -0.006389     -0.015157      0.024108
     11.10907     15.63041     50.06905        -0.014237     -0.005188      0.023776
      6.94681      2.43239     50.06905         0.012396      0.007483      0.023605
      6.94435     11.46379     50.06905         0.009474      0.010571      0.024307
     15.97721      2.43239     50.06905         0.013055      0.007805      0.022024
     15.97475     11.46379     50.06905         0.006376      0.012540      0.024889
     18.01417      0.07633     37.77622        -0.016320     -0.022316     -0.028276
      0.13837      9.08831     37.78136        -0.037589      0.055317     -0.006932
      9.10471      0.03001     37.78662        -0.021128      0.033256      0.010858
      9.05953      9.01774     37.74850         0.018780      0.013550      0.020754
      4.57554      4.52349     37.74216         0.014506     -0.008967      0.013342
      4.50117     13.58302     37.68907         0.020303      0.013850      0.014347
     13.48155      4.57478     37.81696        -0.002370     -0.010920      0.003046
     13.41192     13.66883     37.74563         0.011042     -0.001556     -0.041861
      0.00001      0.00001     44.04300        -0.006679     -0.152249      0.100151
     -0.00245      9.03141     44.04300         0.059194      0.013176      0.132598
      9.03041      0.00001     44.04300        -0.013659     -0.011362      0.132621
      9.02795      9.03141     44.04300         0.057300      0.004614      0.207300
      4.51397      4.51569     44.04275         0.011088      0.041162      0.074631
      4.51151     13.54709     44.04275        -0.066407      0.025034      0.098350
     13.54437      4.51569     44.04275        -0.091553      0.021263      0.227059
     13.54191     13.54709     44.04275        -0.014525      0.012369      0.148936
      0.00000      0.00000     50.44728        -0.000292     -0.006782     -0.616184
     -0.00246      9.03140     50.44728         0.000676      0.005968     -0.647486
      9.03040      0.00000     50.44728        -0.001063     -0.004043     -0.625165
      9.02794      9.03140     50.44728         0.000721      0.004053     -0.635304
      4.51397      4.51570     50.44728         0.000086      0.008629     -0.630769
      4.51151     13.54710     50.44728        -0.001129     -0.009563     -0.633414
     13.54437      4.51570     50.44728        -0.001068      0.009415     -0.625598
     13.54191     13.54710     50.44728         0.002345     -0.009395     -0.638305
 -----------------------------------------------------------------------------------
    total drift:                               -0.010741      0.062259      0.487349


--------------------------------------------------------------------------------------------------------



  FREE ENERGIE OF THE ION-ELECTRON SYSTEM (eV)
  ---------------------------------------------------
  free  energy   TOTEN  =     -1575.91752533 eV

  energy  without entropy=    -1575.91752533  energy(sigma->0) =    -1575.91752533
 


--------------------------------------------------------------------------------------------------------


    POTLOK:  cpu time    0.4994: real time    0.4995


--------------------------------------------------------------------------------------------------------


     LOOP+:  cpu time  286.3479: real time  286.6712
 vacuum level on the upper side and lower side of the slab         2.323         1.518
    4ORBIT:  cpu time    0.0000: real time    0.0000

 total amount of memory used by VASP MPI-rank0  8653586. kBytes
=======================================================================

   base      :      30000. kBytes
   nonlr-proj:      53624. kBytes
   fftplans  :     249280. kBytes
   grid      :     701440. kBytes
   one-center:       2636. kBytes
   wavefun   :    7616606. kBytes
 
  
  
 General timing and accounting informations for this job:
 ========================================================
  
                  Total CPU time used (sec):      499.941
                            User time (sec):      405.601
                          System time (sec):       94.340
                         Elapsed time (sec):      501.089
  
                   Maximum memory used (kb):    10306052.
                   Average memory used (kb):          N/A
  
                          Minor page faults:      3657764
                          Major page faults:           12
                 Voluntary context switches:        11211
