<?xml version="1.0" encoding="ISO-8859-1"?>
<modeling>
 <generator>
  <i name="program" type="string">vasp </i>
  <i name="version" type="string">6.2.1  </i>
  <i name="subversion" type="string">16May21 (build Nov 15 2021 14:57:28) complex                          parallel </i>
  <i name="platform" type="string">LinuxPGI </i>
  <i name="date" type="string">2023 07 30 </i>
  <i name="time" type="string">21:27:24 </i>
 </generator>
 <incar>
  <i type="string" name="SYSTEM">PSC</i>
  <i type="int" name="ISTART">     1</i>
  <i type="string" name="PREC">Normal</i>
  <i name="BMIX">      0.01000000</i>
  <i name="AMIN">      0.01000000</i>
  <i type="int" name="ICHARG">     1</i>
  <i type="int" name="NELM">   600</i>
  <i type="int" name="ISYM">     0</i>
  <i name="ENCUT">    500.00000000</i>
  <i type="string" name="LREAL">Auto</i>
  <i type="int" name="ISMEAR">     0</i>
  <i name="SIGMA">      0.05000000</i>
  <i type="logical" name="LWAVE"> F  </i>
  <i type="logical" name="LVTOT"> T  </i>
  <i type="logical" name="GGA_COMPAT"> F  </i>
  <i type="logical" name="LDIPOL"> T  </i>
  <i type="int" name="IDIPOL">     3</i>
  <i type="int" name="IVDW">    12</i>
 </incar>
 <primitive_cell>
  <structure name="primitive_cell" >
   <crystal>
    <varray name="basis" >
     <v>      18.06080055       0.00000000       0.00000000 </v>
     <v>      -0.00491865      18.06279945       0.00000000 </v>
     <v>       0.00000000       0.00000000      62.48749924 </v>
    </varray>
    <i name="volume">  20385.21054034 </i>
    <varray name="rec_basis" >
     <v>       0.05536853       0.00001508      -0.00000000 </v>
     <v>       0.00000000       0.05536240       0.00000000 </v>
     <v>       0.00000000      -0.00000000       0.01600320 </v>
    </varray>
   </crystal>
   <varray name="positions" >
    <v>       0.47223203       0.33829484       0.56685038 </v>
    <v>       0.44380536       0.82946432       0.57440004 </v>
    <v>       0.92274085       0.25997863       0.57953114 </v>
    <v>       0.93878010       0.81937341       0.57369684 </v>
    <v>       0.31915919       0.07777752       0.56951900 </v>
    <v>       0.35012083       0.54822780       0.56094453 </v>
    <v>       0.80185106       0.09330064       0.56860506 </v>
    <v>       0.10625559       0.24805124       0.55703781 </v>
    <v>       0.07724447       0.67379488       0.57568918 </v>
    <v>       0.54492945       0.15090925       0.56096266 </v>
    <v>       0.50219894       0.64484770       0.55905237 </v>
    <v>       0.37126867       0.01354390       0.55527677 </v>
    <v>       0.29761025       0.62757319       0.55427883 </v>
    <v>       0.87476487       0.03525682       0.55937574 </v>
    <v>       0.05782033       0.26184448       0.58057865 </v>
    <v>       0.99077671       0.69687762       0.58615416 </v>
    <v>       0.57336586       0.24055399       0.56859902 </v>
    <v>       0.45032485       0.69237271       0.57807772 </v>
    <v>       0.27444905       0.43782083       0.57268730 </v>
    <v>       0.18363244       0.05989144       0.57195778 </v>
    <v>       0.67958455       0.03064797       0.57380263 </v>
    <v>       0.38580637       0.30567903       0.55768228 </v>
    <v>       0.50056916       0.87072641       0.55517171 </v>
    <v>       0.87838072       0.24047044       0.55573817 </v>
    <v>       0.98942484       0.86673342       0.55465177 </v>
    <v>       0.17911168       0.44323582       0.56760419 </v>
    <v>       0.14606380       0.98484050       0.55863847 </v>
    <v>       0.67547969       0.93676341       0.56575274 </v>
    <v>       0.42737838       0.18697588       0.55175733 </v>
    <v>       0.54483802       0.75654240       0.54283129 </v>
    <v>       0.99448346       0.23132060       0.53715950 </v>
    <v>       0.08307030       0.77660648       0.55351049 </v>
    <v>       0.18491901       0.56373285       0.55564556 </v>
    <v>       0.26367542       0.94218174       0.54701340 </v>
    <v>       0.79680671       0.93285492       0.55597717 </v>
    <v>       0.45289230       0.30393196       0.67327614 </v>
    <v>       0.44582157       0.80838589       0.67288129 </v>
    <v>       0.94225232       0.27780295       0.67476454 </v>
    <v>       0.92333907       0.72907023       0.67086575 </v>
    <v>       0.30569743       0.05075918       0.67224060 </v>
    <v>       0.29544964       0.55488015       0.67519456 </v>
    <v>       0.80281667       0.05391845       0.67477321 </v>
    <v>       0.84177574       0.47070836       0.66349721 </v>
    <v>       0.09161442       0.17327571       0.64894022 </v>
    <v>       0.11387731       0.71987577       0.65181482 </v>
    <v>       0.58020870       0.16931026       0.64963830 </v>
    <v>       0.56991178       0.66828608       0.65013626 </v>
    <v>       0.18529966       0.41225922       0.64808568 </v>
    <v>       0.16640502       0.92875776       0.64774650 </v>
    <v>       0.64170100       0.47498793       0.65697821 </v>
    <v>       0.67564455       0.92009907       0.65025866 </v>
    <v>       0.05276339       0.18729788       0.67419307 </v>
    <v>       0.05200435       0.67357556       0.66838252 </v>
    <v>       0.55478518       0.20345509       0.67441645 </v>
    <v>       0.53936320       0.69956228       0.67485538 </v>
    <v>       0.20175337       0.44559382       0.67374242 </v>
    <v>       0.19772869       0.95512834       0.67298403 </v>
    <v>       0.71491602       0.41914114       0.66611120 </v>
    <v>       0.70291333       0.95198182       0.67546115 </v>
    <v>       0.41942680       0.32425733       0.64781964 </v>
    <v>       0.42361378       0.83567106       0.64686870 </v>
    <v>       0.92184967       0.31758964       0.64991869 </v>
    <v>       0.90803687       0.80851165       0.65579621 </v>
    <v>       0.33436363       0.07584150       0.64664264 </v>
    <v>       0.32647859       0.58415151       0.65037044 </v>
    <v>       0.83035241       0.08071906       0.64902929 </v>
    <v>       0.85039106       0.55619186       0.65074643 </v>
    <v>       0.01281005       0.25601490       0.63201569 </v>
    <v>       0.02881852       0.81011866       0.64207441 </v>
    <v>       0.49822232       0.24083350       0.63070861 </v>
    <v>       0.49953153       0.74977828       0.63076941 </v>
    <v>       0.24863538       0.00100663       0.62956550 </v>
    <v>       0.26303157       0.49567254       0.63156205 </v>
    <v>       0.75331225       0.99810195       0.63197339 </v>
    <v>       0.72298019       0.56847962       0.64562608 </v>
    <v>       0.44874502       0.30128397       0.76888902 </v>
    <v>       0.44874501       0.80128391       0.76888902 </v>
    <v>       0.94874497       0.30128397       0.76888902 </v>
    <v>       0.94874501       0.80128391       0.76888902 </v>
    <v>       0.30127600       0.05129450       0.76887296 </v>
    <v>       0.30127601       0.55129450       0.76887296 </v>
    <v>       0.80127594       0.05129450       0.76887296 </v>
    <v>       0.80127598       0.55129450       0.76887296 </v>
    <v>       0.07877100       0.17118050       0.74344197 </v>
    <v>       0.07877101       0.67118045       0.74344197 </v>
    <v>       0.57877100       0.17118050       0.74344197 </v>
    <v>       0.57877099       0.67118045       0.74344197 </v>
    <v>       0.17119950       0.42117448       0.74342103 </v>
    <v>       0.17119950       0.92117451       0.74342103 </v>
    <v>       0.67119951       0.42117448       0.74342103 </v>
    <v>       0.67119950       0.92117451       0.74342103 </v>
    <v>       0.05125600       0.19871499       0.76888902 </v>
    <v>       0.05125600       0.69871493       0.76888902 </v>
    <v>       0.55125603       0.19871499       0.76888902 </v>
    <v>       0.55125602       0.69871493       0.76888902 </v>
    <v>       0.19872349       0.44870397       0.76887205 </v>
    <v>       0.19872349       0.94870397       0.76887205 </v>
    <v>       0.69872352       0.44870397       0.76887205 </v>
    <v>       0.69872351       0.94870397       0.76887205 </v>
    <v>       0.42123152       0.32881747       0.74344197 </v>
    <v>       0.42123151       0.82881744       0.74344197 </v>
    <v>       0.92123147       0.32881747       0.74344197 </v>
    <v>       0.92123151       0.82881744       0.74344197 </v>
    <v>       0.32880050       0.07882500       0.74342103 </v>
    <v>       0.32880049       0.57882496       0.74342103 </v>
    <v>       0.82880048       0.07882500       0.74342103 </v>
    <v>       0.82880052       0.57882496       0.74342103 </v>
    <v>       0.00000350       0.25000148       0.72582199 </v>
    <v>       0.00000350       0.75000145       0.72582199 </v>
    <v>       0.50000351       0.25000148       0.72582199 </v>
    <v>       0.50000350       0.75000145       0.72582199 </v>
    <v>       0.25000050       0.00000000       0.72580398 </v>
    <v>       0.25000052       0.50000000       0.72580398 </v>
    <v>       0.75000050       0.00000000       0.72580398 </v>
    <v>       0.75000049       0.50000000       0.72580398 </v>
    <v>       0.72041906       0.44265407       0.54056582 </v>
    <v>       0.73760888       0.49361760       0.51706228 </v>
    <v>       0.66028551       0.55173895       0.55768802 </v>
    <v>       0.70764616       0.63736553       0.55604548 </v>
    <v>       0.85101351       0.50774769       0.56811668 </v>
    <v>       0.78945575       0.57650487       0.57792406 </v>
    <v>       0.87467295       0.56228350       0.53105690 </v>
    <v>       0.80279142       0.62372397       0.52256997 </v>
    <v>       0.87200961       0.46251236       0.51857442 </v>
    <v>       0.86276088       0.42223756       0.54405028 </v>
    <v>       0.87296288       0.32621412       0.51864133 </v>
    <v>       0.78391853       0.32297081       0.53001201 </v>
    <v>       0.63631919       0.55036183       0.51853065 </v>
    <v>       0.69013022       0.63312492       0.51512464 </v>
    <v>       0.60851227       0.63471967       0.53043306 </v>
    <v>       0.75613267       0.46703602       0.59622869 </v>
    <v>       0.75407827       0.41127856       0.57299669 </v>
    <v>       0.68470440       0.47880537       0.57794067 </v>
    <v>       0.81753316       0.69117552       0.55846534 </v>
    <v>       0.89796635       0.68990536       0.54284875 </v>
    <v>       0.89096586       0.62823812       0.56480987 </v>
    <v>       0.82080608       0.38131575       0.48480247 </v>
    <v>       0.78623274       0.29326471       0.49154173 </v>
    <v>       0.66322316       0.30423987       0.51818824 </v>
    <v>       0.73262626       0.46253919       0.47091957 </v>
    <v>       0.53658434       0.35612016       0.51721325 </v>
    <v>       0.60484570       0.51374065       0.46961004 </v>
    <v>       0.50679061       0.46211807       0.49326113 </v>
    <v>       0.99310876       0.24290475       0.55435899 </v>
    <v>       0.03427069       0.76790183       0.56356273 </v>
    <v>       0.46574030       0.22852504       0.55798654 </v>
    <v>       0.50459459       0.75749846       0.55582412 </v>
    <v>       0.23635265       0.53548132       0.55986076 </v>
    <v>       0.25894992       0.99383886       0.55601325 </v>
    <v>       0.77499921       0.98516851       0.56196762 </v>
    <v>       0.00692837       0.24554694       0.64923600 </v>
    <v>       0.01186171       0.76660163       0.65318320 </v>
    <v>       0.50033425       0.24684317       0.64817560 </v>
    <v>       0.49643339       0.75152636       0.64831919 </v>
    <v>       0.25679353       0.49737395       0.64897532 </v>
    <v>       0.25010927       0.00191474       0.64706472 </v>
    <v>       0.74520252       0.51830750       0.65328722 </v>
    <v>       0.75299202       0.99995354       0.64947811 </v>
    <v>       0.49998898       0.24999498       0.74327702 </v>
    <v>       0.49998903       0.74999496       0.74327702 </v>
    <v>       0.99998898       0.24999498       0.74327702 </v>
    <v>       0.99998903       0.74999496       0.74327702 </v>
    <v>       0.25000050       0.00000100       0.74325596 </v>
    <v>       0.25000052       0.50000100       0.74325596 </v>
    <v>       0.75000050       0.00000100       0.74325596 </v>
    <v>       0.75000049       0.50000100       0.74325596 </v>
    <v>       0.70708087       0.38038350       0.49465509 </v>
    <v>       0.65078904       0.35021236       0.50730874 </v>
    <v>       0.68922470       0.43903695       0.48096000 </v>
    <v>       0.57905856       0.37975265       0.50688636 </v>
    <v>       0.61797742       0.46800063       0.48020090 </v>
    <v>       0.56208498       0.43876784       0.49345301 </v>
    <v>       0.76223009       0.47648327       0.53235990 </v>
    <v>       0.69619117       0.58559014       0.54745490 </v>
    <v>       0.79271208       0.52507315       0.56874034 </v>
    <v>       0.82877217       0.59725738       0.53644366 </v>
    <v>       0.83322219       0.43167996       0.52885492 </v>
    <v>       0.81906255       0.35491416       0.51902343 </v>
    <v>       0.65696592       0.60063269       0.52642872 </v>
    <v>       0.74417922       0.46724805       0.57906620 </v>
    <v>       0.85974900       0.65425905       0.55179170 </v>
    <v>       0.78548419       0.35180516       0.49635569 </v>
    <v>       0.05581553       0.24958461       0.56462917 </v>
    <v>       0.03287924       0.70869443       0.57556556 </v>
    <v>       0.53349144       0.20630882       0.56221432 </v>
    <v>       0.48418925       0.69489997       0.56477403 </v>
    <v>       0.44108347       0.29648484       0.56016947 </v>
    <v>       0.47896275       0.82304649       0.56159078 </v>
    <v>       0.92773154       0.24875957       0.56349967 </v>
    <v>       0.98070955       0.81726367       0.56241083 </v>
    <v>       0.23111340       0.46625218       0.56605688 </v>
    <v>       0.19263958       0.01475155       0.56215644 </v>
    <v>       0.70442793       0.98606796       0.56684983 </v>
    <v>       0.31942884       0.03145982       0.56005385 </v>
    <v>       0.29898969       0.57212362       0.55799979 </v>
    <v>       0.82033719       0.04144350       0.56402364 </v>
    <v>       0.05269931       0.19871087       0.65815972 </v>
    <v>       0.06095843       0.71584477       0.65788042 </v>
    <v>       0.54792017       0.20494520       0.65823541 </v>
    <v>       0.53711845       0.70317390       0.65874547 </v>
    <v>       0.21298842       0.44829848       0.65780253 </v>
    <v>       0.20209510       0.96004693       0.65688425 </v>
    <v>       0.69770867       0.46727155       0.65914899 </v>
    <v>       0.70854845       0.95442187       0.65934312 </v>
    <v>       0.45504432       0.29487010       0.65722496 </v>
    <v>       0.45266514       0.80147409       0.65682870 </v>
    <v>       0.95437066       0.28248944       0.65889784 </v>
    <v>       0.94390992       0.76871275       0.66074519 </v>
    <v>       0.30000121       0.04516832       0.65617189 </v>
    <v>       0.29551301       0.54860176       0.65906377 </v>
    <v>       0.79768671       0.04833249       0.65865554 </v>
    <v>       0.81719387       0.51444329       0.65618386 </v>
    <v>       0.04586250       0.20411950       0.75272599 </v>
    <v>       0.04586250       0.70411946       0.75272599 </v>
    <v>       0.54586251       0.20411950       0.75272599 </v>
    <v>       0.54586250       0.70411946       0.75272599 </v>
    <v>       0.20411900       0.45410100       0.75270499 </v>
    <v>       0.20411899       0.95410095       0.75270499 </v>
    <v>       0.70411898       0.45410100       0.75270499 </v>
    <v>       0.70411896       0.95410095       0.75270499 </v>
    <v>       0.45414002       0.29588849       0.75272697 </v>
    <v>       0.45414001       0.79588852       0.75272697 </v>
    <v>       0.95414002       0.29588849       0.75272697 </v>
    <v>       0.95414006       0.79588852       0.75272697 </v>
    <v>       0.29588249       0.04590050       0.75270499 </v>
    <v>       0.29588248       0.54590053       0.75270499 </v>
    <v>       0.79588244       0.04590050       0.75270499 </v>
    <v>       0.79588248       0.54590053       0.75270499 </v>
    <v>       0.77036996       0.54605934       0.54596796 </v>
    <v>       0.51191326       0.01274340       0.55216562 </v>
    <v>       0.48523954       0.50094814       0.55405351 </v>
    <v>       0.00503706       0.00903415       0.55093649 </v>
    <v>       0.02801550       0.50264094       0.55485127 </v>
    <v>       0.25164234       0.24496558       0.55276681 </v>
    <v>       0.25081332       0.76579911       0.55283970 </v>
    <v>       0.73436192       0.21108008       0.55585239 </v>
    <v>       0.69922378       0.79617436       0.55509748 </v>
    <v>       0.99534775       0.98447462       0.65415885 </v>
    <v>       0.01508924       0.49520850       0.65544262 </v>
    <v>       0.49810713       0.00378396       0.65459956 </v>
    <v>       0.50192372       0.49590844       0.65467593 </v>
    <v>       0.25560153       0.24573769       0.65439004 </v>
    <v>       0.25462470       0.75474939       0.65431575 </v>
    <v>       0.74718431       0.26574475       0.65515869 </v>
    <v>       0.74609143       0.74190825       0.65473319 </v>
    <v>       0.12912444       0.12276919       0.60734859 </v>
    <v>       0.15375890       0.60514272       0.60812383 </v>
    <v>       0.64030442       0.11348531       0.61101900 </v>
    <v>       0.63075772       0.61978331       0.60836252 </v>
    <v>       0.36351894       0.38776901       0.60653532 </v>
    <v>       0.37193031       0.88317637       0.60632568 </v>
    <v>       0.88786159       0.37015622       0.60866636 </v>
    <v>       0.86740487       0.88186055       0.60603589 </v>
    <v>       0.12289816       0.36429919       0.60819495 </v>
    <v>       0.12300462       0.87520698       0.60670906 </v>
    <v>       0.59685106       0.34768510       0.60088111 </v>
    <v>       0.61546578       0.86726446       0.61329949 </v>
    <v>       0.38669752       0.13288817       0.60627971 </v>
    <v>       0.38556111       0.63388320       0.60997601 </v>
    <v>       0.88303372       0.13655307       0.61232023 </v>
    <v>       0.90056079       0.64181363       0.61443570 </v>
    <v>       0.00000000       0.00000000       0.75492797 </v>
    <v>       0.00000000       0.50000000       0.75492797 </v>
    <v>       0.50000000       0.00000000       0.75492797 </v>
    <v>       0.49999999       0.50000000       0.75492797 </v>
    <v>       0.25000050       0.25000000       0.75493902 </v>
    <v>       0.25000051       0.74999997       0.75493902 </v>
    <v>       0.75000047       0.25000000       0.75493902 </v>
    <v>       0.75000046       0.74999997       0.75493902 </v>
    <v>       0.13579050       0.11421000       0.70478299 </v>
    <v>       0.13579050       0.61420998       0.70478299 </v>
    <v>       0.63579045       0.11421000       0.70478299 </v>
    <v>       0.63579049       0.61420998       0.70478299 </v>
    <v>       0.36420952       0.38578999       0.70478299 </v>
    <v>       0.36420950       0.88578996       0.70478299 </v>
    <v>       0.86420954       0.38578999       0.70478299 </v>
    <v>       0.86420953       0.88578996       0.70478299 </v>
    <v>       0.11421799       0.36421899       0.70478098 </v>
    <v>       0.11421799       0.86421899       0.70478098 </v>
    <v>       0.61421800       0.36421899       0.70478098 </v>
    <v>       0.61421799       0.86421899       0.70478098 </v>
    <v>       0.38578201       0.13578149       0.70478202 </v>
    <v>       0.38578200       0.63578149       0.70478202 </v>
    <v>       0.88578199       0.13578149       0.70478202 </v>
    <v>       0.88578203       0.63578149       0.70478202 </v>
    <v>       0.13466700       0.11533200       0.80125603 </v>
    <v>       0.13466699       0.61533199       0.80125603 </v>
    <v>       0.63466699       0.11533200       0.80125603 </v>
    <v>       0.63466698       0.61533199       0.80125603 </v>
    <v>       0.36533300       0.38466799       0.80125603 </v>
    <v>       0.36533299       0.88466796       0.80125603 </v>
    <v>       0.86533295       0.38466799       0.80125603 </v>
    <v>       0.86533294       0.88466796       0.80125603 </v>
    <v>       0.11532850       0.36533700       0.80126500 </v>
    <v>       0.11532850       0.86533698       0.80126500 </v>
    <v>       0.61532850       0.36533700       0.80126500 </v>
    <v>       0.61532849       0.86533698       0.80126500 </v>
    <v>       0.38467151       0.13466300       0.80126500 </v>
    <v>       0.38467150       0.63466297       0.80126500 </v>
    <v>       0.88467149       0.13466300       0.80126500 </v>
    <v>       0.88467153       0.63466297       0.80126500 </v>
    <v>       0.99741941       0.00422562       0.60454041 </v>
    <v>       0.00779850       0.50315091       0.60462270 </v>
    <v>       0.50411496       0.00166165       0.60470689 </v>
    <v>       0.50174885       0.49924394       0.60409690 </v>
    <v>       0.25340900       0.25043149       0.60399544 </v>
    <v>       0.24942795       0.75198881       0.60314572 </v>
    <v>       0.74652287       0.25327090       0.60519246 </v>
    <v>       0.74280464       0.75673913       0.60405093 </v>
    <v>       0.00000050       0.00000050       0.70482896 </v>
    <v>       0.00000050       0.50000048       0.70482896 </v>
    <v>       0.50000048       0.00000050       0.70482896 </v>
    <v>       0.50000046       0.50000048       0.70482896 </v>
    <v>       0.24999999       0.24999947       0.70482499 </v>
    <v>       0.25000001       0.74999950       0.70482499 </v>
    <v>       0.74999999       0.24999947       0.70482499 </v>
    <v>       0.74999998       0.74999950       0.70482499 </v>
    <v>       0.00000000       0.00000000       0.80731797 </v>
    <v>       0.00000000       0.50000000       0.80731797 </v>
    <v>       0.50000000       0.00000000       0.80731797 </v>
    <v>       0.49999999       0.50000000       0.80731797 </v>
    <v>       0.24999999       0.25000000       0.80731797 </v>
    <v>       0.25000001       0.74999997       0.80731797 </v>
    <v>       0.74999999       0.25000000       0.80731797 </v>
    <v>       0.74999998       0.74999997       0.80731797 </v>
   </varray>
  </structure>
  <varray name="primitive_index" >
   <v type="int" >        1 </v>
   <v type="int" >        2 </v>
   <v type="int" >        3 </v>
   <v type="int" >        4 </v>
   <v type="int" >        5 </v>
   <v type="int" >        6 </v>
   <v type="int" >        7 </v>
   <v type="int" >        8 </v>
   <v type="int" >        9 </v>
   <v type="int" >       10 </v>
   <v type="int" >       11 </v>
   <v type="int" >       12 </v>
   <v type="int" >       13 </v>
   <v type="int" >       14 </v>
   <v type="int" >       15 </v>
   <v type="int" >       16 </v>
   <v type="int" >       17 </v>
   <v type="int" >       18 </v>
   <v type="int" >       19 </v>
   <v type="int" >       20 </v>
   <v type="int" >       21 </v>
   <v type="int" >       22 </v>
   <v type="int" >       23 </v>
   <v type="int" >       24 </v>
   <v type="int" >       25 </v>
   <v type="int" >       26 </v>
   <v type="int" >       27 </v>
   <v type="int" >       28 </v>
   <v type="int" >       29 </v>
   <v type="int" >       30 </v>
   <v type="int" >       31 </v>
   <v type="int" >       32 </v>
   <v type="int" >       33 </v>
   <v type="int" >       34 </v>
   <v type="int" >       35 </v>
   <v type="int" >       36 </v>
   <v type="int" >       37 </v>
   <v type="int" >       38 </v>
   <v type="int" >       39 </v>
   <v type="int" >       40 </v>
   <v type="int" >       41 </v>
   <v type="int" >       42 </v>
   <v type="int" >       43 </v>
   <v type="int" >       44 </v>
   <v type="int" >       45 </v>
   <v type="int" >       46 </v>
   <v type="int" >       47 </v>
   <v type="int" >       48 </v>
   <v type="int" >       49 </v>
   <v type="int" >       50 </v>
   <v type="int" >       51 </v>
   <v type="int" >       52 </v>
   <v type="int" >       53 </v>
   <v type="int" >       54 </v>
   <v type="int" >       55 </v>
   <v type="int" >       56 </v>
   <v type="int" >       57 </v>
   <v type="int" >       58 </v>
   <v type="int" >       59 </v>
   <v type="int" >       60 </v>
   <v type="int" >       61 </v>
   <v type="int" >       62 </v>
   <v type="int" >       63 </v>
   <v type="int" >       64 </v>
   <v type="int" >       65 </v>
   <v type="int" >       66 </v>
   <v type="int" >       67 </v>
   <v type="int" >       68 </v>
   <v type="int" >       69 </v>
   <v type="int" >       70 </v>
   <v type="int" >       71 </v>
   <v type="int" >       72 </v>
   <v type="int" >       73 </v>
   <v type="int" >       74 </v>
   <v type="int" >       75 </v>
   <v type="int" >       76 </v>
   <v type="int" >       77 </v>
   <v type="int" >       78 </v>
   <v type="int" >       79 </v>
   <v type="int" >       80 </v>
   <v type="int" >       81 </v>
   <v type="int" >       82 </v>
   <v type="int" >       83 </v>
   <v type="int" >       84 </v>
   <v type="int" >       85 </v>
   <v type="int" >       86 </v>
   <v type="int" >       87 </v>
   <v type="int" >       88 </v>
   <v type="int" >       89 </v>
   <v type="int" >       90 </v>
   <v type="int" >       91 </v>
   <v type="int" >       92 </v>
   <v type="int" >       93 </v>
   <v type="int" >       94 </v>
   <v type="int" >       95 </v>
   <v type="int" >       96 </v>
   <v type="int" >       97 </v>
   <v type="int" >       98 </v>
   <v type="int" >       99 </v>
   <v type="int" >      100 </v>
   <v type="int" >      101 </v>
   <v type="int" >      102 </v>
   <v type="int" >      103 </v>
   <v type="int" >      104 </v>
   <v type="int" >      105 </v>
   <v type="int" >      106 </v>
   <v type="int" >      107 </v>
   <v type="int" >      108 </v>
   <v type="int" >      109 </v>
   <v type="int" >      110 </v>
   <v type="int" >      111 </v>
   <v type="int" >      112 </v>
   <v type="int" >      113 </v>
   <v type="int" >      114 </v>
   <v type="int" >      115 </v>
   <v type="int" >      116 </v>
   <v type="int" >      117 </v>
   <v type="int" >      118 </v>
   <v type="int" >      119 </v>
   <v type="int" >      120 </v>
   <v type="int" >      121 </v>
   <v type="int" >      122 </v>
   <v type="int" >      123 </v>
   <v type="int" >      124 </v>
   <v type="int" >      125 </v>
   <v type="int" >      126 </v>
   <v type="int" >      127 </v>
   <v type="int" >      128 </v>
   <v type="int" >      129 </v>
   <v type="int" >      130 </v>
   <v type="int" >      131 </v>
   <v type="int" >      132 </v>
   <v type="int" >      133 </v>
   <v type="int" >      134 </v>
   <v type="int" >      135 </v>
   <v type="int" >      136 </v>
   <v type="int" >      137 </v>
   <v type="int" >      138 </v>
   <v type="int" >      139 </v>
   <v type="int" >      140 </v>
   <v type="int" >      141 </v>
   <v type="int" >      142 </v>
   <v type="int" >      143 </v>
   <v type="int" >      144 </v>
   <v type="int" >      145 </v>
   <v type="int" >      146 </v>
   <v type="int" >      147 </v>
   <v type="int" >      148 </v>
   <v type="int" >      149 </v>
   <v type="int" >      150 </v>
   <v type="int" >      151 </v>
   <v type="int" >      152 </v>
   <v type="int" >      153 </v>
   <v type="int" >      154 </v>
   <v type="int" >      155 </v>
   <v type="int" >      156 </v>
   <v type="int" >      157 </v>
   <v type="int" >      158 </v>
   <v type="int" >      159 </v>
   <v type="int" >      160 </v>
   <v type="int" >      161 </v>
   <v type="int" >      162 </v>
   <v type="int" >      163 </v>
   <v type="int" >      164 </v>
   <v type="int" >      165 </v>
   <v type="int" >      166 </v>
   <v type="int" >      167 </v>
   <v type="int" >      168 </v>
   <v type="int" >      169 </v>
   <v type="int" >      170 </v>
   <v type="int" >      171 </v>
   <v type="int" >      172 </v>
   <v type="int" >      173 </v>
   <v type="int" >      174 </v>
   <v type="int" >      175 </v>
   <v type="int" >      176 </v>
   <v type="int" >      177 </v>
   <v type="int" >      178 </v>
   <v type="int" >      179 </v>
   <v type="int" >      180 </v>
   <v type="int" >      181 </v>
   <v type="int" >      182 </v>
   <v type="int" >      183 </v>
   <v type="int" >      184 </v>
   <v type="int" >      185 </v>
   <v type="int" >      186 </v>
   <v type="int" >      187 </v>
   <v type="int" >      188 </v>
   <v type="int" >      189 </v>
   <v type="int" >      190 </v>
   <v type="int" >      191 </v>
   <v type="int" >      192 </v>
   <v type="int" >      193 </v>
   <v type="int" >      194 </v>
   <v type="int" >      195 </v>
   <v type="int" >      196 </v>
   <v type="int" >      197 </v>
   <v type="int" >      198 </v>
   <v type="int" >      199 </v>
   <v type="int" >      200 </v>
   <v type="int" >      201 </v>
   <v type="int" >      202 </v>
   <v type="int" >      203 </v>
   <v type="int" >      204 </v>
   <v type="int" >      205 </v>
   <v type="int" >      206 </v>
   <v type="int" >      207 </v>
   <v type="int" >      208 </v>
   <v type="int" >      209 </v>
   <v type="int" >      210 </v>
   <v type="int" >      211 </v>
   <v type="int" >      212 </v>
   <v type="int" >      213 </v>
   <v type="int" >      214 </v>
   <v type="int" >      215 </v>
   <v type="int" >      216 </v>
   <v type="int" >      217 </v>
   <v type="int" >      218 </v>
   <v type="int" >      219 </v>
   <v type="int" >      220 </v>
   <v type="int" >      221 </v>
   <v type="int" >      222 </v>
   <v type="int" >      223 </v>
   <v type="int" >      224 </v>
   <v type="int" >      225 </v>
   <v type="int" >      226 </v>
   <v type="int" >      227 </v>
   <v type="int" >      228 </v>
   <v type="int" >      229 </v>
   <v type="int" >      230 </v>
   <v type="int" >      231 </v>
   <v type="int" >      232 </v>
   <v type="int" >      233 </v>
   <v type="int" >      234 </v>
   <v type="int" >      235 </v>
   <v type="int" >      236 </v>
   <v type="int" >      237 </v>
   <v type="int" >      238 </v>
   <v type="int" >      239 </v>
   <v type="int" >      240 </v>
   <v type="int" >      241 </v>
   <v type="int" >      242 </v>
   <v type="int" >      243 </v>
   <v type="int" >      244 </v>
   <v type="int" >      245 </v>
   <v type="int" >      246 </v>
   <v type="int" >      247 </v>
   <v type="int" >      248 </v>
   <v type="int" >      249 </v>
   <v type="int" >      250 </v>
   <v type="int" >      251 </v>
   <v type="int" >      252 </v>
   <v type="int" >      253 </v>
   <v type="int" >      254 </v>
   <v type="int" >      255 </v>
   <v type="int" >      256 </v>
   <v type="int" >      257 </v>
   <v type="int" >      258 </v>
   <v type="int" >      259 </v>
   <v type="int" >      260 </v>
   <v type="int" >      261 </v>
   <v type="int" >      262 </v>
   <v type="int" >      263 </v>
   <v type="int" >      264 </v>
   <v type="int" >      265 </v>
   <v type="int" >      266 </v>
   <v type="int" >      267 </v>
   <v type="int" >      268 </v>
   <v type="int" >      269 </v>
   <v type="int" >      270 </v>
   <v type="int" >      271 </v>
   <v type="int" >      272 </v>
   <v type="int" >      273 </v>
   <v type="int" >      274 </v>
   <v type="int" >      275 </v>
   <v type="int" >      276 </v>
   <v type="int" >      277 </v>
   <v type="int" >      278 </v>
   <v type="int" >      279 </v>
   <v type="int" >      280 </v>
   <v type="int" >      281 </v>
   <v type="int" >      282 </v>
   <v type="int" >      283 </v>
   <v type="int" >      284 </v>
   <v type="int" >      285 </v>
   <v type="int" >      286 </v>
   <v type="int" >      287 </v>
   <v type="int" >      288 </v>
   <v type="int" >      289 </v>
   <v type="int" >      290 </v>
   <v type="int" >      291 </v>
   <v type="int" >      292 </v>
   <v type="int" >      293 </v>
   <v type="int" >      294 </v>
   <v type="int" >      295 </v>
   <v type="int" >      296 </v>
   <v type="int" >      297 </v>
   <v type="int" >      298 </v>
   <v type="int" >      299 </v>
   <v type="int" >      300 </v>
   <v type="int" >      301 </v>
   <v type="int" >      302 </v>
   <v type="int" >      303 </v>
   <v type="int" >      304 </v>
   <v type="int" >      305 </v>
   <v type="int" >      306 </v>
   <v type="int" >      307 </v>
   <v type="int" >      308 </v>
   <v type="int" >      309 </v>
   <v type="int" >      310 </v>
   <v type="int" >      311 </v>
   <v type="int" >      312 </v>
   <v type="int" >      313 </v>
   <v type="int" >      314 </v>
   <v type="int" >      315 </v>
   <v type="int" >      316 </v>
   <v type="int" >      317 </v>
   <v type="int" >      318 </v>
   <v type="int" >      319 </v>
   <v type="int" >      320 </v>
   <v type="int" >      321 </v>
   <v type="int" >      322 </v>
   <v type="int" >      323 </v>
   <v type="int" >      324 </v>
   <v type="int" >      325 </v>
  </varray>
 </primitive_cell>
 <kpoints>
  <generation param="Gamma">
   <v type="int" name="divisions">       3        3        1 </v>
   <v name="usershift">      0.00000000       0.00000000       0.00000000 </v>
   <v name="genvec1">      0.33333333       0.00000000       0.00000000 </v>
   <v name="genvec2">      0.00000000       0.33333333       0.00000000 </v>
   <v name="genvec3">      0.00000000       0.00000000       1.00000000 </v>
   <v name="shift">      0.00000000       0.00000000       0.00000000 </v>
  </generation>
  <varray name="kpointlist" >
   <v>       0.00000000       0.00000000       0.00000000 </v>
   <v>       0.33333333       0.00000000       0.00000000 </v>
   <v>       0.00000000       0.33333333       0.00000000 </v>
   <v>       0.33333333       0.33333333       0.00000000 </v>
   <v>      -0.33333333       0.33333333       0.00000000 </v>
  </varray>
  <varray name="weights" >
   <v>       0.11111111 </v>
   <v>       0.22222222 </v>
   <v>       0.22222222 </v>
   <v>       0.22222222 </v>
   <v>       0.22222222 </v>
  </varray>
 </kpoints>
 <parameters>
  <separator name="general" >
   <i type="string" name="SYSTEM">PSC</i>
   <i type="logical" name="LCOMPAT"> F  </i>
  </separator>
  <separator name="electronic" >
   <i type="string" name="PREC">normal</i>
   <i name="ENMAX">    500.00000000</i>
   <i name="ENAUG">    644.87300000</i>
   <i name="EDIFF">      0.00010000</i>
   <i type="int" name="IALGO">    38</i>
   <i type="int" name="IWAVPR">    10</i>
   <i type="int" name="NBANDS">   732</i>
   <i type="int" name="NBANDSLOW">    -1</i>
   <i type="int" name="NBANDSHIGH">    -1</i>
   <i name="NELECT">   1134.00000000</i>
   <i type="int" name="TURBO">     0</i>
   <i type="int" name="IRESTART">     0</i>
   <i type="int" name="NREBOOT">     0</i>
   <i type="int" name="NMIN">     0</i>
   <i name="EREF">      0.00000000</i>
   <separator name="electronic smearing" >
    <i type="int" name="ISMEAR">     0</i>
    <i name="SIGMA">      0.05000000</i>
    <i name="KSPACING">      0.50000000</i>
    <i type="logical" name="KGAMMA"> T  </i>
    <i type="logical" name="KBLOWUP"> T  </i>
   </separator>
   <separator name="electronic projectors" >
    <i type="logical" name="LREAL"> T  </i>
    <v name="ROPT">     -0.00050000     -0.00050000     -0.00050000     -0.00050000     -0.00050000</v>
    <i type="int" name="LMAXPAW">  -100</i>
    <i type="int" name="LMAXMIX">     2</i>
    <i type="logical" name="NLSPLINE"> F  </i>
   </separator>
   <separator name="electronic startup" >
    <i type="int" name="ISTART">     0</i>
    <i type="int" name="ICHARG">     1</i>
    <i type="int" name="INIWAV">     1</i>
   </separator>
   <separator name="electronic spin" >
    <i type="int" name="ISPIN">     1</i>
    <i type="logical" name="LNONCOLLINEAR"> F  </i>
    <v name="MAGMOM">      1.00000000      1.00000000      1.00000000      1.00000000      1.00000000      1.00000000      1.00000000      1.00000000      1.00000000      1.00000000      1.00000000      1.00000000      1.00000000      1.00000000      1.00000000      1.00000000      1.00000000      1.00000000      1.00000000      1.00000000
      1.00000000      1.00000000      1.00000000      1.00000000      1.00000000      1.00000000      1.00000000      1.00000000      1.00000000      1.00000000      1.00000000      1.00000000      1.00000000      1.00000000      1.00000000      1.00000000      1.00000000      1.00000000      1.00000000      1.00000000
      1.00000000      1.00000000      1.00000000      1.00000000      1.00000000      1.00000000      1.00000000      1.00000000      1.00000000      1.00000000      1.00000000      1.00000000      1.00000000      1.00000000      1.00000000      1.00000000      1.00000000      1.00000000      1.00000000      1.00000000
      1.00000000      1.00000000      1.00000000      1.00000000      1.00000000      1.00000000      1.00000000      1.00000000      1.00000000      1.00000000      1.00000000      1.00000000      1.00000000      1.00000000      1.00000000      1.00000000      1.00000000      1.00000000      1.00000000      1.00000000
      1.00000000      1.00000000      1.00000000      1.00000000      1.00000000      1.00000000      1.00000000      1.00000000      1.00000000      1.00000000      1.00000000      1.00000000      1.00000000      1.00000000      1.00000000      1.00000000      1.00000000      1.00000000      1.00000000      1.00000000
      1.00000000      1.00000000      1.00000000      1.00000000      1.00000000      1.00000000      1.00000000      1.00000000      1.00000000      1.00000000      1.00000000      1.00000000      1.00000000      1.00000000      1.00000000      1.00000000      1.00000000      1.00000000      1.00000000      1.00000000
      1.00000000      1.00000000      1.00000000      1.00000000      1.00000000      1.00000000      1.00000000      1.00000000      1.00000000      1.00000000      1.00000000      1.00000000      1.00000000      1.00000000      1.00000000      1.00000000      1.00000000      1.00000000      1.00000000      1.00000000
      1.00000000      1.00000000      1.00000000      1.00000000      1.00000000      1.00000000      1.00000000      1.00000000      1.00000000      1.00000000      1.00000000      1.00000000      1.00000000      1.00000000      1.00000000      1.00000000      1.00000000      1.00000000      1.00000000      1.00000000
      1.00000000      1.00000000      1.00000000      1.00000000      1.00000000      1.00000000      1.00000000      1.00000000      1.00000000      1.00000000      1.00000000      1.00000000      1.00000000      1.00000000      1.00000000      1.00000000      1.00000000      1.00000000      1.00000000      1.00000000
      1.00000000      1.00000000      1.00000000      1.00000000      1.00000000      1.00000000      1.00000000      1.00000000      1.00000000      1.00000000      1.00000000      1.00000000      1.00000000      1.00000000      1.00000000      1.00000000      1.00000000      1.00000000      1.00000000      1.00000000
      1.00000000      1.00000000      1.00000000      1.00000000      1.00000000      1.00000000      1.00000000      1.00000000      1.00000000      1.00000000      1.00000000      1.00000000      1.00000000      1.00000000      1.00000000      1.00000000      1.00000000      1.00000000      1.00000000      1.00000000
      1.00000000      1.00000000      1.00000000      1.00000000      1.00000000      1.00000000      1.00000000      1.00000000      1.00000000      1.00000000      1.00000000      1.00000000      1.00000000      1.00000000      1.00000000      1.00000000      1.00000000      1.00000000      1.00000000      1.00000000
      1.00000000      1.00000000      1.00000000      1.00000000      1.00000000      1.00000000      1.00000000      1.00000000      1.00000000      1.00000000      1.00000000      1.00000000      1.00000000      1.00000000      1.00000000      1.00000000      1.00000000      1.00000000      1.00000000      1.00000000
      1.00000000      1.00000000      1.00000000      1.00000000      1.00000000      1.00000000      1.00000000      1.00000000      1.00000000      1.00000000      1.00000000      1.00000000      1.00000000      1.00000000      1.00000000      1.00000000      1.00000000      1.00000000      1.00000000      1.00000000
      1.00000000      1.00000000      1.00000000      1.00000000      1.00000000      1.00000000      1.00000000      1.00000000      1.00000000      1.00000000      1.00000000      1.00000000      1.00000000      1.00000000      1.00000000      1.00000000      1.00000000      1.00000000      1.00000000      1.00000000
      1.00000000      1.00000000      1.00000000      1.00000000      1.00000000      1.00000000      1.00000000      1.00000000      1.00000000      1.00000000      1.00000000      1.00000000      1.00000000      1.00000000      1.00000000      1.00000000      1.00000000      1.00000000      1.00000000      1.00000000
      1.00000000      1.00000000      1.00000000      1.00000000      1.00000000</v>
    <i name="NUPDOWN">     -1.00000000</i>
    <i type="logical" name="LSORBIT"> F  </i>
    <v name="SAXIS">      0.00000000      0.00000000      1.00000000</v>
    <i type="logical" name="LSPIRAL"> F  </i>
    <v name="QSPIRAL">      0.00000000      0.00000000      0.00000000</v>
    <i type="logical" name="LZEROZ"> F  </i>
   </separator>
   <separator name="electronic exchange-correlation" >
    <i type="logical" name="LASPH"> F  </i>
    <i type="logical" name="LMETAGGA"> F  </i>
   </separator>
   <separator name="electronic convergence" >
    <i type="int" name="NELM">   600</i>
    <i type="int" name="NELMDL">     0</i>
    <i type="int" name="NELMIN">     2</i>
    <i name="ENINI">    500.00000000</i>
    <separator name="electronic convergence detail" >
     <i type="logical" name="LDIAG"> T  </i>
     <i type="logical" name="LSUBROT"> F  </i>
     <i name="WEIMIN">      0.00000000</i>
     <i name="EBREAK">      0.00000003</i>
     <i name="DEPER">      0.30000000</i>
     <i type="int" name="NRMM">     4</i>
     <i name="TIME">      0.40000000</i>
    </separator>
   </separator>
   <separator name="electronic mixer" >
    <i name="AMIX">      0.40000000</i>
    <i name="BMIX">      0.01000000</i>
    <i name="AMIN">      0.01000000</i>
    <i name="AMIX_MAG">      1.60000000</i>
    <i name="BMIX_MAG">      0.01000000</i>
    <separator name="electronic mixer details" >
     <i type="int" name="IMIX">     4</i>
     <i type="logical" name="MIXFIRST"> F  </i>
     <i type="int" name="MAXMIX">   -45</i>
     <i name="WC">    100.00000000</i>
     <i type="int" name="INIMIX">     1</i>
     <i type="int" name="MIXPRE">     1</i>
     <i type="int" name="MREMOVE">     5</i>
    </separator>
   </separator>
   <separator name="electronic dipolcorrection" >
    <i type="logical" name="LDIPOL"> T  </i>
    <i type="logical" name="LMONO"> F  </i>
    <i type="int" name="IDIPOL">     3</i>
    <i name="EPSILON">      1.00000000</i>
    <v name="DIPOL">   -100.00000000   -100.00000000   -100.00000000</v>
    <i name="EFIELD">      0.00000000</i>
   </separator>
  </separator>
  <separator name="grids" >
   <i type="int" name="NGX">   100</i>
   <i type="int" name="NGY">   100</i>
   <i type="int" name="NGZ">   350</i>
   <i type="int" name="NGXF">   200</i>
   <i type="int" name="NGYF">   200</i>
   <i type="int" name="NGZF">   700</i>
   <i type="logical" name="ADDGRID"> F  </i>
  </separator>
  <separator name="ionic" >
   <i type="int" name="NSW">     0</i>
   <i type="int" name="IBRION">    -1</i>
   <i type="int" name="MDALGO">     0</i>
   <i type="int" name="ISIF">     2</i>
   <i name="PSTRESS">      0.00000000</i>
   <i name="EDIFFG">      0.00100000</i>
   <i type="int" name="NFREE">     0</i>
   <i name="POTIM">      0.50000000</i>
   <i name="SMASS">     -3.00000000</i>
   <i name="SCALEE">      1.00000000</i>
  </separator>
  <separator name="ionic md" >
   <i name="TEBEG">      0.00010000</i>
   <i name="TEEND">      0.00010000</i>
   <i type="int" name="NBLOCK">     1</i>
   <i type="int" name="KBLOCK">     1</i>
   <i type="int" name="NPACO">   256</i>
   <i name="APACO">     16.00000000</i>
  </separator>
  <separator name="symmetry" >
   <i type="int" name="ISYM">     0</i>
   <i name="SYMPREC">      0.00001000</i>
  </separator>
  <separator name="dos" >
   <i type="int" name="LORBIT">     0</i>
   <v name="RWIGS">     -1.00000000     -1.00000000     -1.00000000     -1.00000000     -1.00000000</v>
   <i type="int" name="NEDOS">   301</i>
   <i name="EMIN">     10.00000000</i>
   <i name="EMAX">    -10.00000000</i>
   <i name="EFERMI">      0.00000000</i>
  </separator>
  <separator name="writing" >
   <i type="int" name="NWRITE">     2</i>
   <i type="logical" name="LWAVE"> F  </i>
   <i type="logical" name="LDOWNSAMPLE"> F  </i>
   <i type="logical" name="LCHARG"> T  </i>
   <i type="logical" name="LPARD"> F  </i>
   <i type="logical" name="LVTOT"> T  </i>
   <i type="logical" name="LVHAR"> F  </i>
   <i type="logical" name="LELF"> F  </i>
   <i type="logical" name="LOPTICS"> F  </i>
   <v name="STM">      0.00000000      0.00000000      0.00000000      0.00000000      0.00000000      0.00000000      0.00000000</v>
  </separator>
  <separator name="performance" >
   <i type="int" name="NPAR">     4</i>
   <i type="int" name="NSIM">     4</i>
   <i type="int" name="NBLK">    -1</i>
   <i type="logical" name="LPLANE"> T  </i>
   <i type="logical" name="LSCALAPACK"> T  </i>
   <i type="logical" name="LSCAAWARE"> F  </i>
   <i type="logical" name="LSCALU"> F  </i>
   <i type="logical" name="LASYNC"> F  </i>
   <i type="logical" name="LORBITALREAL"> F  </i>
  </separator>
  <separator name="miscellaneous" >
   <i type="int" name="IDIOT">     3</i>
   <i type="int" name="PHON_NSTRUCT">    -1</i>
   <i type="logical" name="LMUSIC"> F  </i>
   <v name="POMASS">      1.00000000     12.01100000     14.00100000    126.90400000    207.20000000</v>
   <v name="DARWINR">      0.00000000      0.00000000      0.00000000      0.00000000      0.00000000</v>
   <v name="DARWINV">      1.00000000      1.00000000      1.00000000      1.00000000      1.00000000</v>
   <i type="logical" name="LCORR"> T  </i>
  </separator>
  <i type="logical" name="GGA_COMPAT"> F  </i>
  <i type="logical" name="LBERRY"> F  </i>
  <i type="int" name="ICORELEVEL">     0</i>
  <i type="logical" name="LDAU"> F  </i>
  <i type="int" name="I_CONSTRAINED_M">     0</i>
  <separator name="electronic exchange-correlation" >
   <i type="string" name="GGA">--</i>
   <i type="int" name="VOSKOWN">     0</i>
   <i type="logical" name="LHFCALC"> F  </i>
   <i type="string" name="PRECFOCK"></i>
   <i type="logical" name="LSYMGRAD"> F  </i>
   <i type="logical" name="LHFONE"> F  </i>
   <i type="logical" name="LRHFCALC"> F  </i>
   <i type="logical" name="LTHOMAS"> F  </i>
   <i type="logical" name="LMODELHF"> F  </i>
   <i type="logical" name="LFOCKACE"> F  </i>
   <i name="ENCUT4O">     -1.00000000</i>
   <i type="int" name="EXXOEP">     0</i>
   <i type="int" name="FOURORBIT">     0</i>
   <i name="AEXX">      0.00000000</i>
   <i name="HFALPHA">      0.00000000</i>
   <i name="MCALPHA">      0.00000000</i>
   <i name="ALDAX">      1.00000000</i>
   <i name="AGGAX">      1.00000000</i>
   <i name="ALDAC">      1.00000000</i>
   <i name="AGGAC">      1.00000000</i>
   <i type="int" name="NKREDX">     1</i>
   <i type="int" name="NKREDY">     1</i>
   <i type="int" name="NKREDZ">     1</i>
   <i type="logical" name="SHIFTRED"> F  </i>
   <i type="logical" name="ODDONLY"> F  </i>
   <i type="logical" name="EVENONLY"> F  </i>
   <i type="int" name="LMAXFOCK">     0</i>
   <i type="int" name="NMAXFOCKAE">     0</i>
   <i type="logical" name="LFOCKAEDFT"> F  </i>
   <i name="HFSCREEN">      0.00000000</i>
   <i name="HFSCREENC">      0.00000000</i>
   <i type="int" name="NBANDSGWLOW">     0</i>
  </separator>
  <separator name="vdW DFT" >
   <i type="logical" name="LUSE_VDW"> F  </i>
   <i name="Zab_VDW">     -0.84910000</i>
   <i name="PARAM1">      0.12340000</i>
   <i name="PARAM2">      1.00000000</i>
   <i name="PARAM3">      0.00000000</i>
  </separator>
  <separator name="model GW" >
   <i type="int" name="MODEL_GW">     0</i>
   <i name="MODEL_EPS0">     37.63423484</i>
   <i name="MODEL_ALPHA">      1.00000000</i>
  </separator>
  <separator name="linear response parameters" >
   <i type="logical" name="LEPSILON"> F  </i>
   <i type="logical" name="LRPA"> F  </i>
   <i type="logical" name="LNABLA"> F  </i>
   <i type="logical" name="LVEL"> F  </i>
   <i type="int" name="KINTER">     0</i>
   <i name="CSHIFT">      0.10000000</i>
   <i name="OMEGAMAX">     -1.00000000</i>
   <i name="DEG_THRESHOLD">      0.00200000</i>
   <i name="RTIME">     -0.10000000</i>
   <i name="WPLASMAI">      0.00000000</i>
   <v name="DFIELD">      0.00000000      0.00000000      0.00000000</v>
   <v name="WPLASMA">      0.00000000      0.00000000      0.00000000      0.00000000      0.00000000      0.00000000      0.00000000      0.00000000      0.00000000</v>
  </separator>
  <separator name="orbital magnetization" >
   <i type="logical" name="NUCIND"> F  </i>
   <v name="MAGPOS">      0.00000000      0.00000000      0.00000000</v>
   <i type="logical" name="LNICSALL"> T  </i>
   <i type="logical" name="ORBITALMAG"> F  </i>
   <i type="logical" name="LMAGBLOCH"> F  </i>
   <i type="logical" name="LCHIMAG"> F  </i>
   <i type="logical" name="LGAUGE"> T  </i>
   <i type="int" name="MAGATOM">     0</i>
   <v name="MAGDIPOL">      0.00000000      0.00000000      0.00000000</v>
   <v name="AVECCONST">      0.00000000      0.00000000      0.00000000</v>
  </separator>
  <separator name="response functions" >
   <i type="logical" name="LFINITE_TEMPERATURE"> F  </i>
   <i type="logical" name="LADDER"> F  </i>
   <i type="logical" name="LRPAFORCE"> F  </i>
   <i type="logical" name="LFXC"> F  </i>
   <i type="logical" name="LHARTREE"> T  </i>
   <i type="int" name="IBSE">     0</i>
   <v type="int" name="KPOINT">    -1     0     0     0</v>
   <i type="logical" name="LTCTC"> F  </i>
   <i type="logical" name="LTCTE"> F  </i>
   <i type="logical" name="LTETE"> F  </i>
   <i type="logical" name="LTRIPLET"> F  </i>
   <i type="logical" name="LFXCEPS"> F  </i>
   <i type="logical" name="LFXHEG"> F  </i>
   <i type="int" name="NATURALO">     2</i>
   <i type="logical" name="LHOLEGF"> F  </i>
   <i type="logical" name="L2ORDER"> F  </i>
   <i type="logical" name="LDMP1"> F  </i>
   <i type="logical" name="LMP2LT"> F  </i>
   <i type="logical" name="LSMP2LT"> F  </i>
   <i type="logical" name="LGWLF"> F  </i>
   <i name="ENCUTGW">     -2.00000000</i>
   <i name="ENCUTGWSOFT">     -2.00000000</i>
   <i name="ENCUTLF">     -1.00000000</i>
   <i type="logical" name="LESF_SPLINES"> F  </i>
   <i type="int" name="LMAXMP2">    -1</i>
   <i name="SCISSOR">      0.00000000</i>
   <i type="int" name="NOMEGA">     0</i>
   <i type="int" name="NOMEGAR">     0</i>
   <i type="int" name="NBANDSGW">    -1</i>
   <i type="int" name="NBANDSO">    -1</i>
   <i type="int" name="NBANDSV">    -1</i>
   <i type="int" name="NELM">   600</i>
   <i type="int" name="NELMHF">     1</i>
   <i type="int" name="DIM">     3</i>
   <i type="int" name="IESPILON">     4</i>
   <i type="int" name="ANTIRES">     0</i>
   <i name="OMEGAMAX">    -30.00000000</i>
   <i name="OMEGAMIN">    -30.00000000</i>
   <i name="OMEGATL">   -200.00000000</i>
   <i type="int" name="OMEGAGRID">     0</i>
   <i name="CSHIFT">     -0.10000000</i>
   <i type="logical" name="LSELFENERGY"> F  </i>
   <i type="logical" name="LSPECTRAL"> F  </i>
   <i type="logical" name="LSPECTRALGW"> F  </i>
   <i type="logical" name="LSINGLES"> F  </i>
   <i type="logical" name="LFERMIGW"> F  </i>
   <i type="logical" name="ODDONLYGW"> F  </i>
   <i type="logical" name="EVENONLYGW"> F  </i>
   <i type="int" name="NKREDLFX">     1</i>
   <i type="int" name="NKREDLFY">     1</i>
   <i type="int" name="NKREDLFZ">     1</i>
   <i type="int" name="MAXMEM">  2800</i>
   <i type="int" name="TELESCOPE">     0</i>
   <i type="int" name="NTAUPAR">    -1</i>
   <i type="int" name="NOMEGAPAR">    -1</i>
   <i name="DAMP_NEWTON">      0.80000001</i>
   <i name="LAMBDA">      1.00000000</i>
  </separator>
  <separator name="External order field" >
   <i name="OFIELD_KAPPA">      0.00000000</i>
   <v name="OFIELD_K">      0.00000000      0.00000000      0.00000000</v>
   <i name="OFIELD_Q6_NEAR">      0.00000000</i>
   <i name="OFIELD_Q6_FAR">      0.00000000</i>
   <i name="OFIELD_A">      0.00000000</i>
  </separator>
 </parameters>
 <atominfo>
  <atoms>     325 </atoms>
  <types>       5 </types>
  <array name="atoms" >
   <dimension dim="1">ion</dimension>
   <field type="string">element</field>
   <field type="int">atomtype</field>
   <set>
    <rc><c>H </c><c>   1</c></rc>
    <rc><c>H </c><c>   1</c></rc>
    <rc><c>H </c><c>   1</c></rc>
    <rc><c>H </c><c>   1</c></rc>
    <rc><c>H </c><c>   1</c></rc>
    <rc><c>H </c><c>   1</c></rc>
    <rc><c>H </c><c>   1</c></rc>
    <rc><c>H </c><c>   1</c></rc>
    <rc><c>H </c><c>   1</c></rc>
    <rc><c>H </c><c>   1</c></rc>
    <rc><c>H </c><c>   1</c></rc>
    <rc><c>H </c><c>   1</c></rc>
    <rc><c>H </c><c>   1</c></rc>
    <rc><c>H </c><c>   1</c></rc>
    <rc><c>H </c><c>   1</c></rc>
    <rc><c>H </c><c>   1</c></rc>
    <rc><c>H </c><c>   1</c></rc>
    <rc><c>H </c><c>   1</c></rc>
    <rc><c>H </c><c>   1</c></rc>
    <rc><c>H </c><c>   1</c></rc>
    <rc><c>H </c><c>   1</c></rc>
    <rc><c>H </c><c>   1</c></rc>
    <rc><c>H </c><c>   1</c></rc>
    <rc><c>H </c><c>   1</c></rc>
    <rc><c>H </c><c>   1</c></rc>
    <rc><c>H </c><c>   1</c></rc>
    <rc><c>H </c><c>   1</c></rc>
    <rc><c>H </c><c>   1</c></rc>
    <rc><c>H </c><c>   1</c></rc>
    <rc><c>H </c><c>   1</c></rc>
    <rc><c>H </c><c>   1</c></rc>
    <rc><c>H </c><c>   1</c></rc>
    <rc><c>H </c><c>   1</c></rc>
    <rc><c>H </c><c>   1</c></rc>
    <rc><c>H </c><c>   1</c></rc>
    <rc><c>H </c><c>   1</c></rc>
    <rc><c>H </c><c>   1</c></rc>
    <rc><c>H </c><c>   1</c></rc>
    <rc><c>H </c><c>   1</c></rc>
    <rc><c>H </c><c>   1</c></rc>
    <rc><c>H </c><c>   1</c></rc>
    <rc><c>H </c><c>   1</c></rc>
    <rc><c>H </c><c>   1</c></rc>
    <rc><c>H </c><c>   1</c></rc>
    <rc><c>H </c><c>   1</c></rc>
    <rc><c>H </c><c>   1</c></rc>
    <rc><c>H </c><c>   1</c></rc>
    <rc><c>H </c><c>   1</c></rc>
    <rc><c>H </c><c>   1</c></rc>
    <rc><c>H </c><c>   1</c></rc>
    <rc><c>H </c><c>   1</c></rc>
    <rc><c>H </c><c>   1</c></rc>
    <rc><c>H </c><c>   1</c></rc>
    <rc><c>H </c><c>   1</c></rc>
    <rc><c>H </c><c>   1</c></rc>
    <rc><c>H </c><c>   1</c></rc>
    <rc><c>H </c><c>   1</c></rc>
    <rc><c>H </c><c>   1</c></rc>
    <rc><c>H </c><c>   1</c></rc>
    <rc><c>H </c><c>   1</c></rc>
    <rc><c>H </c><c>   1</c></rc>
    <rc><c>H </c><c>   1</c></rc>
    <rc><c>H </c><c>   1</c></rc>
    <rc><c>H </c><c>   1</c></rc>
    <rc><c>H </c><c>   1</c></rc>
    <rc><c>H </c><c>   1</c></rc>
    <rc><c>H </c><c>   1</c></rc>
    <rc><c>H </c><c>   1</c></rc>
    <rc><c>H </c><c>   1</c></rc>
    <rc><c>H </c><c>   1</c></rc>
    <rc><c>H </c><c>   1</c></rc>
    <rc><c>H </c><c>   1</c></rc>
    <rc><c>H </c><c>   1</c></rc>
    <rc><c>H </c><c>   1</c></rc>
    <rc><c>H </c><c>   1</c></rc>
    <rc><c>H </c><c>   1</c></rc>
    <rc><c>H </c><c>   1</c></rc>
    <rc><c>H </c><c>   1</c></rc>
    <rc><c>H </c><c>   1</c></rc>
    <rc><c>H </c><c>   1</c></rc>
    <rc><c>H </c><c>   1</c></rc>
    <rc><c>H </c><c>   1</c></rc>
    <rc><c>H </c><c>   1</c></rc>
    <rc><c>H </c><c>   1</c></rc>
    <rc><c>H </c><c>   1</c></rc>
    <rc><c>H </c><c>   1</c></rc>
    <rc><c>H </c><c>   1</c></rc>
    <rc><c>H </c><c>   1</c></rc>
    <rc><c>H </c><c>   1</c></rc>
    <rc><c>H </c><c>   1</c></rc>
    <rc><c>H </c><c>   1</c></rc>
    <rc><c>H </c><c>   1</c></rc>
    <rc><c>H </c><c>   1</c></rc>
    <rc><c>H </c><c>   1</c></rc>
    <rc><c>H </c><c>   1</c></rc>
    <rc><c>H </c><c>   1</c></rc>
    <rc><c>H </c><c>   1</c></rc>
    <rc><c>H </c><c>   1</c></rc>
    <rc><c>H </c><c>   1</c></rc>
    <rc><c>H </c><c>   1</c></rc>
    <rc><c>H </c><c>   1</c></rc>
    <rc><c>H </c><c>   1</c></rc>
    <rc><c>H </c><c>   1</c></rc>
    <rc><c>H </c><c>   1</c></rc>
    <rc><c>H </c><c>   1</c></rc>
    <rc><c>H </c><c>   1</c></rc>
    <rc><c>H </c><c>   1</c></rc>
    <rc><c>H </c><c>   1</c></rc>
    <rc><c>H </c><c>   1</c></rc>
    <rc><c>H </c><c>   1</c></rc>
    <rc><c>H </c><c>   1</c></rc>
    <rc><c>H </c><c>   1</c></rc>
    <rc><c>H </c><c>   1</c></rc>
    <rc><c>H </c><c>   1</c></rc>
    <rc><c>H </c><c>   1</c></rc>
    <rc><c>H </c><c>   1</c></rc>
    <rc><c>H </c><c>   1</c></rc>
    <rc><c>H </c><c>   1</c></rc>
    <rc><c>H </c><c>   1</c></rc>
    <rc><c>H </c><c>   1</c></rc>
    <rc><c>H </c><c>   1</c></rc>
    <rc><c>H </c><c>   1</c></rc>
    <rc><c>H </c><c>   1</c></rc>
    <rc><c>H </c><c>   1</c></rc>
    <rc><c>H </c><c>   1</c></rc>
    <rc><c>H </c><c>   1</c></rc>
    <rc><c>H </c><c>   1</c></rc>
    <rc><c>H </c><c>   1</c></rc>
    <rc><c>H </c><c>   1</c></rc>
    <rc><c>H </c><c>   1</c></rc>
    <rc><c>H </c><c>   1</c></rc>
    <rc><c>H </c><c>   1</c></rc>
    <rc><c>H </c><c>   1</c></rc>
    <rc><c>H </c><c>   1</c></rc>
    <rc><c>H </c><c>   1</c></rc>
    <rc><c>H </c><c>   1</c></rc>
    <rc><c>H </c><c>   1</c></rc>
    <rc><c>H </c><c>   1</c></rc>
    <rc><c>H </c><c>   1</c></rc>
    <rc><c>H </c><c>   1</c></rc>
    <rc><c>H </c><c>   1</c></rc>
    <rc><c>H </c><c>   1</c></rc>
    <rc><c>H </c><c>   1</c></rc>
    <rc><c>C </c><c>   2</c></rc>
    <rc><c>C </c><c>   2</c></rc>
    <rc><c>C </c><c>   2</c></rc>
    <rc><c>C </c><c>   2</c></rc>
    <rc><c>C </c><c>   2</c></rc>
    <rc><c>C </c><c>   2</c></rc>
    <rc><c>C </c><c>   2</c></rc>
    <rc><c>C </c><c>   2</c></rc>
    <rc><c>C </c><c>   2</c></rc>
    <rc><c>C </c><c>   2</c></rc>
    <rc><c>C </c><c>   2</c></rc>
    <rc><c>C </c><c>   2</c></rc>
    <rc><c>C </c><c>   2</c></rc>
    <rc><c>C </c><c>   2</c></rc>
    <rc><c>C </c><c>   2</c></rc>
    <rc><c>C </c><c>   2</c></rc>
    <rc><c>C </c><c>   2</c></rc>
    <rc><c>C </c><c>   2</c></rc>
    <rc><c>C </c><c>   2</c></rc>
    <rc><c>C </c><c>   2</c></rc>
    <rc><c>C </c><c>   2</c></rc>
    <rc><c>C </c><c>   2</c></rc>
    <rc><c>C </c><c>   2</c></rc>
    <rc><c>C </c><c>   2</c></rc>
    <rc><c>C </c><c>   2</c></rc>
    <rc><c>C </c><c>   2</c></rc>
    <rc><c>C </c><c>   2</c></rc>
    <rc><c>C </c><c>   2</c></rc>
    <rc><c>C </c><c>   2</c></rc>
    <rc><c>C </c><c>   2</c></rc>
    <rc><c>C </c><c>   2</c></rc>
    <rc><c>C </c><c>   2</c></rc>
    <rc><c>C </c><c>   2</c></rc>
    <rc><c>C </c><c>   2</c></rc>
    <rc><c>C </c><c>   2</c></rc>
    <rc><c>C </c><c>   2</c></rc>
    <rc><c>C </c><c>   2</c></rc>
    <rc><c>C </c><c>   2</c></rc>
    <rc><c>C </c><c>   2</c></rc>
    <rc><c>N </c><c>   3</c></rc>
    <rc><c>N </c><c>   3</c></rc>
    <rc><c>N </c><c>   3</c></rc>
    <rc><c>N </c><c>   3</c></rc>
    <rc><c>N </c><c>   3</c></rc>
    <rc><c>N </c><c>   3</c></rc>
    <rc><c>N </c><c>   3</c></rc>
    <rc><c>N </c><c>   3</c></rc>
    <rc><c>N </c><c>   3</c></rc>
    <rc><c>N </c><c>   3</c></rc>
    <rc><c>N </c><c>   3</c></rc>
    <rc><c>N </c><c>   3</c></rc>
    <rc><c>N </c><c>   3</c></rc>
    <rc><c>N </c><c>   3</c></rc>
    <rc><c>N </c><c>   3</c></rc>
    <rc><c>N </c><c>   3</c></rc>
    <rc><c>N </c><c>   3</c></rc>
    <rc><c>N </c><c>   3</c></rc>
    <rc><c>N </c><c>   3</c></rc>
    <rc><c>N </c><c>   3</c></rc>
    <rc><c>N </c><c>   3</c></rc>
    <rc><c>N </c><c>   3</c></rc>
    <rc><c>N </c><c>   3</c></rc>
    <rc><c>N </c><c>   3</c></rc>
    <rc><c>N </c><c>   3</c></rc>
    <rc><c>N </c><c>   3</c></rc>
    <rc><c>N </c><c>   3</c></rc>
    <rc><c>N </c><c>   3</c></rc>
    <rc><c>N </c><c>   3</c></rc>
    <rc><c>N </c><c>   3</c></rc>
    <rc><c>N </c><c>   3</c></rc>
    <rc><c>N </c><c>   3</c></rc>
    <rc><c>N </c><c>   3</c></rc>
    <rc><c>N </c><c>   3</c></rc>
    <rc><c>N </c><c>   3</c></rc>
    <rc><c>N </c><c>   3</c></rc>
    <rc><c>N </c><c>   3</c></rc>
    <rc><c>N </c><c>   3</c></rc>
    <rc><c>N </c><c>   3</c></rc>
    <rc><c>N </c><c>   3</c></rc>
    <rc><c>N </c><c>   3</c></rc>
    <rc><c>N </c><c>   3</c></rc>
    <rc><c>N </c><c>   3</c></rc>
    <rc><c>N </c><c>   3</c></rc>
    <rc><c>N </c><c>   3</c></rc>
    <rc><c>N </c><c>   3</c></rc>
    <rc><c>N </c><c>   3</c></rc>
    <rc><c>I </c><c>   4</c></rc>
    <rc><c>I </c><c>   4</c></rc>
    <rc><c>I </c><c>   4</c></rc>
    <rc><c>I </c><c>   4</c></rc>
    <rc><c>I </c><c>   4</c></rc>
    <rc><c>I </c><c>   4</c></rc>
    <rc><c>I </c><c>   4</c></rc>
    <rc><c>I </c><c>   4</c></rc>
    <rc><c>I </c><c>   4</c></rc>
    <rc><c>I </c><c>   4</c></rc>
    <rc><c>I </c><c>   4</c></rc>
    <rc><c>I </c><c>   4</c></rc>
    <rc><c>I </c><c>   4</c></rc>
    <rc><c>I </c><c>   4</c></rc>
    <rc><c>I </c><c>   4</c></rc>
    <rc><c>I </c><c>   4</c></rc>
    <rc><c>I </c><c>   4</c></rc>
    <rc><c>I </c><c>   4</c></rc>
    <rc><c>I </c><c>   4</c></rc>
    <rc><c>I </c><c>   4</c></rc>
    <rc><c>I </c><c>   4</c></rc>
    <rc><c>I </c><c>   4</c></rc>
    <rc><c>I </c><c>   4</c></rc>
    <rc><c>I </c><c>   4</c></rc>
    <rc><c>I </c><c>   4</c></rc>
    <rc><c>I </c><c>   4</c></rc>
    <rc><c>I </c><c>   4</c></rc>
    <rc><c>I </c><c>   4</c></rc>
    <rc><c>I </c><c>   4</c></rc>
    <rc><c>I </c><c>   4</c></rc>
    <rc><c>I </c><c>   4</c></rc>
    <rc><c>I </c><c>   4</c></rc>
    <rc><c>I </c><c>   4</c></rc>
    <rc><c>I </c><c>   4</c></rc>
    <rc><c>I </c><c>   4</c></rc>
    <rc><c>I </c><c>   4</c></rc>
    <rc><c>I </c><c>   4</c></rc>
    <rc><c>I </c><c>   4</c></rc>
    <rc><c>I </c><c>   4</c></rc>
    <rc><c>I </c><c>   4</c></rc>
    <rc><c>I </c><c>   4</c></rc>
    <rc><c>I </c><c>   4</c></rc>
    <rc><c>I </c><c>   4</c></rc>
    <rc><c>I </c><c>   4</c></rc>
    <rc><c>I </c><c>   4</c></rc>
    <rc><c>I </c><c>   4</c></rc>
    <rc><c>I </c><c>   4</c></rc>
    <rc><c>I </c><c>   4</c></rc>
    <rc><c>I </c><c>   4</c></rc>
    <rc><c>I </c><c>   4</c></rc>
    <rc><c>I </c><c>   4</c></rc>
    <rc><c>I </c><c>   4</c></rc>
    <rc><c>I </c><c>   4</c></rc>
    <rc><c>I </c><c>   4</c></rc>
    <rc><c>I </c><c>   4</c></rc>
    <rc><c>I </c><c>   4</c></rc>
    <rc><c>I </c><c>   4</c></rc>
    <rc><c>I </c><c>   4</c></rc>
    <rc><c>I </c><c>   4</c></rc>
    <rc><c>I </c><c>   4</c></rc>
    <rc><c>I </c><c>   4</c></rc>
    <rc><c>I </c><c>   4</c></rc>
    <rc><c>I </c><c>   4</c></rc>
    <rc><c>I </c><c>   4</c></rc>
    <rc><c>I </c><c>   4</c></rc>
    <rc><c>I </c><c>   4</c></rc>
    <rc><c>I </c><c>   4</c></rc>
    <rc><c>I </c><c>   4</c></rc>
    <rc><c>I </c><c>   4</c></rc>
    <rc><c>I </c><c>   4</c></rc>
    <rc><c>I </c><c>   4</c></rc>
    <rc><c>I </c><c>   4</c></rc>
    <rc><c>Pb</c><c>   5</c></rc>
    <rc><c>Pb</c><c>   5</c></rc>
    <rc><c>Pb</c><c>   5</c></rc>
    <rc><c>Pb</c><c>   5</c></rc>
    <rc><c>Pb</c><c>   5</c></rc>
    <rc><c>Pb</c><c>   5</c></rc>
    <rc><c>Pb</c><c>   5</c></rc>
    <rc><c>Pb</c><c>   5</c></rc>
    <rc><c>Pb</c><c>   5</c></rc>
    <rc><c>Pb</c><c>   5</c></rc>
    <rc><c>Pb</c><c>   5</c></rc>
    <rc><c>Pb</c><c>   5</c></rc>
    <rc><c>Pb</c><c>   5</c></rc>
    <rc><c>Pb</c><c>   5</c></rc>
    <rc><c>Pb</c><c>   5</c></rc>
    <rc><c>Pb</c><c>   5</c></rc>
    <rc><c>Pb</c><c>   5</c></rc>
    <rc><c>Pb</c><c>   5</c></rc>
    <rc><c>Pb</c><c>   5</c></rc>
    <rc><c>Pb</c><c>   5</c></rc>
    <rc><c>Pb</c><c>   5</c></rc>
    <rc><c>Pb</c><c>   5</c></rc>
    <rc><c>Pb</c><c>   5</c></rc>
    <rc><c>Pb</c><c>   5</c></rc>
   </set>
  </array>
  <array name="atomtypes" >
   <dimension dim="1">type</dimension>
   <field type="int">atomspertype</field>
   <field type="string">element</field>
   <field>mass</field>
   <field>valence</field>
   <field type="string">pseudopotential</field>
   <set>
    <rc><c> 143</c><c>H </c><c>      1.00000000</c><c>      1.00000000</c><c>  PAW_PBE H 15Jun2001                   </c></rc>
    <rc><c>  39</c><c>C </c><c>     12.01100000</c><c>      4.00000000</c><c>  PAW_PBE C 08Apr2002                   </c></rc>
    <rc><c>  47</c><c>N </c><c>     14.00100000</c><c>      5.00000000</c><c>  PAW_PBE N 08Apr2002                   </c></rc>
    <rc><c>  72</c><c>I </c><c>    126.90400000</c><c>      7.00000000</c><c>  PAW_PBE I 08Apr2002                   </c></rc>
    <rc><c>  24</c><c>Pb</c><c>    207.20000000</c><c>      4.00000000</c><c>  PAW_PBE Pb 08Apr2002                  </c></rc>
   </set>
  </array>
 </atominfo>
 <structure name="initialpos" >
  <crystal>
   <varray name="basis" >
    <v>      18.06080055       0.00000000       0.00000000 </v>
    <v>      -0.00491865      18.06279945       0.00000000 </v>
    <v>       0.00000000       0.00000000      62.48749924 </v>
   </varray>
   <i name="volume">  20385.21054034 </i>
   <varray name="rec_basis" >
    <v>       0.05536853       0.00001508      -0.00000000 </v>
    <v>       0.00000000       0.05536240       0.00000000 </v>
    <v>       0.00000000      -0.00000000       0.01600320 </v>
   </varray>
  </crystal>
  <varray name="positions" >
   <v>       0.47223203       0.33829484       0.56685038 </v>
   <v>       0.44380536       0.82946432       0.57440004 </v>
   <v>       0.92274085       0.25997863       0.57953114 </v>
   <v>       0.93878010       0.81937341       0.57369684 </v>
   <v>       0.31915919       0.07777752       0.56951900 </v>
   <v>       0.35012083       0.54822780       0.56094453 </v>
   <v>       0.80185106       0.09330064       0.56860506 </v>
   <v>       0.10625559       0.24805124       0.55703781 </v>
   <v>       0.07724447       0.67379488       0.57568918 </v>
   <v>       0.54492945       0.15090925       0.56096266 </v>
   <v>       0.50219894       0.64484770       0.55905237 </v>
   <v>       0.37126867       0.01354390       0.55527677 </v>
   <v>       0.29761025       0.62757319       0.55427883 </v>
   <v>       0.87476487       0.03525682       0.55937574 </v>
   <v>       0.05782033       0.26184448       0.58057865 </v>
   <v>       0.99077671       0.69687762       0.58615416 </v>
   <v>       0.57336586       0.24055399       0.56859902 </v>
   <v>       0.45032485       0.69237271       0.57807772 </v>
   <v>       0.27444905       0.43782083       0.57268730 </v>
   <v>       0.18363244       0.05989144       0.57195778 </v>
   <v>       0.67958455       0.03064797       0.57380263 </v>
   <v>       0.38580637       0.30567903       0.55768228 </v>
   <v>       0.50056916       0.87072641       0.55517171 </v>
   <v>       0.87838072       0.24047044       0.55573817 </v>
   <v>       0.98942484       0.86673342       0.55465177 </v>
   <v>       0.17911168       0.44323582       0.56760419 </v>
   <v>       0.14606380       0.98484050       0.55863847 </v>
   <v>       0.67547969       0.93676341       0.56575274 </v>
   <v>       0.42737838       0.18697588       0.55175733 </v>
   <v>       0.54483802       0.75654240       0.54283129 </v>
   <v>       0.99448346       0.23132060       0.53715950 </v>
   <v>       0.08307030       0.77660648       0.55351049 </v>
   <v>       0.18491901       0.56373285       0.55564556 </v>
   <v>       0.26367542       0.94218174       0.54701340 </v>
   <v>       0.79680671       0.93285492       0.55597717 </v>
   <v>       0.45289230       0.30393196       0.67327614 </v>
   <v>       0.44582157       0.80838589       0.67288129 </v>
   <v>       0.94225232       0.27780295       0.67476454 </v>
   <v>       0.92333907       0.72907023       0.67086575 </v>
   <v>       0.30569743       0.05075918       0.67224060 </v>
   <v>       0.29544964       0.55488015       0.67519456 </v>
   <v>       0.80281667       0.05391845       0.67477321 </v>
   <v>       0.84177574       0.47070836       0.66349721 </v>
   <v>       0.09161442       0.17327571       0.64894022 </v>
   <v>       0.11387731       0.71987577       0.65181482 </v>
   <v>       0.58020870       0.16931026       0.64963830 </v>
   <v>       0.56991178       0.66828608       0.65013626 </v>
   <v>       0.18529966       0.41225922       0.64808568 </v>
   <v>       0.16640502       0.92875776       0.64774650 </v>
   <v>       0.64170100       0.47498793       0.65697821 </v>
   <v>       0.67564455       0.92009907       0.65025866 </v>
   <v>       0.05276339       0.18729788       0.67419307 </v>
   <v>       0.05200435       0.67357556       0.66838252 </v>
   <v>       0.55478518       0.20345509       0.67441645 </v>
   <v>       0.53936320       0.69956228       0.67485538 </v>
   <v>       0.20175337       0.44559382       0.67374242 </v>
   <v>       0.19772869       0.95512834       0.67298403 </v>
   <v>       0.71491602       0.41914114       0.66611120 </v>
   <v>       0.70291333       0.95198182       0.67546115 </v>
   <v>       0.41942680       0.32425733       0.64781964 </v>
   <v>       0.42361378       0.83567106       0.64686870 </v>
   <v>       0.92184967       0.31758964       0.64991869 </v>
   <v>       0.90803687       0.80851165       0.65579621 </v>
   <v>       0.33436363       0.07584150       0.64664264 </v>
   <v>       0.32647859       0.58415151       0.65037044 </v>
   <v>       0.83035241       0.08071906       0.64902929 </v>
   <v>       0.85039106       0.55619186       0.65074643 </v>
   <v>       0.01281005       0.25601490       0.63201569 </v>
   <v>       0.02881852       0.81011866       0.64207441 </v>
   <v>       0.49822232       0.24083350       0.63070861 </v>
   <v>       0.49953153       0.74977828       0.63076941 </v>
   <v>       0.24863538       0.00100663       0.62956550 </v>
   <v>       0.26303157       0.49567254       0.63156205 </v>
   <v>       0.75331225       0.99810195       0.63197339 </v>
   <v>       0.72298019       0.56847962       0.64562608 </v>
   <v>       0.44874502       0.30128397       0.76888902 </v>
   <v>       0.44874501       0.80128391       0.76888902 </v>
   <v>       0.94874497       0.30128397       0.76888902 </v>
   <v>       0.94874501       0.80128391       0.76888902 </v>
   <v>       0.30127600       0.05129450       0.76887296 </v>
   <v>       0.30127601       0.55129450       0.76887296 </v>
   <v>       0.80127594       0.05129450       0.76887296 </v>
   <v>       0.80127598       0.55129450       0.76887296 </v>
   <v>       0.07877100       0.17118050       0.74344197 </v>
   <v>       0.07877101       0.67118045       0.74344197 </v>
   <v>       0.57877100       0.17118050       0.74344197 </v>
   <v>       0.57877099       0.67118045       0.74344197 </v>
   <v>       0.17119950       0.42117448       0.74342103 </v>
   <v>       0.17119950       0.92117451       0.74342103 </v>
   <v>       0.67119951       0.42117448       0.74342103 </v>
   <v>       0.67119950       0.92117451       0.74342103 </v>
   <v>       0.05125600       0.19871499       0.76888902 </v>
   <v>       0.05125600       0.69871493       0.76888902 </v>
   <v>       0.55125603       0.19871499       0.76888902 </v>
   <v>       0.55125602       0.69871493       0.76888902 </v>
   <v>       0.19872349       0.44870397       0.76887205 </v>
   <v>       0.19872349       0.94870397       0.76887205 </v>
   <v>       0.69872352       0.44870397       0.76887205 </v>
   <v>       0.69872351       0.94870397       0.76887205 </v>
   <v>       0.42123152       0.32881747       0.74344197 </v>
   <v>       0.42123151       0.82881744       0.74344197 </v>
   <v>       0.92123147       0.32881747       0.74344197 </v>
   <v>       0.92123151       0.82881744       0.74344197 </v>
   <v>       0.32880050       0.07882500       0.74342103 </v>
   <v>       0.32880049       0.57882496       0.74342103 </v>
   <v>       0.82880048       0.07882500       0.74342103 </v>
   <v>       0.82880052       0.57882496       0.74342103 </v>
   <v>       0.00000350       0.25000148       0.72582199 </v>
   <v>       0.00000350       0.75000145       0.72582199 </v>
   <v>       0.50000351       0.25000148       0.72582199 </v>
   <v>       0.50000350       0.75000145       0.72582199 </v>
   <v>       0.25000050       0.00000000       0.72580398 </v>
   <v>       0.25000052       0.50000000       0.72580398 </v>
   <v>       0.75000050       0.00000000       0.72580398 </v>
   <v>       0.75000049       0.50000000       0.72580398 </v>
   <v>       0.72041906       0.44265407       0.54056582 </v>
   <v>       0.73760888       0.49361760       0.51706228 </v>
   <v>       0.66028551       0.55173895       0.55768802 </v>
   <v>       0.70764616       0.63736553       0.55604548 </v>
   <v>       0.85101351       0.50774769       0.56811668 </v>
   <v>       0.78945575       0.57650487       0.57792406 </v>
   <v>       0.87467295       0.56228350       0.53105690 </v>
   <v>       0.80279142       0.62372397       0.52256997 </v>
   <v>       0.87200961       0.46251236       0.51857442 </v>
   <v>       0.86276088       0.42223756       0.54405028 </v>
   <v>       0.87296288       0.32621412       0.51864133 </v>
   <v>       0.78391853       0.32297081       0.53001201 </v>
   <v>       0.63631919       0.55036183       0.51853065 </v>
   <v>       0.69013022       0.63312492       0.51512464 </v>
   <v>       0.60851227       0.63471967       0.53043306 </v>
   <v>       0.75613267       0.46703602       0.59622869 </v>
   <v>       0.75407827       0.41127856       0.57299669 </v>
   <v>       0.68470440       0.47880537       0.57794067 </v>
   <v>       0.81753316       0.69117552       0.55846534 </v>
   <v>       0.89796635       0.68990536       0.54284875 </v>
   <v>       0.89096586       0.62823812       0.56480987 </v>
   <v>       0.82080608       0.38131575       0.48480247 </v>
   <v>       0.78623274       0.29326471       0.49154173 </v>
   <v>       0.66322316       0.30423987       0.51818824 </v>
   <v>       0.73262626       0.46253919       0.47091957 </v>
   <v>       0.53658434       0.35612016       0.51721325 </v>
   <v>       0.60484570       0.51374065       0.46961004 </v>
   <v>       0.50679061       0.46211807       0.49326113 </v>
   <v>       0.99310876       0.24290475       0.55435899 </v>
   <v>       0.03427069       0.76790183       0.56356273 </v>
   <v>       0.46574030       0.22852504       0.55798654 </v>
   <v>       0.50459459       0.75749846       0.55582412 </v>
   <v>       0.23635265       0.53548132       0.55986076 </v>
   <v>       0.25894992       0.99383886       0.55601325 </v>
   <v>       0.77499921       0.98516851       0.56196762 </v>
   <v>       0.00692837       0.24554694       0.64923600 </v>
   <v>       0.01186171       0.76660163       0.65318320 </v>
   <v>       0.50033425       0.24684317       0.64817560 </v>
   <v>       0.49643339       0.75152636       0.64831919 </v>
   <v>       0.25679353       0.49737395       0.64897532 </v>
   <v>       0.25010927       0.00191474       0.64706472 </v>
   <v>       0.74520252       0.51830750       0.65328722 </v>
   <v>       0.75299202       0.99995354       0.64947811 </v>
   <v>       0.49998898       0.24999498       0.74327702 </v>
   <v>       0.49998903       0.74999496       0.74327702 </v>
   <v>       0.99998898       0.24999498       0.74327702 </v>
   <v>       0.99998903       0.74999496       0.74327702 </v>
   <v>       0.25000050       0.00000100       0.74325596 </v>
   <v>       0.25000052       0.50000100       0.74325596 </v>
   <v>       0.75000050       0.00000100       0.74325596 </v>
   <v>       0.75000049       0.50000100       0.74325596 </v>
   <v>       0.70708087       0.38038350       0.49465509 </v>
   <v>       0.65078904       0.35021236       0.50730874 </v>
   <v>       0.68922470       0.43903695       0.48096000 </v>
   <v>       0.57905856       0.37975265       0.50688636 </v>
   <v>       0.61797742       0.46800063       0.48020090 </v>
   <v>       0.56208498       0.43876784       0.49345301 </v>
   <v>       0.76223009       0.47648327       0.53235990 </v>
   <v>       0.69619117       0.58559014       0.54745490 </v>
   <v>       0.79271208       0.52507315       0.56874034 </v>
   <v>       0.82877217       0.59725738       0.53644366 </v>
   <v>       0.83322219       0.43167996       0.52885492 </v>
   <v>       0.81906255       0.35491416       0.51902343 </v>
   <v>       0.65696592       0.60063269       0.52642872 </v>
   <v>       0.74417922       0.46724805       0.57906620 </v>
   <v>       0.85974900       0.65425905       0.55179170 </v>
   <v>       0.78548419       0.35180516       0.49635569 </v>
   <v>       0.05581553       0.24958461       0.56462917 </v>
   <v>       0.03287924       0.70869443       0.57556556 </v>
   <v>       0.53349144       0.20630882       0.56221432 </v>
   <v>       0.48418925       0.69489997       0.56477403 </v>
   <v>       0.44108347       0.29648484       0.56016947 </v>
   <v>       0.47896275       0.82304649       0.56159078 </v>
   <v>       0.92773154       0.24875957       0.56349967 </v>
   <v>       0.98070955       0.81726367       0.56241083 </v>
   <v>       0.23111340       0.46625218       0.56605688 </v>
   <v>       0.19263958       0.01475155       0.56215644 </v>
   <v>       0.70442793       0.98606796       0.56684983 </v>
   <v>       0.31942884       0.03145982       0.56005385 </v>
   <v>       0.29898969       0.57212362       0.55799979 </v>
   <v>       0.82033719       0.04144350       0.56402364 </v>
   <v>       0.05269931       0.19871087       0.65815972 </v>
   <v>       0.06095843       0.71584477       0.65788042 </v>
   <v>       0.54792017       0.20494520       0.65823541 </v>
   <v>       0.53711845       0.70317390       0.65874547 </v>
   <v>       0.21298842       0.44829848       0.65780253 </v>
   <v>       0.20209510       0.96004693       0.65688425 </v>
   <v>       0.69770867       0.46727155       0.65914899 </v>
   <v>       0.70854845       0.95442187       0.65934312 </v>
   <v>       0.45504432       0.29487010       0.65722496 </v>
   <v>       0.45266514       0.80147409       0.65682870 </v>
   <v>       0.95437066       0.28248944       0.65889784 </v>
   <v>       0.94390992       0.76871275       0.66074519 </v>
   <v>       0.30000121       0.04516832       0.65617189 </v>
   <v>       0.29551301       0.54860176       0.65906377 </v>
   <v>       0.79768671       0.04833249       0.65865554 </v>
   <v>       0.81719387       0.51444329       0.65618386 </v>
   <v>       0.04586250       0.20411950       0.75272599 </v>
   <v>       0.04586250       0.70411946       0.75272599 </v>
   <v>       0.54586251       0.20411950       0.75272599 </v>
   <v>       0.54586250       0.70411946       0.75272599 </v>
   <v>       0.20411900       0.45410100       0.75270499 </v>
   <v>       0.20411899       0.95410095       0.75270499 </v>
   <v>       0.70411898       0.45410100       0.75270499 </v>
   <v>       0.70411896       0.95410095       0.75270499 </v>
   <v>       0.45414002       0.29588849       0.75272697 </v>
   <v>       0.45414001       0.79588852       0.75272697 </v>
   <v>       0.95414002       0.29588849       0.75272697 </v>
[...]
   <v>       0.54492945       0.15090925       0.56096266 </v>
   <v>       0.50219894       0.64484770       0.55905237 </v>
   <v>       0.37126867       0.01354390       0.55527677 </v>
   <v>       0.29761025       0.62757319       0.55427883 </v>
   <v>       0.87476487       0.03525682       0.55937574 </v>
   <v>       0.05782033       0.26184448       0.58057865 </v>
   <v>       0.99077671       0.69687762       0.58615416 </v>
   <v>       0.57336586       0.24055399       0.56859902 </v>
   <v>       0.45032485       0.69237271       0.57807772 </v>
   <v>       0.27444905       0.43782083       0.57268730 </v>
   <v>       0.18363244       0.05989144       0.57195778 </v>
   <v>       0.67958455       0.03064797       0.57380263 </v>
   <v>       0.38580637       0.30567903       0.55768228 </v>
   <v>       0.50056916       0.87072641       0.55517171 </v>
   <v>       0.87838072       0.24047044       0.55573817 </v>
   <v>       0.98942484       0.86673342       0.55465177 </v>
   <v>       0.17911168       0.44323582       0.56760419 </v>
   <v>       0.14606380       0.98484050       0.55863847 </v>
   <v>       0.67547969       0.93676341       0.56575274 </v>
   <v>       0.42737838       0.18697588       0.55175733 </v>
   <v>       0.54483802       0.75654240       0.54283129 </v>
   <v>       0.99448346       0.23132060       0.53715950 </v>
   <v>       0.08307030       0.77660648       0.55351049 </v>
   <v>       0.18491901       0.56373285       0.55564556 </v>
   <v>       0.26367542       0.94218174       0.54701340 </v>
   <v>       0.79680671       0.93285492       0.55597717 </v>
   <v>       0.45289230       0.30393196       0.67327614 </v>
   <v>       0.44582157       0.80838589       0.67288129 </v>
   <v>       0.94225232       0.27780295       0.67476454 </v>
   <v>       0.92333907       0.72907023       0.67086575 </v>
   <v>       0.30569743       0.05075918       0.67224060 </v>
   <v>       0.29544964       0.55488015       0.67519456 </v>
   <v>       0.80281667       0.05391845       0.67477321 </v>
   <v>       0.84177574       0.47070836       0.66349721 </v>
   <v>       0.09161442       0.17327571       0.64894022 </v>
   <v>       0.11387731       0.71987577       0.65181482 </v>
   <v>       0.58020870       0.16931026       0.64963830 </v>
   <v>       0.56991178       0.66828608       0.65013626 </v>
   <v>       0.18529966       0.41225922       0.64808568 </v>
   <v>       0.16640502       0.92875776       0.64774650 </v>
   <v>       0.64170100       0.47498793       0.65697821 </v>
   <v>       0.67564455       0.92009907       0.65025866 </v>
   <v>       0.05276339       0.18729788       0.67419307 </v>
   <v>       0.05200435       0.67357556       0.66838252 </v>
   <v>       0.55478518       0.20345509       0.67441645 </v>
   <v>       0.53936320       0.69956228       0.67485538 </v>
   <v>       0.20175337       0.44559382       0.67374242 </v>
   <v>       0.19772869       0.95512834       0.67298403 </v>
   <v>       0.71491602       0.41914114       0.66611120 </v>
   <v>       0.70291333       0.95198182       0.67546115 </v>
   <v>       0.41942680       0.32425733       0.64781964 </v>
   <v>       0.42361378       0.83567106       0.64686870 </v>
   <v>       0.92184967       0.31758964       0.64991869 </v>
   <v>       0.90803687       0.80851165       0.65579621 </v>
   <v>       0.33436363       0.07584150       0.64664264 </v>
   <v>       0.32647859       0.58415151       0.65037044 </v>
   <v>       0.83035241       0.08071906       0.64902929 </v>
   <v>       0.85039106       0.55619186       0.65074643 </v>
   <v>       0.01281005       0.25601490       0.63201569 </v>
   <v>       0.02881852       0.81011866       0.64207441 </v>
   <v>       0.49822232       0.24083350       0.63070861 </v>
   <v>       0.49953153       0.74977828       0.63076941 </v>
   <v>       0.24863538       0.00100663       0.62956550 </v>
   <v>       0.26303157       0.49567254       0.63156205 </v>
   <v>       0.75331225       0.99810195       0.63197339 </v>
   <v>       0.72298019       0.56847962       0.64562608 </v>
   <v>       0.44874502       0.30128397       0.76888902 </v>
   <v>       0.44874501       0.80128391       0.76888902 </v>
   <v>       0.94874497       0.30128397       0.76888902 </v>
   <v>       0.94874501       0.80128391       0.76888902 </v>
   <v>       0.30127600       0.05129450       0.76887296 </v>
   <v>       0.30127601       0.55129450       0.76887296 </v>
   <v>       0.80127594       0.05129450       0.76887296 </v>
   <v>       0.80127598       0.55129450       0.76887296 </v>
   <v>       0.07877100       0.17118050       0.74344197 </v>
   <v>       0.07877101       0.67118045       0.74344197 </v>
   <v>       0.57877100       0.17118050       0.74344197 </v>
   <v>       0.57877099       0.67118045       0.74344197 </v>
   <v>       0.17119950       0.42117448       0.74342103 </v>
   <v>       0.17119950       0.92117451       0.74342103 </v>
   <v>       0.67119951       0.42117448       0.74342103 </v>
   <v>       0.67119950       0.92117451       0.74342103 </v>
   <v>       0.05125600       0.19871499       0.76888902 </v>
   <v>       0.05125600       0.69871493       0.76888902 </v>
   <v>       0.55125603       0.19871499       0.76888902 </v>
   <v>       0.55125602       0.69871493       0.76888902 </v>
   <v>       0.19872349       0.44870397       0.76887205 </v>
   <v>       0.19872349       0.94870397       0.76887205 </v>
   <v>       0.69872352       0.44870397       0.76887205 </v>
   <v>       0.69872351       0.94870397       0.76887205 </v>
   <v>       0.42123152       0.32881747       0.74344197 </v>
   <v>       0.42123151       0.82881744       0.74344197 </v>
   <v>       0.92123147       0.32881747       0.74344197 </v>
   <v>       0.92123151       0.82881744       0.74344197 </v>
   <v>       0.32880050       0.07882500       0.74342103 </v>
   <v>       0.32880049       0.57882496       0.74342103 </v>
   <v>       0.82880048       0.07882500       0.74342103 </v>
   <v>       0.82880052       0.57882496       0.74342103 </v>
   <v>       0.00000350       0.25000148       0.72582199 </v>
   <v>       0.00000350       0.75000145       0.72582199 </v>
   <v>       0.50000351       0.25000148       0.72582199 </v>
   <v>       0.50000350       0.75000145       0.72582199 </v>
   <v>       0.25000050       0.00000000       0.72580398 </v>
   <v>       0.25000052       0.50000000       0.72580398 </v>
   <v>       0.75000050       0.00000000       0.72580398 </v>
   <v>       0.75000049       0.50000000       0.72580398 </v>
   <v>       0.72041906       0.44265407       0.54056582 </v>
   <v>       0.73760888       0.49361760       0.51706228 </v>
   <v>       0.66028551       0.55173895       0.55768802 </v>
   <v>       0.70764616       0.63736553       0.55604548 </v>
   <v>       0.85101351       0.50774769       0.56811668 </v>
   <v>       0.78945575       0.57650487       0.57792406 </v>
   <v>       0.87467295       0.56228350       0.53105690 </v>
   <v>       0.80279142       0.62372397       0.52256997 </v>
   <v>       0.87200961       0.46251236       0.51857442 </v>
   <v>       0.86276088       0.42223756       0.54405028 </v>
   <v>       0.87296288       0.32621412       0.51864133 </v>
   <v>       0.78391853       0.32297081       0.53001201 </v>
   <v>       0.63631919       0.55036183       0.51853065 </v>
   <v>       0.69013022       0.63312492       0.51512464 </v>
   <v>       0.60851227       0.63471967       0.53043306 </v>
   <v>       0.75613267       0.46703602       0.59622869 </v>
   <v>       0.75407827       0.41127856       0.57299669 </v>
   <v>       0.68470440       0.47880537       0.57794067 </v>
   <v>       0.81753316       0.69117552       0.55846534 </v>
   <v>       0.89796635       0.68990536       0.54284875 </v>
   <v>       0.89096586       0.62823812       0.56480987 </v>
   <v>       0.82080608       0.38131575       0.48480247 </v>
   <v>       0.78623274       0.29326471       0.49154173 </v>
   <v>       0.66322316       0.30423987       0.51818824 </v>
   <v>       0.73262626       0.46253919       0.47091957 </v>
   <v>       0.53658434       0.35612016       0.51721325 </v>
   <v>       0.60484570       0.51374065       0.46961004 </v>
   <v>       0.50679061       0.46211807       0.49326113 </v>
   <v>       0.99310876       0.24290475       0.55435899 </v>
   <v>       0.03427069       0.76790183       0.56356273 </v>
   <v>       0.46574030       0.22852504       0.55798654 </v>
   <v>       0.50459459       0.75749846       0.55582412 </v>
   <v>       0.23635265       0.53548132       0.55986076 </v>
   <v>       0.25894992       0.99383886       0.55601325 </v>
   <v>       0.77499921       0.98516851       0.56196762 </v>
   <v>       0.00692837       0.24554694       0.64923600 </v>
   <v>       0.01186171       0.76660163       0.65318320 </v>
   <v>       0.50033425       0.24684317       0.64817560 </v>
   <v>       0.49643339       0.75152636       0.64831919 </v>
   <v>       0.25679353       0.49737395       0.64897532 </v>
   <v>       0.25010927       0.00191474       0.64706472 </v>
   <v>       0.74520252       0.51830750       0.65328722 </v>
   <v>       0.75299202       0.99995354       0.64947811 </v>
   <v>       0.49998898       0.24999498       0.74327702 </v>
   <v>       0.49998903       0.74999496       0.74327702 </v>
   <v>       0.99998898       0.24999498       0.74327702 </v>
   <v>       0.99998903       0.74999496       0.74327702 </v>
   <v>       0.25000050       0.00000100       0.74325596 </v>
   <v>       0.25000052       0.50000100       0.74325596 </v>
   <v>       0.75000050       0.00000100       0.74325596 </v>
   <v>       0.75000049       0.50000100       0.74325596 </v>
   <v>       0.70708087       0.38038350       0.49465509 </v>
   <v>       0.65078904       0.35021236       0.50730874 </v>
   <v>       0.68922470       0.43903695       0.48096000 </v>
   <v>       0.57905856       0.37975265       0.50688636 </v>
   <v>       0.61797742       0.46800063       0.48020090 </v>
   <v>       0.56208498       0.43876784       0.49345301 </v>
   <v>       0.76223009       0.47648327       0.53235990 </v>
   <v>       0.69619117       0.58559014       0.54745490 </v>
   <v>       0.79271208       0.52507315       0.56874034 </v>
   <v>       0.82877217       0.59725738       0.53644366 </v>
   <v>       0.83322219       0.43167996       0.52885492 </v>
   <v>       0.81906255       0.35491416       0.51902343 </v>
   <v>       0.65696592       0.60063269       0.52642872 </v>
   <v>       0.74417922       0.46724805       0.57906620 </v>
   <v>       0.85974900       0.65425905       0.55179170 </v>
   <v>       0.78548419       0.35180516       0.49635569 </v>
   <v>       0.05581553       0.24958461       0.56462917 </v>
   <v>       0.03287924       0.70869443       0.57556556 </v>
   <v>       0.53349144       0.20630882       0.56221432 </v>
   <v>       0.48418925       0.69489997       0.56477403 </v>
   <v>       0.44108347       0.29648484       0.56016947 </v>
   <v>       0.47896275       0.82304649       0.56159078 </v>
   <v>       0.92773154       0.24875957       0.56349967 </v>
   <v>       0.98070955       0.81726367       0.56241083 </v>
   <v>       0.23111340       0.46625218       0.56605688 </v>
   <v>       0.19263958       0.01475155       0.56215644 </v>
   <v>       0.70442793       0.98606796       0.56684983 </v>
   <v>       0.31942884       0.03145982       0.56005385 </v>
   <v>       0.29898969       0.57212362       0.55799979 </v>
   <v>       0.82033719       0.04144350       0.56402364 </v>
   <v>       0.05269931       0.19871087       0.65815972 </v>
   <v>       0.06095843       0.71584477       0.65788042 </v>
   <v>       0.54792017       0.20494520       0.65823541 </v>
   <v>       0.53711845       0.70317390       0.65874547 </v>
   <v>       0.21298842       0.44829848       0.65780253 </v>
   <v>       0.20209510       0.96004693       0.65688425 </v>
   <v>       0.69770867       0.46727155       0.65914899 </v>
   <v>       0.70854845       0.95442187       0.65934312 </v>
   <v>       0.45504432       0.29487010       0.65722496 </v>
   <v>       0.45266514       0.80147409       0.65682870 </v>
   <v>       0.95437066       0.28248944       0.65889784 </v>
   <v>       0.94390992       0.76871275       0.66074519 </v>
   <v>       0.30000121       0.04516832       0.65617189 </v>
   <v>       0.29551301       0.54860176       0.65906377 </v>
   <v>       0.79768671       0.04833249       0.65865554 </v>
   <v>       0.81719387       0.51444329       0.65618386 </v>
   <v>       0.04586250       0.20411950       0.75272599 </v>
   <v>       0.04586250       0.70411946       0.75272599 </v>
   <v>       0.54586251       0.20411950       0.75272599 </v>
   <v>       0.54586250       0.70411946       0.75272599 </v>
   <v>       0.20411900       0.45410100       0.75270499 </v>
   <v>       0.20411899       0.95410095       0.75270499 </v>
   <v>       0.70411898       0.45410100       0.75270499 </v>
   <v>       0.70411896       0.95410095       0.75270499 </v>
   <v>       0.45414002       0.29588849       0.75272697 </v>
   <v>       0.45414001       0.79588852       0.75272697 </v>
   <v>       0.95414002       0.29588849       0.75272697 </v>
   <v>       0.95414006       0.79588852       0.75272697 </v>
   <v>       0.29588249       0.04590050       0.75270499 </v>
   <v>       0.29588248       0.54590053       0.75270499 </v>
   <v>       0.79588244       0.04590050       0.75270499 </v>
   <v>       0.79588248       0.54590053       0.75270499 </v>
   <v>       0.77036996       0.54605934       0.54596796 </v>
   <v>       0.51191326       0.01274340       0.55216562 </v>
   <v>       0.48523954       0.50094814       0.55405351 </v>
   <v>       0.00503706       0.00903415       0.55093649 </v>
   <v>       0.02801550       0.50264094       0.55485127 </v>
   <v>       0.25164234       0.24496558       0.55276681 </v>
   <v>       0.25081332       0.76579911       0.55283970 </v>
   <v>       0.73436192       0.21108008       0.55585239 </v>
   <v>       0.69922378       0.79617436       0.55509748 </v>
   <v>       0.99534775       0.98447462       0.65415885 </v>
   <v>       0.01508924       0.49520850       0.65544262 </v>
   <v>       0.49810713       0.00378396       0.65459956 </v>
   <v>       0.50192372       0.49590844       0.65467593 </v>
   <v>       0.25560153       0.24573769       0.65439004 </v>
   <v>       0.25462470       0.75474939       0.65431575 </v>
   <v>       0.74718431       0.26574475       0.65515869 </v>
   <v>       0.74609143       0.74190825       0.65473319 </v>
   <v>       0.12912444       0.12276919       0.60734859 </v>
   <v>       0.15375890       0.60514272       0.60812383 </v>
   <v>       0.64030442       0.11348531       0.61101900 </v>
   <v>       0.63075772       0.61978331       0.60836252 </v>
   <v>       0.36351894       0.38776901       0.60653532 </v>
   <v>       0.37193031       0.88317637       0.60632568 </v>
   <v>       0.88786159       0.37015622       0.60866636 </v>
   <v>       0.86740487       0.88186055       0.60603589 </v>
   <v>       0.12289816       0.36429919       0.60819495 </v>
   <v>       0.12300462       0.87520698       0.60670906 </v>
   <v>       0.59685106       0.34768510       0.60088111 </v>
   <v>       0.61546578       0.86726446       0.61329949 </v>
   <v>       0.38669752       0.13288817       0.60627971 </v>
   <v>       0.38556111       0.63388320       0.60997601 </v>
   <v>       0.88303372       0.13655307       0.61232023 </v>
   <v>       0.90056079       0.64181363       0.61443570 </v>
   <v>       0.00000000       0.00000000       0.75492797 </v>
   <v>       0.00000000       0.50000000       0.75492797 </v>
   <v>       0.50000000       0.00000000       0.75492797 </v>
   <v>       0.49999999       0.50000000       0.75492797 </v>
   <v>       0.25000050       0.25000000       0.75493902 </v>
   <v>       0.25000051       0.74999997       0.75493902 </v>
   <v>       0.75000047       0.25000000       0.75493902 </v>
   <v>       0.75000046       0.74999997       0.75493902 </v>
   <v>       0.13579050       0.11421000       0.70478299 </v>
   <v>       0.13579050       0.61420998       0.70478299 </v>
   <v>       0.63579045       0.11421000       0.70478299 </v>
   <v>       0.63579049       0.61420998       0.70478299 </v>
   <v>       0.36420952       0.38578999       0.70478299 </v>
   <v>       0.36420950       0.88578996       0.70478299 </v>
   <v>       0.86420954       0.38578999       0.70478299 </v>
   <v>       0.86420953       0.88578996       0.70478299 </v>
   <v>       0.11421799       0.36421899       0.70478098 </v>
   <v>       0.11421799       0.86421899       0.70478098 </v>
   <v>       0.61421800       0.36421899       0.70478098 </v>
   <v>       0.61421799       0.86421899       0.70478098 </v>
   <v>       0.38578201       0.13578149       0.70478202 </v>
   <v>       0.38578200       0.63578149       0.70478202 </v>
   <v>       0.88578199       0.13578149       0.70478202 </v>
   <v>       0.88578203       0.63578149       0.70478202 </v>
   <v>       0.13466700       0.11533200       0.80125603 </v>
   <v>       0.13466699       0.61533199       0.80125603 </v>
   <v>       0.63466699       0.11533200       0.80125603 </v>
   <v>       0.63466698       0.61533199       0.80125603 </v>
   <v>       0.36533300       0.38466799       0.80125603 </v>
   <v>       0.36533299       0.88466796       0.80125603 </v>
   <v>       0.86533295       0.38466799       0.80125603 </v>
   <v>       0.86533294       0.88466796       0.80125603 </v>
   <v>       0.11532850       0.36533700       0.80126500 </v>
   <v>       0.11532850       0.86533698       0.80126500 </v>
   <v>       0.61532850       0.36533700       0.80126500 </v>
   <v>       0.61532849       0.86533698       0.80126500 </v>
   <v>       0.38467151       0.13466300       0.80126500 </v>
   <v>       0.38467150       0.63466297       0.80126500 </v>
   <v>       0.88467149       0.13466300       0.80126500 </v>
   <v>       0.88467153       0.63466297       0.80126500 </v>
   <v>       0.99741941       0.00422562       0.60454041 </v>
   <v>       0.00779850       0.50315091       0.60462270 </v>
   <v>       0.50411496       0.00166165       0.60470689 </v>
   <v>       0.50174885       0.49924394       0.60409690 </v>
   <v>       0.25340900       0.25043149       0.60399544 </v>
   <v>       0.24942795       0.75198881       0.60314572 </v>
   <v>       0.74652287       0.25327090       0.60519246 </v>
   <v>       0.74280464       0.75673913       0.60405093 </v>
   <v>       0.00000050       0.00000050       0.70482896 </v>
   <v>       0.00000050       0.50000048       0.70482896 </v>
   <v>       0.50000048       0.00000050       0.70482896 </v>
   <v>       0.50000046       0.50000048       0.70482896 </v>
   <v>       0.24999999       0.24999947       0.70482499 </v>
   <v>       0.25000001       0.74999950       0.70482499 </v>
   <v>       0.74999999       0.24999947       0.70482499 </v>
   <v>       0.74999998       0.74999950       0.70482499 </v>
   <v>       0.00000000       0.00000000       0.80731797 </v>
   <v>       0.00000000       0.50000000       0.80731797 </v>
   <v>       0.50000000       0.00000000       0.80731797 </v>
   <v>       0.49999999       0.50000000       0.80731797 </v>
   <v>       0.24999999       0.25000000       0.80731797 </v>
   <v>       0.25000001       0.74999997       0.80731797 </v>
   <v>       0.74999999       0.25000000       0.80731797 </v>
   <v>       0.74999998       0.74999997       0.80731797 </v>
  </varray>
 </structure>
</modeling>
