 vasp.6.2.1 16May21 (build Nov 15 2021 14:57:28) complex                         
 executed on             LinuxPGI date 2023.07.30  22:48:44
 running on    4 total cores
 distrk:  each k-point on    4 cores,    1 groups
 distr:  one band on NCORE=   1 cores,    4 groups


--------------------------------------------------------------------------------------------------------


 INCAR:
   SYSTEM = PSC
   ISTART = 1
   ICHARG = 1
   PREC = Normal
   ENCUT = 500
   GGA_COMPAT = F
   NELM = 600
   ISYM = 0
   LREAL = Auto
   ISMEAR = 0
   SIGMA = 0.05
   AMIN = 0.01
   BMIX = 0.01
   LVTOT = T
   LWAVE = F
   LDIPOL = T
   IDIPOL = 3
   LVDW = T
   IVDW = 12

 POTCAR:    PAW_PBE H 15Jun2001                   
 POTCAR:    PAW_PBE C 08Apr2002                   
 POTCAR:    PAW_PBE N 08Apr2002                   
 POTCAR:    PAW_PBE I 08Apr2002                   
 POTCAR:    PAW_PBE Pb 08Apr2002                  
 WARNING: For LVTOT=.TRUE., VASP.5.x writes the TOTAL local potential to the
     file LOCPOT. If you want only the Hartree contributions, use LVHAR=.TRUE.
     instead. 

 POTCAR:    PAW_PBE H 15Jun2001                   
   SHA256 =  030f79b5d3ab3cf0e668861823c8fb652ff669f3e15e46930bd03bfd63a607b6 H/POTCAR              
   COPYR  = (c) Copyright 15Jun2001 Georg Kresse                                                    
   COPYR  = This file is part of the software VASP. Any use, copying, and all other rights are regul
   COPYR  = If you do not have a valid VASP license, you may not use, copy or distribute this file. 
   VRHFIN =H: ultrasoft test                                                                        
   LEXCH  = PE                                                                                      
   EATOM  =    12.4884 eV,    0.9179 Ry                                                             
                                                                                                    
   TITEL  = PAW_PBE H 15Jun2001                                                                     
   LULTRA =        F    use ultrasoft PP ?                                                          
   IUNSCR =        0    unscreen: 0-lin 1-nonlin 2-no                                               
   RPACOR =    0.000    partial core radius                                                         
   POMASS =    1.000; ZVAL   =    1.000    mass and valenz                                          
   RCORE  =    1.100    outmost cutoff radius                                                       
   RWIGS  =    0.700; RWIGS  =    0.370    wigner-seitz radius (au A)                               
   ENMAX  =  250.000; ENMIN  =  200.000 eV                                                          
   RCLOC  =    0.701    cutoff for local pot                                                        
   LCOR   =        T    correct aug charges                                                         
   LPAW   =        T    paw PP                                                                      
   EAUG   =  400.000                                                                                
   RMAX   =    1.123    core radius for proj-oper                                                   
   RAUG   =    1.200    factor for augmentation sphere                                              
   RDEP   =    1.112    radius for radial grids                                                     
   RDEPT  =    0.926    core radius for aug-charge                                                  
                                                                                                    
   Atomic configuration                                                                             
    2 entries                                                                                       
     n  l   j            E        occ.                                                              
     1  0  0.50        -6.4927   1.0000                                                             
     2  1  0.50        -3.4015   0.0000                                                             
   Description                                                                                      
     l       E           TYP  RCUT    TYP  RCUT                                                     
     0     -6.4927494     23  1.100                                                                 
     0      6.8029130     23  1.100                                                                 
     1     -4.0817478     23  1.100                                                                 
  local pseudopotential read in
  atomic valenz-charges read in
  non local Contribution for L=            0  read in
    real space projection operators read in
  non local Contribution for L=            0  read in
    real space projection operators read in
  non local Contribution for L=            1  read in
    real space projection operators read in
    PAW grid and wavefunctions read in
 
   number of l-projection  operators is LMAX  =            3
   number of lm-projection operators is LMMAX =            5
 
 POTCAR:    PAW_PBE C 08Apr2002                   
   SHA256 =  253f7b50bb8d59471dbedb8285d89021f4a42ed1a2c5d38a03a736e69125dd95 C/POTCAR              
   COPYR  = (c) Copyright 08Apr2002 Georg Kresse                                                    
   COPYR  = This file is part of the software VASP. Any use, copying, and all other rights are regul
   COPYR  = If you do not have a valid VASP license, you may not use, copy or distribute this file. 
   VRHFIN =C: s2p2                                                                                  
   LEXCH  = PE                                                                                      
   EATOM  =   147.1560 eV,   10.8157 Ry                                                             
                                                                                                    
   TITEL  = PAW_PBE C 08Apr2002                                                                     
   LULTRA =        F    use ultrasoft PP ?                                                          
   IUNSCR =        1    unscreen: 0-lin 1-nonlin 2-no                                               
   RPACOR =    1.200    partial core radius                                                         
   POMASS =   12.011; ZVAL   =    4.000    mass and valenz                                          
   RCORE  =    1.500    outmost cutoff radius                                                       
   RWIGS  =    1.630; RWIGS  =    0.863    wigner-seitz radius (au A)                               
   ENMAX  =  400.000; ENMIN  =  300.000 eV                                                          
   ICORE  =        2    local potential                                                             
   LCOR   =        T    correct aug charges                                                         
   LPAW   =        T    paw PP                                                                      
   EAUG   =  644.873                                                                                
   DEXC   =    0.000                                                                                
   RMAX   =    1.529    core radius for proj-oper                                                   
   RAUG   =    1.300    factor for augmentation sphere                                              
   RDEP   =    1.501    radius for radial grids                                                     
   RDEPT  =    1.300    core radius for aug-charge                                                  
                                                                                                    
   Atomic configuration                                                                             
    4 entries                                                                                       
     n  l   j            E        occ.                                                              
     1  0  0.50      -273.3789   2.0000                                                             
     2  0  0.50       -13.7508   2.0000                                                             
     2  1  0.50        -5.2854   2.0000                                                             
     3  2  1.50        -5.4423   0.0000                                                             
   Description                                                                                      
     l       E           TYP  RCUT    TYP  RCUT                                                     
     0    -13.7508458     23  1.200                                                                 
     0     -8.2022199     23  1.200                                                                 
     1     -5.2854383     23  1.500                                                                 
     1     34.0145650     23  1.500                                                                 
     2     -5.4423304      7  1.500                                                                 
  local pseudopotential read in
  partial core-charges read in
  partial kinetic energy density read in
  atomic valenz-charges read in
  non local Contribution for L=            0  read in
    real space projection operators read in
  non local Contribution for L=            0  read in
    real space projection operators read in
  non local Contribution for L=            1  read in
    real space projection operators read in
  non local Contribution for L=            1  read in
    real space projection operators read in
    PAW grid and wavefunctions read in
 
   number of l-projection  operators is LMAX  =            4
   number of lm-projection operators is LMMAX =            8
 
 POTCAR:    PAW_PBE N 08Apr2002                   
   SHA256 =  e053789ff3a61a86a1b75d8a110fcc91f86041011e7b0817c7c99e4e8a6349d7 N/POTCAR              
   COPYR  = (c) Copyright 08Apr2002 Georg Kresse                                                    
   COPYR  = This file is part of the software VASP. Any use, copying, and all other rights are regul
   COPYR  = If you do not have a valid VASP license, you may not use, copy or distribute this file. 
   VRHFIN =N: s2p3                                                                                  
   LEXCH  = PE                                                                                      
   EATOM  =   264.5486 eV,   19.4438 Ry                                                             
                                                                                                    
   TITEL  = PAW_PBE N 08Apr2002                                                                     
   LULTRA =        F    use ultrasoft PP ?                                                          
   IUNSCR =        1    unscreen: 0-lin 1-nonlin 2-no                                               
   RPACOR =    1.200    partial core radius                                                         
   POMASS =   14.001; ZVAL   =    5.000    mass and valenz                                          
   RCORE  =    1.500    outmost cutoff radius                                                       
   RWIGS  =    1.400; RWIGS  =    0.741    wigner-seitz radius (au A)                               
   ENMAX  =  400.000; ENMIN  =  300.000 eV                                                          
   ICORE  =        2    local potential                                                             
   LCOR   =        T    correct aug charges                                                         
   LPAW   =        T    paw PP                                                                      
   EAUG   =  627.112                                                                                
   DEXC   =    0.000                                                                                
   RMAX   =    1.529    core radius for proj-oper                                                   
   RAUG   =    1.300    factor for augmentation sphere                                              
   RDEP   =    1.514    radius for radial grids                                                     
   RDEPT  =    1.338    core radius for aug-charge                                                  
                                                                                                    
   Atomic configuration                                                                             
    4 entries                                                                                       
     n  l   j            E        occ.                                                              
     1  0  0.50      -384.7179   2.0000                                                             
     2  0  0.50       -18.5828   2.0000                                                             
     2  1  0.50        -7.0898   3.0000                                                             
     3  2  1.50        -6.8029   0.0000                                                             
   Description                                                                                      
     l       E           TYP  RCUT    TYP  RCUT                                                     
     0    -18.5828119     23  1.200                                                                 
     0    -13.5018863     23  1.200                                                                 
     1     -7.0897853     23  1.500                                                                 
     1      9.5240782     23  1.500                                                                 
     2     -6.8029130      7  1.500                                                                 
  local pseudopotential read in
  partial core-charges read in
  partial kinetic energy density read in
  atomic valenz-charges read in
  non local Contribution for L=            0  read in
    real space projection operators read in
  non local Contribution for L=            0  read in
    real space projection operators read in
  non local Contribution for L=            1  read in
    real space projection operators read in
  non local Contribution for L=            1  read in
    real space projection operators read in
    PAW grid and wavefunctions read in
 
   number of l-projection  operators is LMAX  =            4
   number of lm-projection operators is LMMAX =            8
 
 POTCAR:    PAW_PBE I 08Apr2002                   
   SHA256 =  e40f3f59b681c1fc3e3091736183c4589116986673d2b852a5012aec72758799 I/POTCAR              
   COPYR  = (c) Copyright 08Apr2002 Georg Kresse                                                    
   COPYR  = This file is part of the software VASP. Any use, copying, and all other rights are regul
   COPYR  = If you do not have a valid VASP license, you may not use, copy or distribute this file. 
   VRHFIN =I : s2p5                                                                                 
   LEXCH  = PE                                                                                      
   EATOM  =   315.8678 eV,   23.2156 Ry                                                             
                                                                                                    
   TITEL  = PAW_PBE I 08Apr2002                                                                     
   LULTRA =        F    use ultrasoft PP ?                                                          
   IUNSCR =        1    unscreen: 0-lin 1-nonlin 2-no                                               
   RPACOR =    2.200    partial core radius                                                         
   POMASS =  126.904; ZVAL   =    7.000    mass and valenz                                          
   RCORE  =    2.300    outmost cutoff radius                                                       
   RWIGS  =    2.810; RWIGS  =    1.487    wigner-seitz radius (au A)                               
   ENMAX  =  175.647; ENMIN  =  131.735 eV                                                          
   ICORE  =        3    local potential                                                             
   LCOR   =        T    correct aug charges                                                         
   LPAW   =        T    paw PP                                                                      
   EAUG   =  370.139                                                                                
   DEXC   =    0.000                                                                                
   RMAX   =    2.359    core radius for proj-oper                                                   
   RAUG   =    1.300    factor for augmentation sphere                                              
   RDEP   =    2.392    radius for radial grids                                                     
   RDEPT  =    2.170    core radius for aug-charge                                                  
                                                                                                    
   Atomic configuration                                                                             
   13 entries                                                                                       
     n  l   j            E        occ.                                                              
     1  0  0.50    -32976.3739   2.0000                                                             
     2  0  0.50     -5094.5933   2.0000                                                             
     2  1  1.50     -4572.0131   6.0000                                                             
     3  0  0.50     -1028.2813   2.0000                                                             
     3  1  1.50      -859.0250   6.0000                                                             
     3  2  2.50      -605.7620  10.0000                                                             
     4  0  0.50      -180.5540   2.0000                                                             
     4  1  1.50      -127.5306   6.0000                                                             
     4  2  2.50       -50.2720  10.0000                                                             
     5  0  0.50       -17.4058   2.0000                                                             
     5  1  0.50        -7.0851   5.0000                                                             
     5  2  1.50        -7.0750   0.0000                                                             
     4  3  2.50        -7.0750   0.0000                                                             
   Description                                                                                      
     l       E           TYP  RCUT    TYP  RCUT                                                     
     0    -17.4058016     23  2.300                                                                 
     0    -18.7663842     23  2.300                                                                 
     1     -7.0850686     23  2.300                                                                 
     1     -4.2150896     23  2.300                                                                 
     2     -7.0750295     23  2.300                                                                 
     3     -1.3605826     23  2.300                                                                 
  local pseudopotential read in
  partial core-charges read in
  partial kinetic energy density read in
  atomic valenz-charges read in
  non local Contribution for L=            0  read in
    real space projection operators read in
  non local Contribution for L=            0  read in
    real space projection operators read in
  non local Contribution for L=            1  read in
    real space projection operators read in
  non local Contribution for L=            1  read in
    real space projection operators read in
  non local Contribution for L=            2  read in
    real space projection operators read in
    PAW grid and wavefunctions read in
 
   number of l-projection  operators is LMAX  =            5
   number of lm-projection operators is LMMAX =           13
 
 POTCAR:    PAW_PBE Pb 08Apr2002                  
   SHA256 =  797118a27cf1bcd06b9881c67a26cdde129e3cd1a551dd4a281f9681ce847303 Pb/POTCAR             
   COPYR  = (c) Copyright 08Apr2002 Georg Kresse                                                    
   COPYR  = This file is part of the software VASP. Any use, copying, and all other rights are regul
   COPYR  = If you do not have a valid VASP license, you may not use, copy or distribute this file. 
   VRHFIN =Pb:                                                                                      
   LEXCH  = PE                                                                                      
   EATOM  =    96.9868 eV,    7.1283 Ry                                                             
                                                                                                    
   TITEL  = PAW_PBE Pb 08Apr2002                                                                    
   LULTRA =        F    use ultrasoft PP ?                                                          
   IUNSCR =        1    unscreen: 0-lin 1-nonlin 2-no                                               
   RPACOR =    2.200    partial core radius                                                         
   POMASS =  207.200; ZVAL   =    4.000    mass and valenz                                          
   RCORE  =    3.100    outmost cutoff radius                                                       
   RWIGS  =    3.260; RWIGS  =    1.725    wigner-seitz radius (au A)                               
   ENMAX  =   97.973; ENMIN  =   73.480 eV                                                          
   ICORE  =        3    local potential                                                             
   LCOR   =        T    correct aug charges                                                         
   LPAW   =        T    paw PP                                                                      
   EAUG   =  234.873                                                                                
   DEXC   =    0.000                                                                                
   RMAX   =    3.158    core radius for proj-oper                                                   
   RAUG   =    1.300    factor for augmentation sphere                                              
   RDEP   =    3.202    radius for radial grids                                                     
   RDEPT  =    2.659    core radius for aug-charge                                                  
                                                                                                    
   Atomic configuration                                                                             
   17 entries                                                                                       
     n  l   j            E        occ.                                                              
     1  0  0.50    -88091.8466   2.0000                                                             
     2  0  0.50    -15753.4197   2.0000                                                             
     2  1  1.50    -13508.1797   6.0000                                                             
     3  0  0.50     -3781.7194   2.0000                                                             
     3  1  1.50     -3138.2529   6.0000                                                             
     3  2  2.50     -2483.2977  10.0000                                                             
     4  0  0.50      -856.2895   2.0000                                                             
     4  1  1.50      -645.4943   6.0000                                                             
     4  2  2.50      -401.8768  10.0000                                                             
     4  3  3.50      -132.9059  14.0000                                                             
     5  0  0.50      -144.0950   2.0000                                                             
     5  1  1.50       -85.7879   6.0000                                                             
     5  2  2.50       -21.1769  10.0000                                                             
     6  0  0.50       -12.0372   2.0000                                                             
     6  1  1.50        -3.4971   2.0000                                                             
     6  2  2.50        -1.3606   0.0000                                                             
     5  3  2.50        -2.7212   0.0000                                                             
   Description                                                                                      
     l       E           TYP  RCUT    TYP  RCUT                                                     
     0    -12.0371566     23  3.100                                                                 
     0    -13.3977392     23  3.100                                                                 
     1     -3.4971341     23  3.100                                                                 
     1     -5.4423304     23  3.100                                                                 
     2     -1.3605826     23  3.100                                                                 
     3     -1.3605826     23  3.100                                                                 
  local pseudopotential read in
  partial core-charges read in
  partial kinetic energy density read in
  atomic valenz-charges read in
  non local Contribution for L=            0  read in
    real space projection operators read in
  non local Contribution for L=            0  read in
    real space projection operators read in
  non local Contribution for L=            1  read in
    real space projection operators read in
  non local Contribution for L=            1  read in
    real space projection operators read in
  non local Contribution for L=            2  read in
    real space projection operators read in
    PAW grid and wavefunctions read in
 
   number of l-projection  operators is LMAX  =            5
   number of lm-projection operators is LMMAX =           13
 
 Optimization of the real space projectors (new method)

 maximal supplied QI-value         = 34.20
 optimisation between [QCUT,QGAM] = [ 11.29, 22.57] = [ 35.68,142.71] Ry 
 Optimized for a Real-space Cutoff    1.16 Angstroem

   l    n(q)    QCUT    max X(q) W(low)/X(q) W(high)/X(q)  e(spline) 
   0      8    11.287    19.460    0.40E-03    0.73E-03    0.16E-06
   0      8    11.287    12.209    0.38E-03    0.70E-03    0.15E-06
   1      7    11.287     4.655    0.22E-03    0.25E-04    0.22E-06
 Optimization of the real space projectors (new method)

 maximal supplied QI-value         = 25.13
 optimisation between [QCUT,QGAM] = [ 11.31, 22.87] = [ 35.82,146.48] Ry 
 Optimized for a Real-space Cutoff    1.00 Angstroem

   l    n(q)    QCUT    max X(q) W(low)/X(q) W(high)/X(q)  e(spline) 
   0      7    11.310   115.676    0.43E-03    0.13E-02    0.19E-06
   0      7    11.310    87.132    0.43E-03    0.13E-02    0.18E-06
   1      6    11.310     4.429    0.42E-03    0.74E-03    0.11E-06
   1      6    11.310     2.733    0.34E-03    0.55E-03    0.92E-07
 Optimization of the real space projectors (new method)

 maximal supplied QI-value         = 25.13
 optimisation between [QCUT,QGAM] = [ 11.31, 22.87] = [ 35.82,146.48] Ry 
 Optimized for a Real-space Cutoff    1.27 Angstroem

   l    n(q)    QCUT    max X(q) W(low)/X(q) W(high)/X(q)  e(spline) 
   0      9    11.310    79.467    0.75E-04    0.16E-03    0.36E-06
   0      9    11.310    66.151    0.74E-04    0.16E-03    0.36E-06
   1      8    11.310    17.416    0.35E-03    0.12E-03    0.95E-06
   1      8    11.310    12.382    0.37E-03    0.13E-03    0.98E-06
 Optimization of the real space projectors (new method)

 maximal supplied QI-value         = 16.25
 optimisation between [QCUT,QGAM] = [ 11.38, 22.75] = [ 36.24,144.96] Ry 
 Optimized for a Real-space Cutoff    1.31 Angstroem

   l    n(q)    QCUT    max X(q) W(low)/X(q) W(high)/X(q)  e(spline) 
   0      9    11.376   194.483    0.24E-03    0.23E-03    0.67E-07
   0      9    11.376   190.334    0.23E-03    0.22E-03    0.65E-07
   1      8    11.376   116.687    0.25E-03    0.63E-04    0.16E-06
   1      8    11.376    88.696    0.25E-03    0.61E-04    0.16E-06
   2      8    11.376     4.877    0.17E-03    0.14E-03    0.29E-07
 Optimization of the real space projectors (new method)

 maximal supplied QI-value         = 12.09
 optimisation between [QCUT,QGAM] = [ 11.37, 22.86] = [ 36.19,146.31] Ry 
 Optimized for a Real-space Cutoff    1.66 Angstroem

   l    n(q)    QCUT    max X(q) W(low)/X(q) W(high)/X(q)  e(spline) 
   0     11    11.369   135.111    0.12E-03    0.69E-04    0.19E-05
   0     11    11.369   146.850    0.11E-03    0.65E-04    0.18E-05
   1     11    11.369   148.016    0.17E-03    0.32E-03    0.89E-06
   1     11    11.369   122.989    0.17E-03    0.32E-03    0.91E-06
   2     10    11.369     8.916    0.12E-03    0.45E-04    0.33E-06
  PAW_PBE H 15Jun2001                   :
 energy of atom  1       EATOM=  -12.4884
 kinetic energy error for atom=    0.0020 (will be added to EATOM!!)
  PAW_PBE C 08Apr2002                   :
 energy of atom  2       EATOM= -147.1560
 kinetic energy error for atom=    0.0076 (will be added to EATOM!!)
  PAW_PBE N 08Apr2002                   :
 energy of atom  3       EATOM= -264.5486
 kinetic energy error for atom=    0.0138 (will be added to EATOM!!)
  PAW_PBE I 08Apr2002                   :
 energy of atom  4       EATOM= -315.8678
 kinetic energy error for atom=    0.0009 (will be added to EATOM!!)
  PAW_PBE Pb 08Apr2002                  :
 energy of atom  5       EATOM=  -96.9868
 kinetic energy error for atom=    0.0000 (will be added to EATOM!!)
 
 
 POSCAR:  H  C  N  I Pb
  positions in cartesian coordinates
  No initial velocities read in
 exchange correlation table for  LEXCH =        8
   RHO(1)=    0.500       N(1)  =     2000
   RHO(2)=  100.500       N(2)  =     4000
 


--------------------------------------------------------------------------------------------------------


 ion  position               nearest neighbor table
   1  0.465  0.340  0.562- 187 1.03
   2  0.437  0.822  0.575- 188 1.02
   3  0.923  0.291  0.575- 189 1.03
   4  0.933  0.818  0.573- 190 1.03
   5  0.326  0.075  0.571- 194 1.02
   6  0.349  0.544  0.557- 195 1.03
   7  0.807  0.093  0.564- 196 1.03
   8  0.109  0.250  0.556- 183 1.03
   9  0.075  0.677  0.578- 184 1.02
  10  0.553  0.155  0.561- 185 1.03
  11  0.502  0.643  0.556- 186 1.02
  12  0.380  0.010  0.557- 194 1.03
  13  0.294  0.622  0.551- 195 1.03
  14  0.877  0.033  0.555- 196 1.03
  15  0.061  0.298  0.576- 183 1.03
  16  0.985  0.698  0.585- 184 1.03
  17  0.573  0.248  0.568- 185 1.03
  18  0.444  0.684  0.575- 186 1.03
  19  0.275  0.433  0.572- 191 1.02
  20  0.191  0.056  0.572- 192 1.03
  21  0.688  0.033  0.576- 193 1.02
  22  0.382  0.296  0.555- 187 1.03
  23  0.496  0.869  0.557- 188 1.03
  24  0.883  0.235  0.556- 189 1.02
  25  0.988  0.869  0.555- 190 1.03
  26  0.179  0.442  0.569- 191 1.02
  27  0.156  0.978  0.560- 192 1.02
  28  0.683  0.938  0.571- 193 1.03
  29  0.431  0.181  0.553- 146 1.09
  30  0.542  0.760  0.543- 147 1.09
  31  0.999  0.204  0.540- 144 1.10
  32  0.084  0.781  0.555- 145 1.09
  33  0.184  0.560  0.556- 148 1.09
  34  0.274  0.936  0.549- 149 1.09
  35  0.799  0.929  0.558- 150 1.09
  36  0.440  0.304  0.671- 205 1.02
  37  0.454  0.804  0.674- 206 1.02
  38  0.950  0.288  0.675- 207 1.02
  39  0.917  0.738  0.667- 208 1.03
  40  0.302  0.051  0.673- 209 1.01
  41  0.298  0.561  0.673- 210 1.02
  42  0.805  0.059  0.673- 211 1.02
  43  0.840  0.468  0.662- 212 1.02
  44  0.083  0.167  0.647- 197 1.02
  45  0.111  0.707  0.654- 198 1.03
  46  0.578  0.172  0.650- 199 1.02
  47  0.574  0.670  0.646- 200 1.02
  48  0.183  0.414  0.650- 201 1.02
  49  0.169  0.925  0.647- 202 1.02
  50  0.640  0.474  0.655- 203 1.03
  51  0.676  0.919  0.652- 204 1.03
  52  0.053  0.187  0.673- 197 1.02
  53  0.034  0.663  0.665- 198 1.02
  54  0.542  0.203  0.674- 199 1.02
  55  0.553  0.698  0.672- 200 1.02
  56  0.205  0.450  0.675- 201 1.02
  57  0.199  0.950  0.673- 202 1.02
  58  0.713  0.413  0.662- 203 1.03
  59  0.706  0.955  0.677- 204 1.02
  60  0.420  0.328  0.644- 205 1.02
  61  0.423  0.832  0.649- 206 1.02
  62  0.925  0.322  0.650- 207 1.02
  63  0.921  0.826  0.656- 208 1.02
  64  0.329  0.080  0.647- 209 1.02
  65  0.324  0.586  0.648- 210 1.02
  66  0.829  0.080  0.647- 211 1.02
  67  0.848  0.557  0.651- 212 1.02
  68  0.006  0.250  0.631- 151 1.10
  69  0.044  0.814  0.646- 152 1.09
  70  0.506  0.248  0.630- 153 1.09
  71  0.494  0.750  0.630- 154 1.09
  72  0.248  0.003  0.630- 156 1.09
  73  0.256  0.495  0.631- 155 1.09
  74  0.751  0.994  0.632- 158 1.09
  75  0.721  0.571  0.647- 157 1.10
  76  0.449  0.301  0.769- 221 1.02
  77  0.449  0.801  0.769- 222 1.02
  78  0.949  0.301  0.769- 223 1.02
  79  0.949  0.801  0.769- 224 1.02
  80  0.301  0.051  0.769- 225 1.02
  81  0.301  0.551  0.769- 226 1.02
  82  0.801  0.051  0.769- 227 1.02
  83  0.801  0.551  0.769- 228 1.02
  84  0.079  0.171  0.743- 213 1.02
  85  0.079  0.671  0.743- 214 1.02
  86  0.579  0.171  0.743- 215 1.02
  87  0.579  0.671  0.743- 216 1.02
  88  0.171  0.421  0.743- 217 1.02
  89  0.171  0.921  0.743- 218 1.02
  90  0.671  0.421  0.743- 219 1.02
  91  0.671  0.921  0.743- 220 1.02
  92  0.051  0.199  0.769- 213 1.02
  93  0.051  0.699  0.769- 214 1.02
  94  0.551  0.199  0.769- 215 1.02
  95  0.551  0.699  0.769- 216 1.02
  96  0.199  0.449  0.769- 217 1.02
  97  0.199  0.949  0.769- 218 1.02
  98  0.699  0.449  0.769- 219 1.02
  99  0.699  0.949  0.769- 220 1.02
 100  0.421  0.329  0.743- 221 1.02
 101  0.421  0.829  0.743- 222 1.02
 102  0.921  0.329  0.743- 223 1.02
 103  0.921  0.829  0.743- 224 1.02
 104  0.329  0.079  0.743- 225 1.02
 105  0.329  0.579  0.743- 226 1.02
 106  0.829  0.079  0.743- 227 1.02
 107  0.829  0.579  0.743- 228 1.02
 108  0.000  0.250  0.726- 161 1.09
 109  0.000  0.750  0.726- 162 1.09
 110  0.500  0.250  0.726- 159 1.09
 111  0.500  0.750  0.726- 160 1.09
 112  0.250  0.000  0.726- 163 1.09
 113  0.250  0.500  0.726- 164 1.09
 114  0.750  0.000  0.726- 165 1.09
 115  0.750  0.500  0.726- 166 1.09
 116  0.720  0.446  0.538- 173 1.10
 117  0.743  0.498  0.515- 173 1.10
 118  0.663  0.553  0.555- 174 1.10
 119  0.710  0.639  0.554- 174 1.10
 120  0.854  0.510  0.567- 175 1.10
 121  0.793  0.580  0.576- 175 1.10
 122  0.879  0.560  0.531- 176 1.09
 123  0.809  0.617  0.520- 176 1.09
 124  0.873  0.463  0.517- 177 1.10
 125  0.864  0.426  0.543- 177 1.10
 126  0.873  0.326  0.518- 178 1.10
 127  0.785  0.324  0.530- 178 1.10
 128  0.639  0.553  0.517- 179 1.10
 129  0.698  0.633  0.513- 179 1.10
 130  0.615  0.639  0.528- 179 1.10
 131  0.765  0.466  0.595- 180 1.10
 132  0.756  0.414  0.571- 180 1.10
 133  0.689  0.482  0.578- 180 1.09
 134  0.818  0.693  0.555- 181 1.10
 135  0.897  0.694  0.539- 181 1.10
 136  0.897  0.637  0.562- 181 1.10
 137  0.821  0.381  0.485- 182 1.10
 138  0.788  0.292  0.491- 182 1.10
 139  0.664  0.302  0.518- 168 1.10
 140  0.732  0.460  0.470- 169 1.09
 141  0.536  0.352  0.516- 170 1.09
 142  0.604  0.509  0.468- 171 1.09
 143  0.506  0.457  0.492- 172 1.09
 144  0.996  0.240  0.554-  31 1.10 183 1.31 189 1.31
 145  0.033  0.771  0.564-  32 1.09 184 1.31 190 1.32
 146  0.467  0.226  0.557-  29 1.09 187 1.31 185 1.31
 147  0.500  0.756  0.555-  30 1.09 186 1.31 188 1.32
 148  0.236  0.530  0.559-  33 1.09 191 1.31 195 1.31
 149  0.268  0.989  0.558-  34 1.09 194 1.31 192 1.31
 150  0.780  0.983  0.563-  35 1.09 193 1.31 196 1.31
 151  0.004  0.245  0.648-  68 1.10 197 1.31 207 1.31
 152  0.017  0.768  0.654-  69 1.09 198 1.31 208 1.31
 153  0.499  0.250  0.647-  70 1.09 199 1.31 205 1.32
 154  0.498  0.751  0.648-  71 1.09 200 1.31 206 1.31
 155  0.254  0.499  0.649-  73 1.09 201 1.31 210 1.32
 156  0.249  0.002  0.647-  72 1.09 202 1.31 209 1.32
 157  0.743  0.519  0.653-  75 1.10 203 1.31 212 1.31
 158  0.752  0.999  0.649-  74 1.09 204 1.31 211 1.32
 159  0.500  0.250  0.743- 110 1.09 221 1.31 215 1.31
 160  0.500  0.750  0.743- 111 1.09 222 1.31 216 1.31
 161  1.000  0.250  0.743- 108 1.09 223 1.31 213 1.31
 162  1.000  0.750  0.743- 109 1.09 224 1.31 214 1.31
 163  0.250  0.000  0.743- 112 1.09 225 1.31 218 1.31
 164  0.250  0.500  0.743- 113 1.09 226 1.31 217 1.31
 165  0.750  0.000  0.743- 114 1.09 227 1.31 220 1.31
 166  0.750  0.500  0.743- 115 1.09 228 1.31 219 1.31
 167  0.707  0.378  0.494- 169 1.40 168 1.41 182 1.51
 168  0.651  0.348  0.507- 139 1.10 170 1.40 167 1.41
 169  0.689  0.436  0.480- 140 1.09 171 1.39 167 1.40
 170  0.579  0.376  0.506- 141 1.09 172 1.40 168 1.40
 171  0.617  0.464  0.479- 142 1.09 169 1.39 172 1.40
 172  0.561  0.434  0.492- 143 1.09 170 1.40 171 1.40
 173  0.764  0.479  0.531- 117 1.10 116 1.10 229 1.52 177 1.53
 174  0.700  0.587  0.545- 119 1.10 118 1.10 179 1.52 229 1.53
 175  0.796  0.527  0.567- 121 1.10 120 1.10 180 1.51 229 1.52
 176  0.833  0.596  0.535- 122 1.09 123 1.09 181 1.52 229 1.52
 177  0.835  0.433  0.528- 125 1.10 124 1.10 173 1.53 178 1.53
 178  0.820  0.355  0.519- 126 1.10 127 1.10 177 1.53 182 1.54
 179  0.662  0.603  0.524- 128 1.10 130 1.10 129 1.10 174 1.52
 180  0.748  0.469  0.578- 133 1.09 132 1.10 131 1.10 175 1.51
 181  0.862  0.658  0.549- 136 1.10 134 1.10 135 1.10 176 1.52
 182  0.786  0.351  0.496- 137 1.10 138 1.10 167 1.51 178 1.54
 183  0.058  0.264  0.563-  15 1.03   8 1.03 144 1.31
 184  0.029  0.710  0.576-   9 1.02  16 1.03 145 1.31
 185  0.537  0.210  0.562-  10 1.03  17 1.03 146 1.31
 186  0.480  0.691  0.562-  11 1.02  18 1.03 147 1.31
 187  0.438  0.293  0.558-  22 1.03   1 1.03 146 1.31
 188  0.474  0.819  0.563-   2 1.02  23 1.03 147 1.32
 189  0.930  0.255  0.562-  24 1.02   3 1.03 144 1.31
 190  0.978  0.819  0.562-  25 1.03   4 1.03 145 1.32
 191  0.231  0.462  0.566-  19 1.02  26 1.02 148 1.31
 192  0.202  0.009  0.564-  27 1.02  20 1.03 149 1.31
 193  0.712  0.986  0.570-  21 1.02  28 1.03 150 1.31
 194  0.328  0.028  0.562-   5 1.02  12 1.03 149 1.31
 195  0.297  0.566  0.555-  13 1.03   6 1.03 148 1.31
 196  0.824  0.040  0.561-  14 1.03   7 1.03 150 1.31
 197  0.049  0.196  0.657-  52 1.02  44 1.02 151 1.31
 198  0.055  0.708  0.658-  53 1.02  45 1.03 152 1.31
 199  0.542  0.206  0.658-  54 1.02  46 1.02 153 1.31
 200  0.544  0.703  0.656-  55 1.02  47 1.02 154 1.31
 201  0.212  0.452  0.659-  48 1.02  56 1.02 155 1.31
 202  0.203  0.957  0.657-  57 1.02  49 1.02 156 1.31
 203  0.696  0.465  0.657-  58 1.03  50 1.03 157 1.31
 204  0.709  0.955  0.661-  59 1.02  51 1.03 158 1.31
 205  0.450  0.297  0.655-  36 1.02  60 1.02 153 1.32
 206  0.456  0.798  0.658-  37 1.02  61 1.02 154 1.31
 207  0.957  0.288  0.658-  38 1.02  62 1.02 151 1.31
 208  0.947  0.778  0.659-  63 1.02  39 1.03 152 1.31
 209  0.296  0.047  0.657-  40 1.01  64 1.02 156 1.32
 210  0.295  0.552  0.657-  65 1.02  41 1.02 155 1.32
 211  0.797  0.050  0.657-  42 1.02  66 1.02 158 1.32
 212  0.815  0.513  0.655-  43 1.02  67 1.02 157 1.31
 213  0.046  0.204  0.753-  92 1.02  84 1.02 161 1.31
 214  0.046  0.704  0.753-  93 1.02  85 1.02 162 1.31
 215  0.546  0.204  0.753-  94 1.02  86 1.02 159 1.31
 216  0.546  0.704  0.753-  95 1.02  87 1.02 160 1.31
 217  0.204  0.454  0.753-  96 1.02  88 1.02 164 1.31
 218  0.204  0.954  0.753-  97 1.02  89 1.02 163 1.31
 219  0.704  0.454  0.753-  98 1.02  90 1.02 166 1.31
 220  0.704  0.954  0.753-  99 1.02  91 1.02 165 1.31
 221  0.454  0.296  0.753-  76 1.02 100 1.02 159 1.31
 222  0.454  0.796  0.753-  77 1.02 101 1.02 160 1.31
 223  0.954  0.296  0.753-  78 1.02 102 1.02 161 1.31
 224  0.954  0.796  0.753-  79 1.02 103 1.02 162 1.31
 225  0.296  0.046  0.753-  80 1.02 104 1.02 163 1.31
 226  0.296  0.546  0.753-  81 1.02 105 1.02 164 1.31
 227  0.796  0.046  0.753-  82 1.02 106 1.02 165 1.31
 228  0.796  0.546  0.753-  83 1.02 107 1.02 166 1.31
 229  0.774  0.547  0.545- 173 1.52 176 1.52 175 1.52 174 1.53
 230  0.520  0.011  0.553- 304 3.27
 231  0.490  0.494  0.552- 305 3.18
 232  0.013  0.009  0.551- 302 3.33
 233  0.023  0.499  0.555- 303 3.13
 234  0.251  0.230  0.553- 306 3.22
 235  0.253  0.763  0.552- 307 3.17
 236  0.735  0.213  0.556- 308 3.16
 237  0.700  0.796  0.555- 309 3.20
 238  0.999  0.986  0.654- 302 3.14 310 3.20
 239  0.013  0.501  0.655- 311 3.11 303 3.19
 240  0.495  0.004  0.655- 304 3.11 312 3.12
 241  0.500  0.496  0.654- 305 3.17 313 3.19
 242  0.252  0.248  0.655- 314 3.14 306 3.14
 243  0.250  0.754  0.654- 315 3.17 307 3.20
 244  0.748  0.269  0.655- 316 3.13 308 3.14
 245  0.749  0.739  0.655- 317 3.15 309 3.20
 246  0.130  0.121  0.607- 306 3.20 302 3.20
 247  0.149  0.608  0.607- 307 3.22 303 3.22
 248  0.638  0.115  0.612- 308 3.18 304 3.20
 249  0.632  0.618  0.606- 305 3.19 309 3.21
 250  0.361  0.390  0.605- 305 3.21 306 3.21
 251  0.370  0.886  0.608- 304 3.22 307 3.22
 252  0.889  0.367  0.607- 303 3.26 308 3.31
 253  0.867  0.882  0.606- 309 3.20 302 3.23
 254  0.121  0.367  0.609- 306 3.19 303 3.27
 255  0.123  0.875  0.606- 307 3.19 302 3.24
 256  0.599  0.350  0.601- 305 3.20 308 3.23
 257  0.617  0.868  0.615- 309 3.12 304 3.20
 258  0.388  0.136  0.607- 306 3.20 304 3.22
 259  0.385  0.635  0.609- 307 3.25 305 3.28
 260  0.882  0.135  0.611- 302 3.19 308 3.24
 261  0.893  0.640  0.613- 303 3.21 309 3.48
 262  0.000  0.000  0.755- 310 3.13 318 3.27
 263  0.000  0.500  0.755- 311 3.13 319 3.27
 264  0.500  0.000  0.755- 312 3.13 320 3.27
 265  0.500  0.500  0.755- 313 3.13 321 3.27
 266  0.250  0.250  0.755- 314 3.13 322 3.27
 267  0.250  0.750  0.755- 315 3.13 323 3.27
 268  0.750  0.250  0.755- 316 3.13 324 3.27
 269  0.750  0.750  0.755- 317 3.13 325 3.27
 270  0.136  0.114  0.705- 310 3.20 314 3.20
 271  0.136  0.614  0.705- 311 3.20 315 3.20
 272  0.636  0.114  0.705- 312 3.20 316 3.20
 273  0.636  0.614  0.705- 313 3.20 317 3.20
 274  0.364  0.386  0.705- 313 3.20 314 3.20
 275  0.364  0.886  0.705- 312 3.20 315 3.20
 276  0.864  0.386  0.705- 311 3.20 316 3.20
 277  0.864  0.886  0.705- 310 3.20 317 3.20
 278  0.114  0.364  0.705- 314 3.21 311 3.21
 279  0.114  0.864  0.705- 315 3.21 310 3.21
 280  0.614  0.364  0.705- 316 3.21 313 3.21
 281  0.614  0.864  0.705- 317 3.21 312 3.21
 282  0.386  0.136  0.705- 314 3.21 312 3.21
 283  0.386  0.636  0.705- 315 3.21 313 3.21
 284  0.886  0.136  0.705- 316 3.21 310 3.21
 285  0.886  0.636  0.705- 317 3.21 311 3.21
 286  0.135  0.115  0.801- 318 3.22 322 3.22
 287  0.135  0.615  0.801- 319 3.22 323 3.22
 288  0.635  0.115  0.801- 320 3.22 324 3.22
 289  0.635  0.615  0.801- 321 3.22 325 3.22
 290  0.365  0.385  0.801- 321 3.22 322 3.22
 291  0.365  0.885  0.801- 320 3.22 323 3.22
 292  0.865  0.385  0.801- 319 3.22 324 3.22
 293  0.865  0.885  0.801- 318 3.22 325 3.22
 294  0.115  0.365  0.801- 319 3.23 322 3.23
 295  0.115  0.865  0.801- 318 3.23 323 3.23
 296  0.615  0.365  0.801- 321 3.23 324 3.23
 297  0.615  0.865  0.801- 320 3.23 325 3.23
 298  0.385  0.135  0.801- 320 3.23 322 3.23
 299  0.385  0.635  0.801- 321 3.23 323 3.23
 300  0.885  0.135  0.801- 318 3.23 324 3.23
 301  0.885  0.635  0.801- 319 3.23 325 3.23
 302  0.998  0.004  0.604- 238 3.14 260 3.19 246 3.20 253 3.23 255 3.24 232 3.33
 303  0.005  0.505  0.604- 233 3.13 239 3.19 261 3.21 247 3.22 252 3.26 254 3.27
 304  0.505  0.001  0.605- 240 3.11 248 3.20 257 3.20 251 3.22 258 3.22 230 3.27
 305  0.502  0.498  0.603- 241 3.17 231 3.18 249 3.19 256 3.20 250 3.21 259 3.28
 306  0.252  0.249  0.604- 242 3.14 254 3.19 246 3.20 258 3.20 250 3.21 234 3.22
 307  0.251  0.754  0.603- 235 3.17 255 3.19 243 3.20 247 3.22 251 3.22 259 3.25
 308  0.747  0.251  0.605- 244 3.14 236 3.16 248 3.18 256 3.23 260 3.24 252 3.31
 309  0.743  0.756  0.604- 257 3.12 237 3.20 253 3.20 245 3.20 249 3.21 261 3.48
 310  0.000  0.000  0.705- 262 3.13 238 3.20 270 3.20 277 3.20 279 3.21 284 3.21
 311  0.000  0.500  0.705- 239 3.11 263 3.13 271 3.20 276 3.20 278 3.21 285 3.21
 312  0.500  0.000  0.705- 240 3.12 264 3.13 272 3.20 275 3.20 281 3.21 282 3.21
 313  0.500  0.500  0.705- 265 3.13 241 3.19 273 3.20 274 3.20 280 3.21 283 3.21
 314  0.250  0.250  0.705- 266 3.13 242 3.14 270 3.20 274 3.20 282 3.21 278 3.21
 315  0.250  0.750  0.705- 267 3.13 243 3.17 271 3.20 275 3.20 283 3.21 279 3.21
 316  0.750  0.250  0.705- 268 3.13 244 3.13 272 3.20 276 3.20 284 3.21 280 3.21
 317  0.750  0.750  0.705- 269 3.13 245 3.15 273 3.20 277 3.20 285 3.21 281 3.21
 318  0.000  0.000  0.807- 286 3.22 293 3.22 300 3.23 295 3.23 262 3.27
 319  0.000  0.500  0.807- 287 3.22 292 3.22 301 3.23 294 3.23 263 3.27
 320  0.500  0.000  0.807- 288 3.22 291 3.22 298 3.23 297 3.23 264 3.27
 321  0.500  0.500  0.807- 289 3.22 290 3.22 299 3.23 296 3.23 265 3.27
 322  0.250  0.250  0.807- 290 3.22 286 3.22 294 3.23 298 3.23 266 3.27
 323  0.250  0.750  0.807- 291 3.22 287 3.22 299 3.23 295 3.23 267 3.27
 324  0.750  0.250  0.807- 292 3.22 288 3.22 296 3.23 300 3.23 268 3.27
 325  0.750  0.750  0.807- 293 3.22 289 3.22 297 3.23 301 3.23 269 3.27
 

IMPORTANT INFORMATION: All symmetrisations will be switched off!
NOSYMM: (Re-)initialisation of all symmetry stuff for point group C_1.


----------------------------------------------------------------------------------------

                                     Primitive cell                                     

  volume of cell :   20385.2105

  direct lattice vectors                    reciprocal lattice vectors
    18.060800552  0.000000000  0.000000000     0.055368531  0.000015077 -0.000000000
    -0.004918649 18.062799454  0.000000000     0.000000000  0.055362404  0.000000000
     0.000000000  0.000000000 62.487499237     0.000000000 -0.000000000  0.016003201

  length of vectors
    18.060800552 18.062800123 62.487499237     0.055368533  0.055362404  0.016003201

  position of ions in fractional coordinates (direct lattice)
     0.465177042  0.339613409  0.562238370
     0.437110997  0.821974277  0.574961679
     0.923326666  0.290648159  0.575101722
     0.933497135  0.817948558  0.572524058
     0.326426089  0.075345028  0.570608086
     0.349152887  0.543853138  0.556716331
     0.807246460  0.093249547  0.564357690
     0.108648988  0.250075738  0.555977230
     0.074669661  0.676896802  0.577575361
     0.552989875  0.155445096  0.561171812
     0.502167931  0.643041648  0.555752026
     0.379891779  0.010150977  0.557304583
     0.293617494  0.621595908  0.551146003
     0.877262673  0.032675551  0.555480976
     0.060750472  0.297785089  0.575668913
     0.985377671  0.698497768  0.585454684
     0.573420556  0.248072277  0.567687641
     0.444378488  0.683658657  0.574646858
     0.274500395  0.433141477  0.571608225
     0.191103501  0.056065207  0.572386091
     0.688247305  0.033044525  0.576193493
     0.381747526  0.295919403  0.555128305
     0.495831239  0.868525589  0.557487542
     0.882507094  0.235190746  0.555617112
     0.988307522  0.869095963  0.555191795
     0.179085786  0.441720945  0.568920554
     0.156165456  0.978082558  0.560189987
     0.682606232  0.937586265  0.570795990
     0.430930223  0.180537917  0.552811192
     0.542228850  0.760070079  0.542575258
     0.998628609  0.203665620  0.540353988
     0.084358010  0.781430552  0.555498436
     0.183802934  0.559686958  0.555987608
     0.274361336  0.936201104  0.549411158
     0.799266346  0.928952085  0.557976898
     0.440268352  0.303586553  0.670742128
     0.454086199  0.803639166  0.674068660
     0.950122304  0.287582540  0.674678279
     0.917479677  0.738074556  0.667480123
     0.301900673  0.051432833  0.672594000
     0.297763159  0.560928760  0.673461788
     0.805124074  0.058929602  0.673184328
     0.840290424  0.468160240  0.661690696
     0.083055439  0.166705156  0.647434243
     0.110736744  0.706915570  0.654044452
     0.577756894  0.171697179  0.650327095
     0.574324933  0.669819165  0.646251267
     0.183342379  0.413875384  0.649949761
     0.168934720  0.924643337  0.647288096
     0.639765012  0.474225587  0.655182009
     0.675737842  0.918894235  0.652474680
     0.052670359  0.187271525  0.673202947
     0.034197491  0.663358468  0.665499746
     0.541589464  0.203068412  0.674488177
     0.553227116  0.698315194  0.672234248
     0.205463869  0.450274543  0.674805013
     0.198772615  0.950466528  0.672838739
     0.712512962  0.413254615  0.661639965
     0.706400577  0.955464412  0.676838379
     0.420276393  0.328179670  0.644487121
     0.422855799  0.832408106  0.649186730
     0.924663138  0.322354949  0.649566933
     0.920806235  0.825520540  0.655543714
     0.328632481  0.079596787  0.647146893
     0.323620849  0.586442458  0.647712619
     0.828895219  0.079647539  0.646788057
     0.847931778  0.556747235  0.651243782
     0.006066154  0.250134529  0.630900358
     0.044056240  0.813951138  0.645623395
     0.505870473  0.248321561  0.629670864
     0.493810598  0.750421141  0.630132504
     0.247759620  0.002891962  0.629575141
     0.256247197  0.495423178  0.631088323
     0.750611492  0.993605249  0.632075947
     0.720825558  0.571266603  0.647363673
     0.448745018  0.301283966  0.768889017
     0.448745007  0.801283913  0.768889017
     0.948744965  0.301283966  0.768889017
     0.948745007  0.801283913  0.768889017
     0.301275995  0.051294496  0.768872961
     0.301276011  0.551294499  0.768872961
     0.801275943  0.051294496  0.768872961
     0.801275984  0.551294499  0.768872961
     0.078771004  0.171180501  0.743441971
     0.078771006  0.671180448  0.743441971
     0.578771004  0.171180501  0.743441971
     0.578770992  0.671180448  0.743441971
     0.171199499  0.421174482  0.743421032
     0.171199501  0.921174508  0.743421032
     0.671199512  0.421174482  0.743421032
     0.671199501  0.921174508  0.743421032
     0.051256000  0.198714991  0.768889017
     0.051256002  0.698714925  0.768889017
     0.551256027  0.198714991  0.768889017
     0.551256016  0.698714925  0.768889017
     0.198723491  0.448703970  0.768872046
     0.198723493  0.948703970  0.768872046
     0.698723518  0.448703970  0.768872046
     0.698723507  0.948703970  0.768872046
     0.421231519  0.328817467  0.743441971
     0.421231508  0.828817440  0.743441971
     0.921231466  0.328817467  0.743441971
     0.921231508  0.828817440  0.743441971
     0.328800503  0.078824997  0.743421032
     0.328800492  0.578824964  0.743421032
     0.828800477  0.078824997  0.743421032
     0.828800519  0.578824964  0.743421032
     0.000003500  0.250001478  0.725821992
     0.000003500  0.750001452  0.725821992
     0.500003506  0.250001478  0.725821992
     0.500003495  0.750001452  0.725821992
     0.250000502  0.000000000  0.725803983
     0.250000517  0.500000000  0.725803983
     0.750000502  0.000000000  0.725803983
     0.750000490  0.500000000  0.725803983
     0.720042528  0.445991963  0.538148041
     0.743296192  0.497901661  0.515292823
     0.662966197  0.553305089  0.555464615
     0.710374348  0.639266243  0.554084456
     0.854067599  0.510196451  0.566814481
     0.793489922  0.579526170  0.576272915
     0.879304175  0.559513782  0.530761860
     0.809041927  0.616514974  0.519701237
     0.873192296  0.462663682  0.517105747
     0.863904171  0.425896048  0.542973592
     0.873258739  0.326227079  0.518426140
     0.784673973  0.324073936  0.529851949
     0.639023105  0.553266810  0.516543806
     0.697501301  0.632611515  0.512802640
     0.615156291  0.639425903  0.527686782
     0.764630959  0.466380852  0.594734250
     0.755829468  0.414277544  0.571032915
     0.688722209  0.482438587  0.577745195
     0.817961013  0.693242971  0.555273049
     0.896633949  0.693953470  0.538621036
     0.897186615  0.637036015  0.561620571
     0.821323512  0.380966206  0.484691335
     0.787510542  0.292136183  0.491187996
     0.663547216  0.301718650  0.517994841
     0.732060416  0.459995286  0.470274877
     0.535778523  0.352305026  0.516490328
     0.604145056  0.508916529  0.468382256
     0.505675323  0.456600658  0.492129590
     0.995852519  0.239743941  0.554424979
     0.032951638  0.770933524  0.564227660
     0.467450698  0.226141167  0.557329185
     0.500351011  0.756263523  0.555062496
     0.235639084  0.530428583  0.558834003
     0.268342721  0.989082273  0.557753708
     0.779726969  0.983414268  0.562927717
     0.004129403  0.244740794  0.648373457
     0.016886372  0.768410691  0.653961611
     0.499397306  0.249945064  0.647052575
     0.498069957  0.750664591  0.647566838
     0.254389357  0.499397261  0.648513194
     0.248588008  0.001847494  0.647069791
     0.742809057  0.518564306  0.653261214
     0.752177410  0.999137089  0.649494775
     0.499988984  0.249994984  0.743277021
     0.499989025  0.749994958  0.743277021
     0.999988984  0.249994984  0.743277021
     0.999989025  0.749994958  0.743277021
     0.250000502  0.000001000  0.743255960
     0.250000517  0.500001003  0.743255960
     0.750000502  0.000001000  0.743255960
     0.750000491  0.500001003  0.743255960
     0.707155532  0.378226666  0.494337674
     0.650862125  0.347512394  0.507081464
     0.688852239  0.436202582  0.480383619
     0.578694815  0.375564949  0.506182297
     0.617083928  0.463922802  0.479341327
     0.561451605  0.434116915  0.492444473
     0.764457488  0.478552992  0.530755694
     0.699579971  0.587453006  0.545473603
     0.795695867  0.527456917  0.567313604
     0.832990112  0.596086698  0.534662054
     0.834700332  0.432706477  0.527678601
     0.819762515  0.355307315  0.518619721
     0.662081121  0.602811541  0.524187608
     0.747889649  0.469485304  0.577898912
     0.861985385  0.658135772  0.548694035
     0.786011609  0.350696544  0.496092419
     0.058306944  0.263694747  0.562537502
     0.029218745  0.710052862  0.575542239
     0.536764175  0.209871819  0.561689005
     0.479771096  0.690545800  0.561826056
     0.437847732  0.292533961  0.557514464
     0.474164679  0.819094954  0.562588660
     0.930233954  0.255180959  0.562292336
     0.978308147  0.818803458  0.562301371
     0.230654736  0.461946373  0.565526503
     0.201689263  0.008893625  0.563773528
     0.711729123  0.986421609  0.570050541
     0.327864921  0.028187598  0.561561172
     0.297274512  0.566346913  0.554817330
     0.824247434  0.040225293  0.560929331
     0.048696147  0.196266181  0.657162935
     0.055196251  0.708112335  0.657608275
     0.541963556  0.205899874  0.658219298
     0.544002174  0.702954422  0.656223233
     0.212443449  0.451608477  0.658645592
     0.202852939  0.956512304  0.656674251
     0.695588887  0.465178912  0.657151336
     0.709297808  0.955099296  0.660587020
     0.450464267  0.296699938  0.654854123
     0.456192280  0.798255226  0.657864857
     0.957347958  0.287838054  0.658475453
     0.947133413  0.777519615  0.659365707
     0.295880768  0.046742080  0.656518091
     0.294510296  0.551888949  0.657380447
     0.797341424  0.049667070  0.657304198
     0.814880644  0.513428779  0.655471984
     0.045862501  0.204119496  0.752725994
     0.045862500  0.704119456  0.752725994
     0.545862507  0.204119496  0.752725994
     0.545862496  0.704119456  0.752725994
     0.204119002  0.454101003  0.752704994
     0.204118991  0.954100951  0.752704994
     0.704118976  0.454101003  0.752704994
     0.704118964  0.954100951  0.752704994
     0.454140018  0.295888490  0.752726971
     0.454140007  0.795888516  0.752726971
     0.954140018  0.295888490  0.752726971
     0.954140060  0.795888516  0.752726971
     0.295882492  0.045900498  0.752704994
     0.295882481  0.545900528  0.752704994
     0.795882439  0.045900498  0.752704994
     0.795882481  0.545900528  0.752704994
     0.773774383  0.547090324  0.544528346
     0.520451305  0.010531342  0.553234860
     0.490437619  0.493925624  0.552209387
     0.012647906  0.009294495  0.550757009
     0.023486404  0.498641410  0.554511178
     0.251258585  0.229512960  0.553093719
     0.252921785  0.763172261  0.552224648
     0.734877631  0.212740146  0.555793477
     0.699989253  0.796473620  0.555348259
     0.999002282  0.985506305  0.653852214
     0.012954445  0.500833148  0.655210762
     0.494542732  0.003990943  0.654988305
     0.500070118  0.496338110  0.653747884
     0.251964574  0.247952901  0.654578800
     0.249656992  0.753758536  0.654135535
     0.747635418  0.269458065  0.655006009
     0.749276339  0.739052053  0.654522148
     0.130320101  0.121030444  0.607433079
     0.149499222  0.608184341  0.607219046
     0.638297821  0.115171100  0.612166081
     0.631598743  0.617741834  0.606322444
     0.361090284  0.389785350  0.604868784
     0.369671249  0.885536270  0.607706449
     0.888872085  0.366835456  0.607489608
     0.867204076  0.881923112  0.606425980
     0.121480438  0.366812673  0.608773373
     0.123376161  0.875466059  0.606130877
     0.599015923  0.350092697  0.600789477
     0.616925447  0.867536266  0.614744355
     0.387758904  0.135516339  0.607184738
     0.385441099  0.635485030  0.608530161
     0.882155095  0.134912162  0.610640751
     0.893074347  0.639627749  0.612692187
     0.000000000  0.000000000  0.754927972
     0.000000000  0.500000000  0.754927972
     0.500000000  0.000000000  0.754927972
     0.499999989  0.500000000  0.754927972
     0.250000496  0.250000000  0.754939022
     0.250000511  0.749999974  0.754939022
     0.750000470  0.250000000  0.754939022
     0.750000458  0.749999974  0.754939022
     0.135790500  0.114209997  0.704782994
     0.135790502  0.614209984  0.704782994
     0.635790447  0.114209997  0.704782994
     0.635790488  0.614209984  0.704782994
     0.364209516  0.385789989  0.704782994
     0.364209505  0.885789963  0.704782994
     0.864209542  0.385789989  0.704782994
     0.864209531  0.885789963  0.704782994
     0.114217990  0.364218986  0.704780979
     0.114217992  0.864218986  0.704780979
     0.614218004  0.364218986  0.704780979
     0.614217992  0.864218986  0.704780979
     0.385782012  0.135781489  0.704782017
     0.385782001  0.635781489  0.704782017
     0.885781985  0.135781489  0.704782017
     0.885782027  0.635781489  0.704782017
     0.134667000  0.115332001  0.801256025
     0.134666989  0.615331988  0.801256025
     0.634666987  0.115332001  0.801256025
     0.634666976  0.615331988  0.801256025
     0.365333002  0.384667985  0.801256025
     0.365332990  0.884667959  0.801256025
     0.865332949  0.384667985  0.801256025
     0.865332938  0.884667959  0.801256025
     0.115328503  0.365337004  0.801264999
     0.115328505  0.865336978  0.801264999
     0.615328503  0.365337004  0.801264999
     0.615328492  0.865336978  0.801264999
     0.384671513  0.134662996  0.801264999
     0.384671501  0.634662970  0.801264999
     0.884671486  0.134662996  0.801264999
     0.884671528  0.634662970  0.801264999
     0.998306541  0.003640907  0.603884822
     0.004898098  0.504617740  0.604211121
     0.504966038  0.001053029  0.605361253
     0.502169110  0.498076263  0.602996888
     0.251979684  0.249146076  0.604292558
     0.251056150  0.753646605  0.602884806
     0.747191159  0.251151676  0.605054917
     0.743063228  0.755988659  0.603577449
     0.000000500  0.000000500  0.704828963
     0.000000500  0.500000475  0.704828963
     0.500000475  0.000000500  0.704828963
     0.500000464  0.500000475  0.704828963
     0.249999994  0.249999472  0.704824995
     0.250000010  0.749999498  0.704824995
     0.749999994  0.249999472  0.704824995
     0.749999983  0.749999498  0.704824995
     0.000000000  0.000000000  0.807317968
     0.000000000  0.500000000  0.807317968
     0.500000000  0.000000000  0.807317968
     0.499999989  0.500000000  0.807317968
     0.249999994  0.250000000  0.807317968
     0.250000010  0.749999974  0.807317968
     0.749999994  0.250000000  0.807317968
     0.749999983  0.749999974  0.807317968

  ion indices of the primitive-cell ions
   primitive index   ion index
                 1           1
                 2           2
                 3           3
                 4           4
                 5           5
                 6           6
                 7           7
                 8           8
                 9           9
                10          10
                11          11
                12          12
                13          13
                14          14
                15          15
                16          16
                17          17
                18          18
                19          19
                20          20
                21          21
                22          22
                23          23
                24          24
                25          25
                26          26
                27          27
                28          28
                29          29
                30          30
                31          31
                32          32
                33          33
                34          34
                35          35
                36          36
                37          37
                38          38
                39          39
                40          40
                41          41
                42          42
                43          43
                44          44
                45          45
                46          46
                47          47
                48          48
                49          49
                50          50
                51          51
                52          52
                53          53
                54          54
                55          55
                56          56
                57          57
                58          58
                59          59
                60          60
                61          61
                62          62
                63          63
                64          64
                65          65
                66          66
                67          67
                68          68
                69          69
                70          70
                71          71
                72          72
                73          73
                74          74
                75          75
                76          76
                77          77
                78          78
                79          79
                80          80
                81          81
                82          82
                83          83
                84          84
                85          85
                86          86
                87          87
                88          88
                89          89
                90          90
                91          91
                92          92
                93          93
                94          94
                95          95
                96          96
                97          97
                98          98
                99          99
               100         100
               101         101
               102         102
               103         103
               104         104
               105         105
               106         106
               107         107
               108         108
               109         109
               110         110
               111         111
               112         112
               113         113
               114         114
               115         115
               116         116
               117         117
               118         118
               119         119
               120         120
               121         121
               122         122
               123         123
               124         124
               125         125
               126         126
               127         127
               128         128
               129         129
               130         130
               131         131
               132         132
               133         133
               134         134
               135         135
               136         136
               137         137
               138         138
               139         139
               140         140
               141         141
               142         142
               143         143
               144         144
               145         145
               146         146
               147         147
               148         148
               149         149
               150         150
               151         151
               152         152
               153         153
               154         154
               155         155
               156         156
               157         157
               158         158
               159         159
               160         160
               161         161
               162         162
               163         163
               164         164
               165         165
               166         166
               167         167
               168         168
               169         169
               170         170
               171         171
               172         172
               173         173
               174         174
               175         175
               176         176
               177         177
               178         178
               179         179
               180         180
               181         181
               182         182
               183         183
               184         184
               185         185
               186         186
               187         187
               188         188
               189         189
               190         190
               191         191
               192         192
               193         193
               194         194
               195         195
               196         196
               197         197
               198         198
               199         199
               200         200
               201         201
               202         202
               203         203
               204         204
               205         205
               206         206
               207         207
               208         208
               209         209
               210         210
               211         211
               212         212
               213         213
               214         214
               215         215
               216         216
               217         217
               218         218
               219         219
               220         220
               221         221
               222         222
               223         223
               224         224
               225         225
               226         226
               227         227
               228         228
               229         229
               230         230
               231         231
               232         232
               233         233
               234         234
               235         235
               236         236
               237         237
               238         238
               239         239
               240         240
               241         241
               242         242
               243         243
               244         244
               245         245
               246         246
               247         247
               248         248
               249         249
               250         250
               251         251
               252         252
               253         253
               254         254
               255         255
               256         256
               257         257
               258         258
               259         259
               260         260
               261         261
               262         262
               263         263
               264         264
               265         265
               266         266
               267         267
               268         268
               269         269
               270         270
               271         271
               272         272
               273         273
               274         274
               275         275
               276         276
               277         277
               278         278
               279         279
               280         280
               281         281
               282         282
               283         283
               284         284
               285         285
               286         286
               287         287
               288         288
               289         289
               290         290
               291         291
               292         292
               293         293
               294         294
               295         295
               296         296
               297         297
               298         298
               299         299
               300         300
               301         301
               302         302
               303         303
               304         304
               305         305
               306         306
               307         307
               308         308
               309         309
               310         310
               311         311
               312         312
               313         313
               314         314
               315         315
               316         316
               317         317
               318         318
               319         319
               320         320
               321         321
               322         322
               323         323
               324         324
               325         325

----------------------------------------------------------------------------------------

 
 
 KPOINTS: Automatic Mesh                          

Automatic generation of k-mesh.
 Grid dimensions read from file:
 generate k-points for:    3    3    1

 Generating k-lattice:

  Cartesian coordinates                     Fractional coordinates (reciprocal lattice)
     0.018456177  0.000005026 -0.000000000     0.333333333  0.000000000  0.000000000
     0.000000000  0.018454135  0.000000000     0.000000000  0.333333333  0.000000000
     0.000000000 -0.000000000  0.016003201     0.000000000  0.000000000  1.000000000

  Length of vectors
     0.018456178  0.018454135  0.016003201

  Shift w.r.t. Gamma in fractional coordinates (k-lattice)
     0.000000000  0.000000000  0.000000000

 
 Subroutine IBZKPT returns following result:
 ===========================================
 
 Found      5 irreducible k-points:
 
 Following reciprocal coordinates:
            Coordinates               Weight
  0.000000  0.000000  0.000000      1.000000
  0.333333  0.000000  0.000000      2.000000
  0.000000  0.333333  0.000000      2.000000
  0.333333  0.333333  0.000000      2.000000
 -0.333333  0.333333  0.000000      2.000000
 
 Following cartesian coordinates:
            Coordinates               Weight
  0.000000  0.000000  0.000000      1.000000
  0.018456  0.000005  0.000000      2.000000
  0.000000  0.018454  0.000000      2.000000
  0.018456  0.018459  0.000000      2.000000
 -0.018456  0.018449  0.000000      2.000000
 


--------------------------------------------------------------------------------------------------------




 Dimension of arrays:
   k-points           NKPTS =      5   k-points in BZ     NKDIM =      5   number of bands    NBANDS=    732
   number of dos      NEDOS =    301   number of ions     NIONS =    325
   non local maximal  LDIM  =      5   non local SUM 2l+1 LMDIM =     13
   total plane-waves  NPLWV = ******
   max r-space proj   IRMAX =   3336   max aug-charges    IRDMAX=  19845
   dimension x,y,z NGX =   100 NGY =  100 NGZ =  350
   dimension x,y,z NGXF=   200 NGYF=  200 NGZF=  700
   support grid    NGXF=   200 NGYF=  200 NGZF=  700
   ions per type =             143  39  47  72  24
   NGX,Y,Z   is equivalent  to a cutoff of   9.20,  9.20,  9.31 a.u.
   NGXF,Y,Z  is equivalent  to a cutoff of  18.41, 18.41, 18.62 a.u.

 SYSTEM =  PSC                                     
 POSCAR =   H  C  N  I Pb                          

 Startparameter for this run:
   NWRITE =      2    write-flag & timer
   PREC   = normal    normal or accurate (medium, high low for compatibility)
   ISTART =      0    job   : 0-new  1-cont  2-samecut
   ICHARG =      1    charge: 1-file 2-atom 10-const
   ISPIN  =      1    spin polarized calculation?
   LNONCOLLINEAR =      F non collinear calculations
   LSORBIT =      F    spin-orbit coupling
   INIWAV =      1    electr: 0-lowe 1-rand  2-diag
   LASPH  =      F    aspherical Exc in radial PAW
 Electronic Relaxation 1
   ENCUT  =  500.0 eV  36.75 Ry    6.06 a.u.  32.93 32.93113.93*2*pi/ulx,y,z
   ENINI  =  500.0     initial cutoff
   ENAUG  =  644.9 eV  augmentation charge cutoff
   NELM   =    600;   NELMIN=  2; NELMDL=  0     # of ELM steps 
   EDIFF  = 0.1E-03   stopping-criterion for ELM
   LREAL  =      T    real-space projection
   NLSPLINE    = F    spline interpolate recip. space projectors
   LCOMPAT=      F    compatible to vasp.4.4
   GGA_COMPAT  = F    GGA compatible to vasp.4.4-vasp.4.6
   LMAXPAW     = -100 max onsite density
   LMAXMIX     =    2 max onsite mixed and CHGCAR
   VOSKOWN=      0    Vosko Wilk Nusair interpolation
   ROPT   =   -0.00050  -0.00050  -0.00050  -0.00050
   ROPT   =   -0.00050
 Ionic relaxation
   EDIFFG = 0.1E-02   stopping-criterion for IOM
   NSW    =      0    number of steps for IOM
   NBLOCK =      1;   KBLOCK =      1    inner block; outer block 
   IBRION =     -1    ionic relax: 0-MD 1-quasi-New 2-CG
   NFREE  =      0    steps in history (QN), initial steepest desc. (CG)
   ISIF   =      2    stress and relaxation
   IWAVPR =     10    prediction:  0-non 1-charg 2-wave 3-comb
   ISYM   =      0    0-nonsym 1-usesym 2-fastsym
   LCORR  =      T    Harris-Foulkes like correction to forces

   POTIM  = 0.5000    time-step for ionic-motion
   TEIN   =    0.0    initial temperature
   TEBEG  =    0.0;   TEEND  =   0.0 temperature during run
   SMASS  =  -3.00    Nose mass-parameter (am)
   estimated Nose-frequenzy (Omega)   =  0.10E-29 period in steps = 0.13E+47 mass=  -0.745E-26a.u.
   SCALEE = 1.0000    scale energy and forces
   NPACO  =    256;   APACO  = 16.0  distance and # of slots for P.C.
   PSTRESS=    0.0 pullay stress

  Mass of Ions in am
   POMASS =   1.00 12.01 14.00126.90207.20
  Ionic Valenz
   ZVAL   =   1.00  4.00  5.00  7.00  4.00
  Atomic Wigner-Seitz radii
   RWIGS  =  -1.00 -1.00 -1.00 -1.00 -1.00
  virtual crystal weights 
   VCA    =   1.00  1.00  1.00  1.00  1.00
   NELECT =    1134.0000    total number of electrons
   NUPDOWN=      -1.0000    fix difference up-down

 DOS related values:
   EMIN   =  10.00;   EMAX   =-10.00  energy-range for DOS
   EFERMI =   0.00
   ISMEAR =     0;   SIGMA  =   0.05  broadening in eV -4-tet -1-fermi 0-gaus

 Electronic relaxation 2 (details)
   IALGO  =     38    algorithm
   LDIAG  =      T    sub-space diagonalisation (order eigenvalues)
   LSUBROT=      F    optimize rotation matrix (better conditioning)
   TURBO    =      0    0=normal 1=particle mesh
   IRESTART =      0    0=no restart 2=restart with 2 vectors
   NREBOOT  =      0    no. of reboots
   NMIN     =      0    reboot dimension
   EREF     =   0.00    reference energy to select bands
   IMIX   =      4    mixing-type and parameters
     AMIX     =   0.40;   BMIX     =  0.01
     AMIX_MAG =   1.60;   BMIX_MAG =  0.01
     AMIN     =   0.01
     WC   =   100.;   INIMIX=   1;  MIXPRE=   1;  MAXMIX= -45

 Intra band minimization:
   WEIMIN = 0.0000     energy-eigenvalue tresh-hold
   EBREAK =  0.34E-07  absolut break condition
   DEPER  =   0.30     relativ break condition  

   TIME   =   0.40     timestep for ELM

  volume/ion in A,a.u.               =      62.72       423.28
  Fermi-wavevector in a.u.,A,eV,Ry     =   0.624944  1.180972  5.313816  0.390554
  Thomas-Fermi vector in A             =   1.685677
 
 Write flags
   LWAVE        =      F    write WAVECAR
   LDOWNSAMPLE  =      F    k-point downsampling of WAVECAR
   LCHARG       =      T    write CHGCAR
   LVTOT        =      T    write LOCPOT, total local potential
   LVHAR        =      F    write LOCPOT, Hartree potential only
   LELF         =      F    write electronic localiz. function (ELF)
   LORBIT       =      0    0 simple, 1 ext, 2 COOP (PROOUT), +10 PAW based schemes


 Dipole corrections
   LMONO  =      F    monopole corrections only (constant potential shift)
   LDIPOL =      T    correct potential (dipole corrections)
   IDIPOL =      3    1-x, 2-y, 3-z, 4-all directions 
   EPSILON=  1.0000000 bulk dielectric constant

 Exchange correlation treatment:
   GGA     =    --    GGA type
   LEXCH   =     8    internal setting for exchange type
   VOSKOWN=      0    Vosko Wilk Nusair interpolation
   LHFCALC =     F    Hartree Fock is set to
   LHFONE  =     F    Hartree Fock one center treatment
   AEXX    =    0.0000 exact exchange contribution

 Linear response parameters
   LEPSILON=     F    determine dielectric tensor
   LRPA    =     F    only Hartree local field effects (RPA)
   LNABLA  =     F    use nabla operator in PAW spheres
   LVEL    =     F    velocity operator in full k-point grid
   LINTERFAST=   F  fast interpolation
   KINTER  =     0    interpolate to denser k-point grid
   CSHIFT  =0.1000    complex shift for real part using Kramers Kronig
   OMEGAMAX=  -1.0    maximum frequency
   DEG_THRESHOLD= 0.2000000E-02 threshold for treating states as degnerate
   RTIME   =   -0.100 relaxation time in fs
  (WPLASMAI=    0.000 imaginary part of plasma frequency in eV, 0.658/RTIME)
   DFIELD  = 0.0000000 0.0000000 0.0000000 field for delta impulse in time
 
 Orbital magnetization related:
   ORBITALMAG=     F  switch on orbital magnetization
   LCHIMAG   =     F  perturbation theory with respect to B field
   DQ        =  0.001000  dq finite difference perturbation B field
   LLRAUG    =     F  two centre corrections for induced B field



--------------------------------------------------------------------------------------------------------


 Static calculation
 charge density and potential will be updated during run
 non-spin polarized calculation
 Variant of blocked Davidson
 Davidson routine will perform the subspace rotation
 perform sub-space diagonalisation
    after iterative eigenvector-optimisation
 modified Broyden-mixing scheme, WC =      100.0
 initial mixing is a Kerker type mixing with AMIX =  0.4000 and BMIX =      0.0100
 Hartree-type preconditioning will be used
 using additional bands           165
 real space projection scheme for non local part
[...]
     13.54561      0.00000     45.35368         0.005712     -0.005504      0.014691
     13.54315      9.03140     45.35368        -0.005962      0.002138     -0.013807
     13.00235      8.05586     33.62753         0.003017     -0.006379      0.020788
     13.42208      8.99350     32.19936         0.055915     -0.008185      0.077671
     11.97098      9.99424     34.70959         0.079055      0.058695     -0.063032
     12.82679     11.54694     34.62335        -0.020309      0.009072     -0.012028
     15.42264      9.21558     35.41882        -0.033840      0.009540     -0.027593
     14.32821     10.46786     36.00985        -0.017058      0.017690      0.033465
     15.87819     10.10639     33.16598         0.032501     -0.044284     -0.018117
     14.60891     11.13599     32.47483         0.000806      0.083015     -0.062285
     15.76828      8.35700     32.31264         0.017152     -0.116175     -0.016638
     15.60071      7.69287     33.92906         0.026050      0.006694      0.040548
     15.77015      5.89257     32.39515         0.040443     -0.051434     -0.033941
     14.17025      5.85368     33.10912         0.025069      0.074930     -0.028567
     11.53855      9.99355     32.27753         0.059339     -0.009291      0.021117
     12.59432     11.42673     32.04375         0.000348      0.009018     -0.010253
     11.10707     11.54982     32.97383        -0.017932      0.058888     -0.003423
     13.80755      8.42414     37.16346        -0.019313      0.011902     -0.004950
     13.64885      7.48301     35.68242         0.008502     -0.085170     -0.023759
     12.43650      8.71419     36.10185        -0.017684      0.028160     -0.008677
     14.76962     12.52191     34.69762         0.004789      0.020617     -0.007224
     16.19051     12.53474     33.65708        -0.001135     -0.003252     -0.032206
     16.20078     11.50665     35.09426        -0.064944     -0.028472     -0.004558
     14.83189      6.88132     30.28715        -0.011968      0.019744     -0.035204
     14.22163      5.27680     30.69311         0.019546     -0.028854     -0.027271
     11.98271      5.44988     32.36820        -0.008536      0.102642     -0.069342
     13.21933      8.30880     29.38630         0.023398      0.014290     -0.020544
      9.67486      6.36362     32.27419         0.026813     -0.000187     -0.026956
     10.90884      9.19246     29.26804        -0.026044      0.087997     -0.054346
      9.13066      8.24749     30.75195        -0.118844      0.043997     -0.032710
     17.98471      4.33045     34.64463        -0.059096     -0.150970     -0.030958
      0.59134     13.92522     35.25718        -0.051511     -0.015994     -0.000544
      8.44142      4.08474     34.82611         0.187237     -0.059393      0.027132
      9.03302     13.66024     34.68447        -0.170747      0.199099      0.229626
      4.25322      9.58103     34.92014         0.087335      0.251089     -0.108790
      4.84162     17.86559     34.85263        -0.152233     -0.089159      0.090178
     14.07766     17.76321     35.17595         0.146843      0.062653     -0.124696
      0.07338      4.42070     40.51524         0.020908      0.021853     -0.312378
      0.30120     13.87965     40.86443        -0.253782     -0.082171      0.103817
      9.01829      4.51471     40.43270        -0.211129      0.270485     -0.104351
      8.99185     13.55910     40.46483        -0.013276      0.007204     -0.044877
      4.59202      9.02051     40.52397         0.083336      0.134023      0.019013
      4.48969      0.03337     40.43377         0.326451      0.300040      0.014928
     13.41318      9.36672     40.82066        -0.194335      0.079021     -0.171620
     13.58001     18.04721     40.58530         0.302902      0.330608     -0.081689
      9.02897      4.51561     46.44552         0.011056      0.006037      0.017736
      9.02651     13.54701     46.44552         0.020644     -0.004145      0.035475
     18.05937      4.51561     46.44552         0.015062      0.005933      0.035232
     18.05691     13.54701     46.44552         0.016816      0.001307     -0.004076
      4.51521      0.00002     46.44421        -0.004434     -0.006376      0.046199
      4.51275      9.03142     46.44421        -0.006689     -0.004643      0.036013
     13.54561      0.00002     46.44421        -0.012154     -0.013412      0.033416
     13.54315      9.03142     46.44421        -0.007499     -0.002632      0.011723
     12.76993      6.83183     30.88993        -0.002704     -0.050578      0.089433
     11.75338      6.27705     31.68625        -0.086969      0.037358     -0.019012
     12.43908      7.87904     30.01797         0.195662     -0.122122     -0.003286
     10.44984      6.78375     31.63007         0.098153     -0.055364      0.026133
     11.14275      8.37974     29.95284        -0.389976     -0.072552      0.170503
     10.13813      7.84137     30.77162         0.311531      0.019636     -0.092953
     13.80436      8.64401     33.16560         0.052313     -0.065327     -0.094740
     12.63208     10.61105     34.08528        -0.029928     -0.085870      0.045474
     14.36831      9.52735     35.45001         0.064867      0.018913      0.031946
     15.04154     10.76699     33.40969         0.103756      0.000884      0.040513
     15.07323      7.81589     32.97332        -0.120397      0.051851     -0.041688
     14.80382      6.41784     32.40725        -0.009212      0.002216      0.037486
     11.95475     10.88846     32.75517         0.015455      0.017644      0.050879
     13.50518      8.48022     36.11146         0.000261     -0.036951     -0.026587
     15.56491     11.88777     34.28652        -0.040685      0.012143     -0.027985
     14.19427      6.33456     30.99957        -0.004999      0.015185     -0.032664
      1.05177      4.76307     35.15156         0.133648      0.115109     -0.106250
      0.52422     12.82554     35.96420         0.079975      0.045465     -0.051830
      9.69336      3.79087     35.09854        -0.022392      0.014597      0.028817
      8.66165     12.47319     35.10711        -0.006734      0.083522     -0.047559
      7.90644      5.28398     34.83768         0.014441      0.182313      0.068461
      8.55976     14.79515     35.15476         0.190276     -0.178276     -0.203521
     16.79951      4.60928     35.13624        -0.050996      0.175080     -0.147099
     17.66500     14.78988     35.13681        -0.174516      0.044607      0.061629
      4.16354      8.34404     35.33834        -0.302398     -0.251919      0.073252
      3.64263      0.16064     35.22880        -0.062281      0.058405     -0.012975
     12.84955     17.81754     35.62103        -0.305815     -0.367051      0.113653
      5.92136      0.50915     35.09055         0.304856      0.067015     -0.053437
      5.36623     10.22981     34.66915         0.149197      0.061462     -0.002903
     14.88637      0.72658     35.05107        -0.005852      0.179697     -0.048192
      0.87853      3.54512     41.06447        -0.023840      0.031599     -0.097929
      0.99341     12.79049     41.09230         0.225856     -0.055391     -0.000088
      9.78728      3.71913     41.13048         0.146935     -0.120395      0.085697
      9.82166     12.69732     41.00575        -0.004187      0.007957     -0.209508
      3.83468      8.15731     41.15712         0.046038      0.027446     -0.079583
      3.65898     17.27729     41.03393        -0.177569     -0.180278     -0.209752
     12.56060      8.40243     41.06374         0.050491     -0.036716      0.007119
     12.80579     17.25177     41.27843        -0.120341     -0.136412     -0.120946
      8.13429      5.35923     40.92020         0.137488     -0.136002     -0.263746
      8.23527     14.41872     41.10833         0.008180     -0.070197     -0.122186
     17.28905      5.19916     41.14648        -0.112173      0.097100      0.067443
     17.10216     14.04418     41.20211        -0.014916     -0.069049      0.034652
      5.34361      0.84429     41.02417        -0.157003     -0.110542     -0.473406
      5.31638      9.96866     41.07806        -0.206496     -0.276091     -0.004538
     14.40038      0.89713     41.07330        -0.186767     -0.245050     -0.303141
     14.71487      9.27396     40.95881         0.058247      0.168252     -0.016284
      0.82731      3.68697     47.03596         0.018334     -0.025572     -0.087858
      0.82485     12.71837     47.03596         0.024206     -0.023139     -0.063201
      9.85771      3.68697     47.03596         0.023500     -0.028653     -0.077757
      9.85525     12.71837     47.03596         0.013299     -0.017905     -0.077041
      3.68432      8.20234     47.03465        -0.007273     -0.012410     -0.065433
      3.68186     17.23373     47.03465        -0.009834     -0.004680     -0.063412
     12.71472      8.20234     47.03465        -0.008590     -0.012175     -0.049731
     12.71226     17.23373     47.03465        -0.009953     -0.003147     -0.072197
      8.20068      5.34457     47.03603        -0.025101      0.019623     -0.081290
      8.19822     14.37597     47.03603        -0.025950      0.024712     -0.082596
     17.23108      5.34457     47.03603        -0.027593      0.019138     -0.098727
     17.22862     14.37597     47.03603        -0.023305      0.028365     -0.063760
      5.34365      0.82909     47.03465         0.013292      0.016016     -0.065794
      5.34119      9.86049     47.03465         0.019238      0.014843     -0.061915
     14.37405      0.82909     47.03465         0.022158      0.025301     -0.066849
     14.37159      9.86049     47.03465         0.020729      0.019325     -0.061710
     13.97229      9.88198     34.02621        -0.165133     -0.068979     -0.095974
      9.39972      0.19023     34.57026         0.024296     -0.010408     -0.001319
      8.85527      8.92168     34.50618        -0.023800      0.048777      0.002444
      0.22839      0.16788     34.41543        -0.003852      0.005516     -0.008217
      0.42173      9.00686     34.65002         0.030632     -0.022974      0.009109
      4.53680      4.14565     34.56144        -0.002635      0.019107     -0.006191
      4.56422     13.78503     34.50714         0.003556     -0.029680      0.013781
     13.27143      3.84268     34.73014         0.027887     -0.040123     -0.007600
     12.63845     14.38654     34.70232        -0.008077      0.019784     -0.026283
     18.03793     17.80100     40.85759        -0.017721      0.016679     -0.000775
      0.23150      9.04645     40.94248        -0.016739     -0.004817      0.024147
      8.93182      0.07209     40.92858         0.015800     -0.008575      0.008149
      9.02923      8.96526     40.85107        -0.010544      0.007390      0.023500
      4.54946      4.47872     40.90299         0.005246      0.000468      0.013427
      4.50530     13.61499     40.87529         0.003118      0.018135      0.001893
     13.50157      4.86717     40.92969         0.003303     -0.004508      0.008752
     13.52890     13.34935     40.89945        -0.010338     -0.004808     -0.008644
      2.35309      2.18615     37.95697        -0.001291      0.002778      0.005884
      2.69708     10.98551     37.94360         0.047574     -0.026117     -0.003943
     11.52760      2.08031     38.25273        -0.009522      0.003921     -0.008966
     11.40414     11.15815     37.88757        -0.017244      0.026852      0.017237
      6.51966      7.04061     37.79674        -0.006803     -0.033316      0.002789
      6.67220     15.99526     37.97406         0.005770     -0.022617     -0.001315
     16.05194      6.62608     37.96051         0.014540      0.037898      0.040168
     15.65806     15.93000     37.89404        -0.002201     -0.007384     -0.023184
      2.19223      6.62566     38.04073         0.007471     -0.000642     -0.019535
      2.22397     15.81337     37.87560         0.003515      0.002681      0.018793
     10.81699      6.32365     37.54183        -0.008167     -0.018075      0.011529
     11.13790     15.67013     38.41384         0.000555      0.003557     -0.000820
      7.00257      2.44780     37.94146         0.005850     -0.013184     -0.003740
      6.95825     11.47864     38.02553        -0.034773     -0.017272     -0.006936
     15.93176      2.43689     38.15741         0.010158     -0.014675     -0.020010
     16.12649     11.55347     38.28560        -0.021593      0.016805     -0.122832
      0.00000      0.00000     47.17356        -0.000940      0.006907      0.343588
     -0.00246      9.03140     47.17356        -0.001948     -0.004207      0.464602
      9.03040      0.00000     47.17356         0.000964      0.001750      0.415972
      9.02794      9.03140     47.17356        -0.004061      0.001258      0.369980
      4.51398      4.51570     47.17425        -0.001466     -0.002844      0.413532
      4.51152     13.54710     47.17425         0.003521      0.001624      0.403699
     13.54438      4.51570     47.17425         0.007057     -0.000017      0.398874
     13.54192     13.54710     47.17425        -0.002626     -0.001103      0.421383
      2.45192      2.06295     44.04013        -0.012456     -0.016535     -0.055310
      2.44946     11.09435     44.04013         0.059102     -0.029824     -0.018372
     11.48232      2.06295     44.04013         0.026034      0.010631     -0.077960
     11.47986     11.09435     44.04013        -0.085653      0.035761     -0.047312
      6.57602      6.96845     44.04013         0.009750     -0.029112     -0.086431
      6.57356     15.99985     44.04013         0.011289      0.008500     -0.047249
     15.60642      6.96845     44.04013         0.030090     -0.023921     -0.092346
     15.60396     15.99985     44.04013        -0.042298      0.048522     -0.034022
      2.06108      6.57881     44.04000         0.028741     -0.027668     -0.032618
      2.05862     15.61021     44.04000         0.051343      0.066186     -0.035430
     11.09148      6.57881     44.04000        -0.035142     -0.028121     -0.009106
     11.08902     15.61021     44.04000        -0.038266     -0.009533     -0.038783
      6.96686      2.45259     44.04007        -0.012313     -0.001929     -0.050339
      6.96440     11.48399     44.04007        -0.007678      0.004679     -0.065197
     15.99726      2.45259     44.04007         0.017368      0.017981     -0.094552
     15.99481     11.48399     44.04007         0.039877      0.020253     -0.113340
      2.43163      2.08322     50.06849         0.004911     -0.013847      0.020751
      2.42917     11.11462     50.06849         0.016040     -0.006188      0.024730
     11.46203      2.08322     50.06849         0.012379     -0.008520      0.021943
     11.45957     11.11462     50.06849         0.005650     -0.013934      0.023347
      6.59631      6.94818     50.06849        -0.010195      0.010825      0.022711
      6.59385     15.97958     50.06849        -0.008907      0.012718      0.022679
     15.62671      6.94818     50.06849        -0.015928      0.002102      0.021027
     15.62425     15.97958     50.06849        -0.004402      0.019932      0.024431
      2.08113      6.59901     50.06905        -0.004867     -0.016798      0.022203
      2.07867     15.63041     50.06905        -0.015343     -0.002445      0.023213
     11.11153      6.59901     50.06905        -0.010523     -0.010902      0.023746
     11.10907     15.63041     50.06905        -0.012401     -0.006575      0.022684
      6.94681      2.43239     50.06905         0.009980      0.010185      0.022189
      6.94435     11.46379     50.06905         0.011942      0.008895      0.023607
     15.97721      2.43239     50.06905         0.014125      0.007391      0.021145
     15.97475     11.46379     50.06905         0.006376      0.012972      0.024648
     18.03020      0.06576     37.73525        -0.029536     -0.010018     -0.004535
      0.08598      9.11481     37.75564        -0.006117      0.003981     -0.008541
      9.12009      0.01902     37.82751        -0.018078      0.038567      0.007450
      9.06713      8.99665     37.67977        -0.007930      0.003961      0.008550
      4.54973      4.50028     37.76073         0.012801      0.005545     -0.012085
      4.53057     13.61297     37.67276        -0.024153     -0.013775     -0.007428
     13.49364      4.53650     37.80837         0.005827     -0.003500      0.007903
     13.41660     13.65527     37.71605        -0.001157      0.002196      0.024907
      0.00001      0.00001     44.04300        -0.011861     -0.130111      0.089981
     -0.00245      9.03141     44.04300         0.041952      0.042408      0.176087
      9.03041      0.00001     44.04300        -0.000683     -0.012408      0.162278
      9.02795      9.03141     44.04300         0.078465     -0.024782      0.113392
      4.51397      4.51569     44.04275         0.000062      0.034626      0.110701
      4.51151     13.54709     44.04275        -0.065936      0.000941      0.106759
     13.54437      4.51569     44.04275        -0.107233      0.045034      0.205371
     13.54191     13.54709     44.04275         0.013933     -0.008681      0.113408
      0.00000      0.00000     50.44728        -0.001103     -0.005385     -0.613462
     -0.00246      9.03140     50.44728        -0.000271      0.005992     -0.647246
      9.03040      0.00000     50.44728        -0.000281     -0.002586     -0.631852
      9.02794      9.03140     50.44728         0.001226      0.003497     -0.624085
      4.51397      4.51570     50.44728        -0.000159      0.006843     -0.631775
      4.51151     13.54710     50.44728        -0.001848     -0.006607     -0.632814
     13.54437      4.51570     50.44728        -0.000819      0.007630     -0.627776
     13.54191     13.54710     50.44728         0.002668     -0.006320     -0.638738
 -----------------------------------------------------------------------------------
    total drift:                                0.025255     -0.125939      0.251505


--------------------------------------------------------------------------------------------------------



  FREE ENERGIE OF THE ION-ELECTRON SYSTEM (eV)
  ---------------------------------------------------
  free  energy   TOTEN  =     -1576.28229530 eV

  energy  without entropy=    -1576.28229530  energy(sigma->0) =    -1576.28229530
 


--------------------------------------------------------------------------------------------------------


    POTLOK:  cpu time    0.5041: real time    0.5040


--------------------------------------------------------------------------------------------------------


     LOOP+:  cpu time  264.7871: real time  265.3588
 vacuum level on the upper side and lower side of the slab         2.338         1.510
    4ORBIT:  cpu time    0.0000: real time    0.0000

 total amount of memory used by VASP MPI-rank0  8653574. kBytes
=======================================================================

   base      :      30000. kBytes
   nonlr-proj:      53612. kBytes
   fftplans  :     249280. kBytes
   grid      :     701440. kBytes
   one-center:       2636. kBytes
   wavefun   :    7616606. kBytes
 
  
  
 General timing and accounting informations for this job:
 ========================================================
  
                  Total CPU time used (sec):      478.317
                            User time (sec):      391.689
                          System time (sec):       86.627
                         Elapsed time (sec):      481.361
  
                   Maximum memory used (kb):    10307168.
                   Average memory used (kb):          N/A
  
                          Minor page faults:      3542565
                          Major page faults:           13
                 Voluntary context switches:        11118
