<?xml version="1.0" encoding="ISO-8859-1"?>
<modeling>
 <generator>
  <i name="program" type="string">vasp </i>
  <i name="version" type="string">6.2.1  </i>
  <i name="subversion" type="string">16May21 (build Nov 15 2021 14:57:28) complex                          parallel </i>
  <i name="platform" type="string">LinuxPGI </i>
  <i name="date" type="string">2023 07 30 </i>
  <i name="time" type="string">22:48:44 </i>
 </generator>
 <incar>
  <i type="string" name="SYSTEM">PSC</i>
  <i type="int" name="ISTART">     1</i>
  <i type="string" name="PREC">Normal</i>
  <i name="BMIX">      0.01000000</i>
  <i name="AMIN">      0.01000000</i>
  <i type="int" name="ICHARG">     1</i>
  <i type="int" name="NELM">   600</i>
  <i type="int" name="ISYM">     0</i>
  <i name="ENCUT">    500.00000000</i>
  <i type="string" name="LREAL">Auto</i>
  <i type="int" name="ISMEAR">     0</i>
  <i name="SIGMA">      0.05000000</i>
  <i type="logical" name="LWAVE"> F  </i>
  <i type="logical" name="LVTOT"> T  </i>
  <i type="logical" name="GGA_COMPAT"> F  </i>
  <i type="logical" name="LDIPOL"> T  </i>
  <i type="int" name="IDIPOL">     3</i>
  <i type="int" name="IVDW">    12</i>
 </incar>
 <primitive_cell>
  <structure name="primitive_cell" >
   <crystal>
    <varray name="basis" >
     <v>      18.06080055       0.00000000       0.00000000 </v>
     <v>      -0.00491865      18.06279945       0.00000000 </v>
     <v>       0.00000000       0.00000000      62.48749924 </v>
    </varray>
    <i name="volume">  20385.21054034 </i>
    <varray name="rec_basis" >
     <v>       0.05536853       0.00001508      -0.00000000 </v>
     <v>       0.00000000       0.05536240       0.00000000 </v>
     <v>       0.00000000      -0.00000000       0.01600320 </v>
    </varray>
   </crystal>
   <varray name="positions" >
    <v>       0.46517704       0.33961341       0.56223837 </v>
    <v>       0.43711100       0.82197428       0.57496168 </v>
    <v>       0.92332667       0.29064816       0.57510172 </v>
    <v>       0.93349714       0.81794856       0.57252406 </v>
    <v>       0.32642609       0.07534503       0.57060809 </v>
    <v>       0.34915289       0.54385314       0.55671633 </v>
    <v>       0.80724646       0.09324955       0.56435769 </v>
    <v>       0.10864899       0.25007574       0.55597723 </v>
    <v>       0.07466966       0.67689680       0.57757536 </v>
    <v>       0.55298988       0.15544510       0.56117181 </v>
    <v>       0.50216793       0.64304165       0.55575203 </v>
    <v>       0.37989178       0.01015098       0.55730458 </v>
    <v>       0.29361749       0.62159591       0.55114600 </v>
    <v>       0.87726267       0.03267555       0.55548098 </v>
    <v>       0.06075047       0.29778509       0.57566891 </v>
    <v>       0.98537767       0.69849777       0.58545468 </v>
    <v>       0.57342056       0.24807228       0.56768764 </v>
    <v>       0.44437849       0.68365866       0.57464686 </v>
    <v>       0.27450039       0.43314148       0.57160823 </v>
    <v>       0.19110350       0.05606521       0.57238609 </v>
    <v>       0.68824731       0.03304452       0.57619349 </v>
    <v>       0.38174753       0.29591940       0.55512831 </v>
    <v>       0.49583124       0.86852559       0.55748754 </v>
    <v>       0.88250709       0.23519075       0.55561711 </v>
    <v>       0.98830752       0.86909596       0.55519179 </v>
    <v>       0.17908579       0.44172095       0.56892055 </v>
    <v>       0.15616546       0.97808256       0.56018999 </v>
    <v>       0.68260623       0.93758626       0.57079599 </v>
    <v>       0.43093022       0.18053792       0.55281119 </v>
    <v>       0.54222885       0.76007008       0.54257526 </v>
    <v>       0.99862861       0.20366562       0.54035399 </v>
    <v>       0.08435801       0.78143055       0.55549844 </v>
    <v>       0.18380293       0.55968696       0.55598761 </v>
    <v>       0.27436134       0.93620110       0.54941116 </v>
    <v>       0.79926635       0.92895208       0.55797690 </v>
    <v>       0.44026835       0.30358655       0.67074213 </v>
    <v>       0.45408620       0.80363917       0.67406866 </v>
    <v>       0.95012230       0.28758254       0.67467828 </v>
    <v>       0.91747968       0.73807456       0.66748012 </v>
    <v>       0.30190067       0.05143283       0.67259400 </v>
    <v>       0.29776316       0.56092876       0.67346179 </v>
    <v>       0.80512407       0.05892960       0.67318433 </v>
    <v>       0.84029042       0.46816024       0.66169070 </v>
    <v>       0.08305544       0.16670516       0.64743424 </v>
    <v>       0.11073674       0.70691557       0.65404445 </v>
    <v>       0.57775689       0.17169718       0.65032709 </v>
    <v>       0.57432493       0.66981916       0.64625127 </v>
    <v>       0.18334238       0.41387538       0.64994976 </v>
    <v>       0.16893472       0.92464334       0.64728810 </v>
    <v>       0.63976501       0.47422559       0.65518201 </v>
    <v>       0.67573784       0.91889423       0.65247468 </v>
    <v>       0.05267036       0.18727152       0.67320295 </v>
    <v>       0.03419749       0.66335847       0.66549975 </v>
    <v>       0.54158946       0.20306841       0.67448818 </v>
    <v>       0.55322712       0.69831519       0.67223425 </v>
    <v>       0.20546387       0.45027454       0.67480501 </v>
    <v>       0.19877261       0.95046653       0.67283874 </v>
    <v>       0.71251296       0.41325462       0.66163997 </v>
    <v>       0.70640058       0.95546441       0.67683838 </v>
    <v>       0.42027639       0.32817967       0.64448712 </v>
    <v>       0.42285580       0.83240811       0.64918673 </v>
    <v>       0.92466314       0.32235495       0.64956693 </v>
    <v>       0.92080623       0.82552054       0.65554371 </v>
    <v>       0.32863248       0.07959679       0.64714689 </v>
    <v>       0.32362085       0.58644246       0.64771262 </v>
    <v>       0.82889522       0.07964754       0.64678806 </v>
    <v>       0.84793178       0.55674723       0.65124378 </v>
    <v>       0.00606615       0.25013453       0.63090036 </v>
    <v>       0.04405624       0.81395114       0.64562340 </v>
    <v>       0.50587047       0.24832156       0.62967086 </v>
    <v>       0.49381060       0.75042114       0.63013250 </v>
    <v>       0.24775962       0.00289196       0.62957514 </v>
    <v>       0.25624720       0.49542318       0.63108832 </v>
    <v>       0.75061149       0.99360525       0.63207595 </v>
    <v>       0.72082556       0.57126660       0.64736367 </v>
    <v>       0.44874502       0.30128397       0.76888902 </v>
    <v>       0.44874501       0.80128391       0.76888902 </v>
    <v>       0.94874497       0.30128397       0.76888902 </v>
    <v>       0.94874501       0.80128391       0.76888902 </v>
    <v>       0.30127600       0.05129450       0.76887296 </v>
    <v>       0.30127601       0.55129450       0.76887296 </v>
    <v>       0.80127594       0.05129450       0.76887296 </v>
    <v>       0.80127598       0.55129450       0.76887296 </v>
    <v>       0.07877100       0.17118050       0.74344197 </v>
    <v>       0.07877101       0.67118045       0.74344197 </v>
    <v>       0.57877100       0.17118050       0.74344197 </v>
    <v>       0.57877099       0.67118045       0.74344197 </v>
    <v>       0.17119950       0.42117448       0.74342103 </v>
    <v>       0.17119950       0.92117451       0.74342103 </v>
    <v>       0.67119951       0.42117448       0.74342103 </v>
    <v>       0.67119950       0.92117451       0.74342103 </v>
    <v>       0.05125600       0.19871499       0.76888902 </v>
    <v>       0.05125600       0.69871493       0.76888902 </v>
    <v>       0.55125603       0.19871499       0.76888902 </v>
    <v>       0.55125602       0.69871493       0.76888902 </v>
    <v>       0.19872349       0.44870397       0.76887205 </v>
    <v>       0.19872349       0.94870397       0.76887205 </v>
    <v>       0.69872352       0.44870397       0.76887205 </v>
    <v>       0.69872351       0.94870397       0.76887205 </v>
    <v>       0.42123152       0.32881747       0.74344197 </v>
    <v>       0.42123151       0.82881744       0.74344197 </v>
    <v>       0.92123147       0.32881747       0.74344197 </v>
    <v>       0.92123151       0.82881744       0.74344197 </v>
    <v>       0.32880050       0.07882500       0.74342103 </v>
    <v>       0.32880049       0.57882496       0.74342103 </v>
    <v>       0.82880048       0.07882500       0.74342103 </v>
    <v>       0.82880052       0.57882496       0.74342103 </v>
    <v>       0.00000350       0.25000148       0.72582199 </v>
    <v>       0.00000350       0.75000145       0.72582199 </v>
    <v>       0.50000351       0.25000148       0.72582199 </v>
    <v>       0.50000350       0.75000145       0.72582199 </v>
    <v>       0.25000050       0.00000000       0.72580398 </v>
    <v>       0.25000052       0.50000000       0.72580398 </v>
    <v>       0.75000050       0.00000000       0.72580398 </v>
    <v>       0.75000049       0.50000000       0.72580398 </v>
    <v>       0.72004253       0.44599196       0.53814804 </v>
    <v>       0.74329619       0.49790166       0.51529282 </v>
    <v>       0.66296620       0.55330509       0.55546462 </v>
    <v>       0.71037435       0.63926624       0.55408446 </v>
    <v>       0.85406760       0.51019645       0.56681448 </v>
    <v>       0.79348992       0.57952617       0.57627292 </v>
    <v>       0.87930417       0.55951378       0.53076186 </v>
    <v>       0.80904193       0.61651497       0.51970124 </v>
    <v>       0.87319230       0.46266368       0.51710575 </v>
    <v>       0.86390417       0.42589605       0.54297359 </v>
    <v>       0.87325874       0.32622708       0.51842614 </v>
    <v>       0.78467397       0.32407394       0.52985195 </v>
    <v>       0.63902310       0.55326681       0.51654381 </v>
    <v>       0.69750130       0.63261151       0.51280264 </v>
    <v>       0.61515629       0.63942590       0.52768678 </v>
    <v>       0.76463096       0.46638085       0.59473425 </v>
    <v>       0.75582947       0.41427754       0.57103291 </v>
    <v>       0.68872221       0.48243859       0.57774519 </v>
    <v>       0.81796101       0.69324297       0.55527305 </v>
    <v>       0.89663395       0.69395347       0.53862104 </v>
    <v>       0.89718661       0.63703602       0.56162057 </v>
    <v>       0.82132351       0.38096621       0.48469134 </v>
    <v>       0.78751054       0.29213618       0.49118800 </v>
    <v>       0.66354722       0.30171865       0.51799484 </v>
    <v>       0.73206042       0.45999529       0.47027488 </v>
    <v>       0.53577852       0.35230503       0.51649033 </v>
    <v>       0.60414506       0.50891653       0.46838226 </v>
    <v>       0.50567532       0.45660066       0.49212959 </v>
    <v>       0.99585252       0.23974394       0.55442498 </v>
    <v>       0.03295164       0.77093352       0.56422766 </v>
    <v>       0.46745070       0.22614117       0.55732919 </v>
    <v>       0.50035101       0.75626352       0.55506250 </v>
    <v>       0.23563908       0.53042858       0.55883400 </v>
    <v>       0.26834272       0.98908227       0.55775371 </v>
    <v>       0.77972697       0.98341427       0.56292772 </v>
    <v>       0.00412940       0.24474079       0.64837346 </v>
    <v>       0.01688637       0.76841069       0.65396161 </v>
    <v>       0.49939731       0.24994506       0.64705258 </v>
    <v>       0.49806996       0.75066459       0.64756684 </v>
    <v>       0.25438936       0.49939726       0.64851319 </v>
    <v>       0.24858801       0.00184749       0.64706979 </v>
    <v>       0.74280906       0.51856431       0.65326121 </v>
    <v>       0.75217741       0.99913709       0.64949478 </v>
    <v>       0.49998898       0.24999498       0.74327702 </v>
    <v>       0.49998903       0.74999496       0.74327702 </v>
    <v>       0.99998898       0.24999498       0.74327702 </v>
    <v>       0.99998903       0.74999496       0.74327702 </v>
    <v>       0.25000050       0.00000100       0.74325596 </v>
    <v>       0.25000052       0.50000100       0.74325596 </v>
    <v>       0.75000050       0.00000100       0.74325596 </v>
    <v>       0.75000049       0.50000100       0.74325596 </v>
    <v>       0.70715553       0.37822667       0.49433767 </v>
    <v>       0.65086212       0.34751239       0.50708146 </v>
    <v>       0.68885224       0.43620258       0.48038362 </v>
    <v>       0.57869481       0.37556495       0.50618230 </v>
    <v>       0.61708393       0.46392280       0.47934133 </v>
    <v>       0.56145160       0.43411691       0.49244447 </v>
    <v>       0.76445749       0.47855299       0.53075569 </v>
    <v>       0.69957997       0.58745301       0.54547360 </v>
    <v>       0.79569587       0.52745692       0.56731360 </v>
    <v>       0.83299011       0.59608670       0.53466205 </v>
    <v>       0.83470033       0.43270648       0.52767860 </v>
    <v>       0.81976252       0.35530731       0.51861972 </v>
    <v>       0.66208112       0.60281154       0.52418761 </v>
    <v>       0.74788965       0.46948530       0.57789891 </v>
    <v>       0.86198539       0.65813577       0.54869404 </v>
    <v>       0.78601161       0.35069654       0.49609242 </v>
    <v>       0.05830694       0.26369475       0.56253750 </v>
    <v>       0.02921874       0.71005286       0.57554224 </v>
    <v>       0.53676417       0.20987182       0.56168900 </v>
    <v>       0.47977110       0.69054580       0.56182606 </v>
    <v>       0.43784773       0.29253396       0.55751446 </v>
    <v>       0.47416468       0.81909495       0.56258866 </v>
    <v>       0.93023395       0.25518096       0.56229234 </v>
    <v>       0.97830815       0.81880346       0.56230137 </v>
    <v>       0.23065474       0.46194637       0.56552650 </v>
    <v>       0.20168926       0.00889363       0.56377353 </v>
    <v>       0.71172912       0.98642161       0.57005054 </v>
    <v>       0.32786492       0.02818760       0.56156117 </v>
    <v>       0.29727451       0.56634691       0.55481733 </v>
    <v>       0.82424743       0.04022529       0.56092933 </v>
    <v>       0.04869615       0.19626618       0.65716293 </v>
    <v>       0.05519625       0.70811234       0.65760828 </v>
    <v>       0.54196356       0.20589987       0.65821930 </v>
    <v>       0.54400217       0.70295442       0.65622323 </v>
    <v>       0.21244345       0.45160848       0.65864559 </v>
    <v>       0.20285294       0.95651230       0.65667425 </v>
    <v>       0.69558889       0.46517891       0.65715134 </v>
    <v>       0.70929781       0.95509930       0.66058702 </v>
    <v>       0.45046427       0.29669994       0.65485412 </v>
    <v>       0.45619228       0.79825523       0.65786486 </v>
    <v>       0.95734796       0.28783805       0.65847545 </v>
    <v>       0.94713341       0.77751961       0.65936571 </v>
    <v>       0.29588077       0.04674208       0.65651809 </v>
    <v>       0.29451030       0.55188895       0.65738045 </v>
    <v>       0.79734142       0.04966707       0.65730420 </v>
    <v>       0.81488064       0.51342878       0.65547198 </v>
    <v>       0.04586250       0.20411950       0.75272599 </v>
    <v>       0.04586250       0.70411946       0.75272599 </v>
    <v>       0.54586251       0.20411950       0.75272599 </v>
    <v>       0.54586250       0.70411946       0.75272599 </v>
    <v>       0.20411900       0.45410100       0.75270499 </v>
    <v>       0.20411899       0.95410095       0.75270499 </v>
    <v>       0.70411898       0.45410100       0.75270499 </v>
    <v>       0.70411896       0.95410095       0.75270499 </v>
    <v>       0.45414002       0.29588849       0.75272697 </v>
    <v>       0.45414001       0.79588852       0.75272697 </v>
    <v>       0.95414002       0.29588849       0.75272697 </v>
    <v>       0.95414006       0.79588852       0.75272697 </v>
    <v>       0.29588249       0.04590050       0.75270499 </v>
    <v>       0.29588248       0.54590053       0.75270499 </v>
    <v>       0.79588244       0.04590050       0.75270499 </v>
    <v>       0.79588248       0.54590053       0.75270499 </v>
    <v>       0.77377438       0.54709032       0.54452835 </v>
    <v>       0.52045131       0.01053134       0.55323486 </v>
    <v>       0.49043762       0.49392562       0.55220939 </v>
    <v>       0.01264791       0.00929450       0.55075701 </v>
    <v>       0.02348640       0.49864141       0.55451118 </v>
    <v>       0.25125858       0.22951296       0.55309372 </v>
    <v>       0.25292178       0.76317226       0.55222465 </v>
    <v>       0.73487763       0.21274015       0.55579348 </v>
    <v>       0.69998925       0.79647362       0.55534826 </v>
    <v>       0.99900228       0.98550630       0.65385221 </v>
    <v>       0.01295445       0.50083315       0.65521076 </v>
    <v>       0.49454273       0.00399094       0.65498831 </v>
    <v>       0.50007012       0.49633811       0.65374788 </v>
    <v>       0.25196457       0.24795290       0.65457880 </v>
    <v>       0.24965699       0.75375854       0.65413553 </v>
    <v>       0.74763542       0.26945807       0.65500601 </v>
    <v>       0.74927634       0.73905205       0.65452215 </v>
    <v>       0.13032010       0.12103044       0.60743308 </v>
    <v>       0.14949922       0.60818434       0.60721905 </v>
    <v>       0.63829782       0.11517110       0.61216608 </v>
    <v>       0.63159874       0.61774183       0.60632244 </v>
    <v>       0.36109028       0.38978535       0.60486878 </v>
    <v>       0.36967125       0.88553627       0.60770645 </v>
    <v>       0.88887208       0.36683546       0.60748961 </v>
    <v>       0.86720408       0.88192311       0.60642598 </v>
    <v>       0.12148044       0.36681267       0.60877337 </v>
    <v>       0.12337616       0.87546606       0.60613088 </v>
    <v>       0.59901592       0.35009270       0.60078948 </v>
    <v>       0.61692545       0.86753627       0.61474436 </v>
    <v>       0.38775890       0.13551634       0.60718474 </v>
    <v>       0.38544110       0.63548503       0.60853016 </v>
    <v>       0.88215510       0.13491216       0.61064075 </v>
    <v>       0.89307435       0.63962775       0.61269219 </v>
    <v>       0.00000000       0.00000000       0.75492797 </v>
    <v>       0.00000000       0.50000000       0.75492797 </v>
    <v>       0.50000000       0.00000000       0.75492797 </v>
    <v>       0.49999999       0.50000000       0.75492797 </v>
    <v>       0.25000050       0.25000000       0.75493902 </v>
    <v>       0.25000051       0.74999997       0.75493902 </v>
    <v>       0.75000047       0.25000000       0.75493902 </v>
    <v>       0.75000046       0.74999997       0.75493902 </v>
    <v>       0.13579050       0.11421000       0.70478299 </v>
    <v>       0.13579050       0.61420998       0.70478299 </v>
    <v>       0.63579045       0.11421000       0.70478299 </v>
    <v>       0.63579049       0.61420998       0.70478299 </v>
    <v>       0.36420952       0.38578999       0.70478299 </v>
    <v>       0.36420950       0.88578996       0.70478299 </v>
    <v>       0.86420954       0.38578999       0.70478299 </v>
    <v>       0.86420953       0.88578996       0.70478299 </v>
    <v>       0.11421799       0.36421899       0.70478098 </v>
    <v>       0.11421799       0.86421899       0.70478098 </v>
    <v>       0.61421800       0.36421899       0.70478098 </v>
    <v>       0.61421799       0.86421899       0.70478098 </v>
    <v>       0.38578201       0.13578149       0.70478202 </v>
    <v>       0.38578200       0.63578149       0.70478202 </v>
    <v>       0.88578199       0.13578149       0.70478202 </v>
    <v>       0.88578203       0.63578149       0.70478202 </v>
    <v>       0.13466700       0.11533200       0.80125603 </v>
    <v>       0.13466699       0.61533199       0.80125603 </v>
    <v>       0.63466699       0.11533200       0.80125603 </v>
    <v>       0.63466698       0.61533199       0.80125603 </v>
    <v>       0.36533300       0.38466799       0.80125603 </v>
    <v>       0.36533299       0.88466796       0.80125603 </v>
    <v>       0.86533295       0.38466799       0.80125603 </v>
    <v>       0.86533294       0.88466796       0.80125603 </v>
    <v>       0.11532850       0.36533700       0.80126500 </v>
    <v>       0.11532850       0.86533698       0.80126500 </v>
    <v>       0.61532850       0.36533700       0.80126500 </v>
    <v>       0.61532849       0.86533698       0.80126500 </v>
    <v>       0.38467151       0.13466300       0.80126500 </v>
    <v>       0.38467150       0.63466297       0.80126500 </v>
    <v>       0.88467149       0.13466300       0.80126500 </v>
    <v>       0.88467153       0.63466297       0.80126500 </v>
    <v>       0.99830654       0.00364091       0.60388482 </v>
    <v>       0.00489810       0.50461774       0.60421112 </v>
    <v>       0.50496604       0.00105303       0.60536125 </v>
    <v>       0.50216911       0.49807626       0.60299689 </v>
    <v>       0.25197968       0.24914608       0.60429256 </v>
    <v>       0.25105615       0.75364661       0.60288481 </v>
    <v>       0.74719116       0.25115168       0.60505492 </v>
    <v>       0.74306323       0.75598866       0.60357745 </v>
    <v>       0.00000050       0.00000050       0.70482896 </v>
    <v>       0.00000050       0.50000048       0.70482896 </v>
    <v>       0.50000048       0.00000050       0.70482896 </v>
    <v>       0.50000046       0.50000048       0.70482896 </v>
    <v>       0.24999999       0.24999947       0.70482499 </v>
    <v>       0.25000001       0.74999950       0.70482499 </v>
    <v>       0.74999999       0.24999947       0.70482499 </v>
    <v>       0.74999998       0.74999950       0.70482499 </v>
    <v>       0.00000000       0.00000000       0.80731797 </v>
    <v>       0.00000000       0.50000000       0.80731797 </v>
    <v>       0.50000000       0.00000000       0.80731797 </v>
    <v>       0.49999999       0.50000000       0.80731797 </v>
    <v>       0.24999999       0.25000000       0.80731797 </v>
    <v>       0.25000001       0.74999997       0.80731797 </v>
    <v>       0.74999999       0.25000000       0.80731797 </v>
    <v>       0.74999998       0.74999997       0.80731797 </v>
   </varray>
  </structure>
  <varray name="primitive_index" >
   <v type="int" >        1 </v>
   <v type="int" >        2 </v>
   <v type="int" >        3 </v>
   <v type="int" >        4 </v>
   <v type="int" >        5 </v>
   <v type="int" >        6 </v>
   <v type="int" >        7 </v>
   <v type="int" >        8 </v>
   <v type="int" >        9 </v>
   <v type="int" >       10 </v>
   <v type="int" >       11 </v>
   <v type="int" >       12 </v>
   <v type="int" >       13 </v>
   <v type="int" >       14 </v>
   <v type="int" >       15 </v>
   <v type="int" >       16 </v>
   <v type="int" >       17 </v>
   <v type="int" >       18 </v>
   <v type="int" >       19 </v>
   <v type="int" >       20 </v>
   <v type="int" >       21 </v>
   <v type="int" >       22 </v>
   <v type="int" >       23 </v>
   <v type="int" >       24 </v>
   <v type="int" >       25 </v>
   <v type="int" >       26 </v>
   <v type="int" >       27 </v>
   <v type="int" >       28 </v>
   <v type="int" >       29 </v>
   <v type="int" >       30 </v>
   <v type="int" >       31 </v>
   <v type="int" >       32 </v>
   <v type="int" >       33 </v>
   <v type="int" >       34 </v>
   <v type="int" >       35 </v>
   <v type="int" >       36 </v>
   <v type="int" >       37 </v>
   <v type="int" >       38 </v>
   <v type="int" >       39 </v>
   <v type="int" >       40 </v>
   <v type="int" >       41 </v>
   <v type="int" >       42 </v>
   <v type="int" >       43 </v>
   <v type="int" >       44 </v>
   <v type="int" >       45 </v>
   <v type="int" >       46 </v>
   <v type="int" >       47 </v>
   <v type="int" >       48 </v>
   <v type="int" >       49 </v>
   <v type="int" >       50 </v>
   <v type="int" >       51 </v>
   <v type="int" >       52 </v>
   <v type="int" >       53 </v>
   <v type="int" >       54 </v>
   <v type="int" >       55 </v>
   <v type="int" >       56 </v>
   <v type="int" >       57 </v>
   <v type="int" >       58 </v>
   <v type="int" >       59 </v>
   <v type="int" >       60 </v>
   <v type="int" >       61 </v>
   <v type="int" >       62 </v>
   <v type="int" >       63 </v>
   <v type="int" >       64 </v>
   <v type="int" >       65 </v>
   <v type="int" >       66 </v>
   <v type="int" >       67 </v>
   <v type="int" >       68 </v>
   <v type="int" >       69 </v>
   <v type="int" >       70 </v>
   <v type="int" >       71 </v>
   <v type="int" >       72 </v>
   <v type="int" >       73 </v>
   <v type="int" >       74 </v>
   <v type="int" >       75 </v>
   <v type="int" >       76 </v>
   <v type="int" >       77 </v>
   <v type="int" >       78 </v>
   <v type="int" >       79 </v>
   <v type="int" >       80 </v>
   <v type="int" >       81 </v>
   <v type="int" >       82 </v>
   <v type="int" >       83 </v>
   <v type="int" >       84 </v>
   <v type="int" >       85 </v>
   <v type="int" >       86 </v>
   <v type="int" >       87 </v>
   <v type="int" >       88 </v>
   <v type="int" >       89 </v>
   <v type="int" >       90 </v>
   <v type="int" >       91 </v>
   <v type="int" >       92 </v>
   <v type="int" >       93 </v>
   <v type="int" >       94 </v>
   <v type="int" >       95 </v>
   <v type="int" >       96 </v>
   <v type="int" >       97 </v>
   <v type="int" >       98 </v>
   <v type="int" >       99 </v>
   <v type="int" >      100 </v>
   <v type="int" >      101 </v>
   <v type="int" >      102 </v>
   <v type="int" >      103 </v>
   <v type="int" >      104 </v>
   <v type="int" >      105 </v>
   <v type="int" >      106 </v>
   <v type="int" >      107 </v>
   <v type="int" >      108 </v>
   <v type="int" >      109 </v>
   <v type="int" >      110 </v>
   <v type="int" >      111 </v>
   <v type="int" >      112 </v>
   <v type="int" >      113 </v>
   <v type="int" >      114 </v>
   <v type="int" >      115 </v>
   <v type="int" >      116 </v>
   <v type="int" >      117 </v>
   <v type="int" >      118 </v>
   <v type="int" >      119 </v>
   <v type="int" >      120 </v>
   <v type="int" >      121 </v>
   <v type="int" >      122 </v>
   <v type="int" >      123 </v>
   <v type="int" >      124 </v>
   <v type="int" >      125 </v>
   <v type="int" >      126 </v>
   <v type="int" >      127 </v>
   <v type="int" >      128 </v>
   <v type="int" >      129 </v>
   <v type="int" >      130 </v>
   <v type="int" >      131 </v>
   <v type="int" >      132 </v>
   <v type="int" >      133 </v>
   <v type="int" >      134 </v>
   <v type="int" >      135 </v>
   <v type="int" >      136 </v>
   <v type="int" >      137 </v>
   <v type="int" >      138 </v>
   <v type="int" >      139 </v>
   <v type="int" >      140 </v>
   <v type="int" >      141 </v>
   <v type="int" >      142 </v>
   <v type="int" >      143 </v>
   <v type="int" >      144 </v>
   <v type="int" >      145 </v>
   <v type="int" >      146 </v>
   <v type="int" >      147 </v>
   <v type="int" >      148 </v>
   <v type="int" >      149 </v>
   <v type="int" >      150 </v>
   <v type="int" >      151 </v>
   <v type="int" >      152 </v>
   <v type="int" >      153 </v>
   <v type="int" >      154 </v>
   <v type="int" >      155 </v>
   <v type="int" >      156 </v>
   <v type="int" >      157 </v>
   <v type="int" >      158 </v>
   <v type="int" >      159 </v>
   <v type="int" >      160 </v>
   <v type="int" >      161 </v>
   <v type="int" >      162 </v>
   <v type="int" >      163 </v>
   <v type="int" >      164 </v>
   <v type="int" >      165 </v>
   <v type="int" >      166 </v>
   <v type="int" >      167 </v>
   <v type="int" >      168 </v>
   <v type="int" >      169 </v>
   <v type="int" >      170 </v>
   <v type="int" >      171 </v>
   <v type="int" >      172 </v>
   <v type="int" >      173 </v>
   <v type="int" >      174 </v>
   <v type="int" >      175 </v>
   <v type="int" >      176 </v>
   <v type="int" >      177 </v>
   <v type="int" >      178 </v>
   <v type="int" >      179 </v>
   <v type="int" >      180 </v>
   <v type="int" >      181 </v>
   <v type="int" >      182 </v>
   <v type="int" >      183 </v>
   <v type="int" >      184 </v>
   <v type="int" >      185 </v>
   <v type="int" >      186 </v>
   <v type="int" >      187 </v>
   <v type="int" >      188 </v>
   <v type="int" >      189 </v>
   <v type="int" >      190 </v>
   <v type="int" >      191 </v>
   <v type="int" >      192 </v>
   <v type="int" >      193 </v>
   <v type="int" >      194 </v>
   <v type="int" >      195 </v>
   <v type="int" >      196 </v>
   <v type="int" >      197 </v>
   <v type="int" >      198 </v>
   <v type="int" >      199 </v>
   <v type="int" >      200 </v>
   <v type="int" >      201 </v>
   <v type="int" >      202 </v>
   <v type="int" >      203 </v>
   <v type="int" >      204 </v>
   <v type="int" >      205 </v>
   <v type="int" >      206 </v>
   <v type="int" >      207 </v>
   <v type="int" >      208 </v>
   <v type="int" >      209 </v>
   <v type="int" >      210 </v>
   <v type="int" >      211 </v>
   <v type="int" >      212 </v>
   <v type="int" >      213 </v>
   <v type="int" >      214 </v>
   <v type="int" >      215 </v>
   <v type="int" >      216 </v>
   <v type="int" >      217 </v>
   <v type="int" >      218 </v>
   <v type="int" >      219 </v>
   <v type="int" >      220 </v>
   <v type="int" >      221 </v>
   <v type="int" >      222 </v>
   <v type="int" >      223 </v>
   <v type="int" >      224 </v>
   <v type="int" >      225 </v>
   <v type="int" >      226 </v>
   <v type="int" >      227 </v>
   <v type="int" >      228 </v>
   <v type="int" >      229 </v>
   <v type="int" >      230 </v>
   <v type="int" >      231 </v>
   <v type="int" >      232 </v>
   <v type="int" >      233 </v>
   <v type="int" >      234 </v>
   <v type="int" >      235 </v>
   <v type="int" >      236 </v>
   <v type="int" >      237 </v>
   <v type="int" >      238 </v>
   <v type="int" >      239 </v>
   <v type="int" >      240 </v>
   <v type="int" >      241 </v>
   <v type="int" >      242 </v>
   <v type="int" >      243 </v>
   <v type="int" >      244 </v>
   <v type="int" >      245 </v>
   <v type="int" >      246 </v>
   <v type="int" >      247 </v>
   <v type="int" >      248 </v>
   <v type="int" >      249 </v>
   <v type="int" >      250 </v>
   <v type="int" >      251 </v>
   <v type="int" >      252 </v>
   <v type="int" >      253 </v>
   <v type="int" >      254 </v>
   <v type="int" >      255 </v>
   <v type="int" >      256 </v>
   <v type="int" >      257 </v>
   <v type="int" >      258 </v>
   <v type="int" >      259 </v>
   <v type="int" >      260 </v>
   <v type="int" >      261 </v>
   <v type="int" >      262 </v>
   <v type="int" >      263 </v>
   <v type="int" >      264 </v>
   <v type="int" >      265 </v>
   <v type="int" >      266 </v>
   <v type="int" >      267 </v>
   <v type="int" >      268 </v>
   <v type="int" >      269 </v>
   <v type="int" >      270 </v>
   <v type="int" >      271 </v>
   <v type="int" >      272 </v>
   <v type="int" >      273 </v>
   <v type="int" >      274 </v>
   <v type="int" >      275 </v>
   <v type="int" >      276 </v>
   <v type="int" >      277 </v>
   <v type="int" >      278 </v>
   <v type="int" >      279 </v>
   <v type="int" >      280 </v>
   <v type="int" >      281 </v>
   <v type="int" >      282 </v>
   <v type="int" >      283 </v>
   <v type="int" >      284 </v>
   <v type="int" >      285 </v>
   <v type="int" >      286 </v>
   <v type="int" >      287 </v>
   <v type="int" >      288 </v>
   <v type="int" >      289 </v>
   <v type="int" >      290 </v>
   <v type="int" >      291 </v>
   <v type="int" >      292 </v>
   <v type="int" >      293 </v>
   <v type="int" >      294 </v>
   <v type="int" >      295 </v>
   <v type="int" >      296 </v>
   <v type="int" >      297 </v>
   <v type="int" >      298 </v>
   <v type="int" >      299 </v>
   <v type="int" >      300 </v>
   <v type="int" >      301 </v>
   <v type="int" >      302 </v>
   <v type="int" >      303 </v>
   <v type="int" >      304 </v>
   <v type="int" >      305 </v>
   <v type="int" >      306 </v>
   <v type="int" >      307 </v>
   <v type="int" >      308 </v>
   <v type="int" >      309 </v>
   <v type="int" >      310 </v>
   <v type="int" >      311 </v>
   <v type="int" >      312 </v>
   <v type="int" >      313 </v>
   <v type="int" >      314 </v>
   <v type="int" >      315 </v>
   <v type="int" >      316 </v>
   <v type="int" >      317 </v>
   <v type="int" >      318 </v>
   <v type="int" >      319 </v>
   <v type="int" >      320 </v>
   <v type="int" >      321 </v>
   <v type="int" >      322 </v>
   <v type="int" >      323 </v>
   <v type="int" >      324 </v>
   <v type="int" >      325 </v>
  </varray>
 </primitive_cell>
 <kpoints>
  <generation param="Gamma">
   <v type="int" name="divisions">       3        3        1 </v>
   <v name="usershift">      0.00000000       0.00000000       0.00000000 </v>
   <v name="genvec1">      0.33333333       0.00000000       0.00000000 </v>
   <v name="genvec2">      0.00000000       0.33333333       0.00000000 </v>
   <v name="genvec3">      0.00000000       0.00000000       1.00000000 </v>
   <v name="shift">      0.00000000       0.00000000       0.00000000 </v>
  </generation>
  <varray name="kpointlist" >
   <v>       0.00000000       0.00000000       0.00000000 </v>
   <v>       0.33333333       0.00000000       0.00000000 </v>
   <v>       0.00000000       0.33333333       0.00000000 </v>
   <v>       0.33333333       0.33333333       0.00000000 </v>
   <v>      -0.33333333       0.33333333       0.00000000 </v>
  </varray>
  <varray name="weights" >
   <v>       0.11111111 </v>
   <v>       0.22222222 </v>
   <v>       0.22222222 </v>
   <v>       0.22222222 </v>
   <v>       0.22222222 </v>
  </varray>
 </kpoints>
 <parameters>
  <separator name="general" >
   <i type="string" name="SYSTEM">PSC</i>
   <i type="logical" name="LCOMPAT"> F  </i>
  </separator>
  <separator name="electronic" >
   <i type="string" name="PREC">normal</i>
   <i name="ENMAX">    500.00000000</i>
   <i name="ENAUG">    644.87300000</i>
   <i name="EDIFF">      0.00010000</i>
   <i type="int" name="IALGO">    38</i>
   <i type="int" name="IWAVPR">    10</i>
   <i type="int" name="NBANDS">   732</i>
   <i type="int" name="NBANDSLOW">    -1</i>
   <i type="int" name="NBANDSHIGH">    -1</i>
   <i name="NELECT">   1134.00000000</i>
   <i type="int" name="TURBO">     0</i>
   <i type="int" name="IRESTART">     0</i>
   <i type="int" name="NREBOOT">     0</i>
   <i type="int" name="NMIN">     0</i>
   <i name="EREF">      0.00000000</i>
   <separator name="electronic smearing" >
    <i type="int" name="ISMEAR">     0</i>
    <i name="SIGMA">      0.05000000</i>
    <i name="KSPACING">      0.50000000</i>
    <i type="logical" name="KGAMMA"> T  </i>
    <i type="logical" name="KBLOWUP"> T  </i>
   </separator>
   <separator name="electronic projectors" >
    <i type="logical" name="LREAL"> T  </i>
    <v name="ROPT">     -0.00050000     -0.00050000     -0.00050000     -0.00050000     -0.00050000</v>
    <i type="int" name="LMAXPAW">  -100</i>
    <i type="int" name="LMAXMIX">     2</i>
    <i type="logical" name="NLSPLINE"> F  </i>
   </separator>
   <separator name="electronic startup" >
    <i type="int" name="ISTART">     0</i>
    <i type="int" name="ICHARG">     1</i>
    <i type="int" name="INIWAV">     1</i>
   </separator>
   <separator name="electronic spin" >
    <i type="int" name="ISPIN">     1</i>
    <i type="logical" name="LNONCOLLINEAR"> F  </i>
    <v name="MAGMOM">      1.00000000      1.00000000      1.00000000      1.00000000      1.00000000      1.00000000      1.00000000      1.00000000      1.00000000      1.00000000      1.00000000      1.00000000      1.00000000      1.00000000      1.00000000      1.00000000      1.00000000      1.00000000      1.00000000      1.00000000
      1.00000000      1.00000000      1.00000000      1.00000000      1.00000000      1.00000000      1.00000000      1.00000000      1.00000000      1.00000000      1.00000000      1.00000000      1.00000000      1.00000000      1.00000000      1.00000000      1.00000000      1.00000000      1.00000000      1.00000000
      1.00000000      1.00000000      1.00000000      1.00000000      1.00000000      1.00000000      1.00000000      1.00000000      1.00000000      1.00000000      1.00000000      1.00000000      1.00000000      1.00000000      1.00000000      1.00000000      1.00000000      1.00000000      1.00000000      1.00000000
      1.00000000      1.00000000      1.00000000      1.00000000      1.00000000      1.00000000      1.00000000      1.00000000      1.00000000      1.00000000      1.00000000      1.00000000      1.00000000      1.00000000      1.00000000      1.00000000      1.00000000      1.00000000      1.00000000      1.00000000
      1.00000000      1.00000000      1.00000000      1.00000000      1.00000000      1.00000000      1.00000000      1.00000000      1.00000000      1.00000000      1.00000000      1.00000000      1.00000000      1.00000000      1.00000000      1.00000000      1.00000000      1.00000000      1.00000000      1.00000000
      1.00000000      1.00000000      1.00000000      1.00000000      1.00000000      1.00000000      1.00000000      1.00000000      1.00000000      1.00000000      1.00000000      1.00000000      1.00000000      1.00000000      1.00000000      1.00000000      1.00000000      1.00000000      1.00000000      1.00000000
      1.00000000      1.00000000      1.00000000      1.00000000      1.00000000      1.00000000      1.00000000      1.00000000      1.00000000      1.00000000      1.00000000      1.00000000      1.00000000      1.00000000      1.00000000      1.00000000      1.00000000      1.00000000      1.00000000      1.00000000
      1.00000000      1.00000000      1.00000000      1.00000000      1.00000000      1.00000000      1.00000000      1.00000000      1.00000000      1.00000000      1.00000000      1.00000000      1.00000000      1.00000000      1.00000000      1.00000000      1.00000000      1.00000000      1.00000000      1.00000000
      1.00000000      1.00000000      1.00000000      1.00000000      1.00000000      1.00000000      1.00000000      1.00000000      1.00000000      1.00000000      1.00000000      1.00000000      1.00000000      1.00000000      1.00000000      1.00000000      1.00000000      1.00000000      1.00000000      1.00000000
      1.00000000      1.00000000      1.00000000      1.00000000      1.00000000      1.00000000      1.00000000      1.00000000      1.00000000      1.00000000      1.00000000      1.00000000      1.00000000      1.00000000      1.00000000      1.00000000      1.00000000      1.00000000      1.00000000      1.00000000
      1.00000000      1.00000000      1.00000000      1.00000000      1.00000000      1.00000000      1.00000000      1.00000000      1.00000000      1.00000000      1.00000000      1.00000000      1.00000000      1.00000000      1.00000000      1.00000000      1.00000000      1.00000000      1.00000000      1.00000000
      1.00000000      1.00000000      1.00000000      1.00000000      1.00000000      1.00000000      1.00000000      1.00000000      1.00000000      1.00000000      1.00000000      1.00000000      1.00000000      1.00000000      1.00000000      1.00000000      1.00000000      1.00000000      1.00000000      1.00000000
      1.00000000      1.00000000      1.00000000      1.00000000      1.00000000      1.00000000      1.00000000      1.00000000      1.00000000      1.00000000      1.00000000      1.00000000      1.00000000      1.00000000      1.00000000      1.00000000      1.00000000      1.00000000      1.00000000      1.00000000
      1.00000000      1.00000000      1.00000000      1.00000000      1.00000000      1.00000000      1.00000000      1.00000000      1.00000000      1.00000000      1.00000000      1.00000000      1.00000000      1.00000000      1.00000000      1.00000000      1.00000000      1.00000000      1.00000000      1.00000000
      1.00000000      1.00000000      1.00000000      1.00000000      1.00000000      1.00000000      1.00000000      1.00000000      1.00000000      1.00000000      1.00000000      1.00000000      1.00000000      1.00000000      1.00000000      1.00000000      1.00000000      1.00000000      1.00000000      1.00000000
      1.00000000      1.00000000      1.00000000      1.00000000      1.00000000      1.00000000      1.00000000      1.00000000      1.00000000      1.00000000      1.00000000      1.00000000      1.00000000      1.00000000      1.00000000      1.00000000      1.00000000      1.00000000      1.00000000      1.00000000
      1.00000000      1.00000000      1.00000000      1.00000000      1.00000000</v>
    <i name="NUPDOWN">     -1.00000000</i>
    <i type="logical" name="LSORBIT"> F  </i>
    <v name="SAXIS">      0.00000000      0.00000000      1.00000000</v>
    <i type="logical" name="LSPIRAL"> F  </i>
    <v name="QSPIRAL">      0.00000000      0.00000000      0.00000000</v>
    <i type="logical" name="LZEROZ"> F  </i>
   </separator>
   <separator name="electronic exchange-correlation" >
    <i type="logical" name="LASPH"> F  </i>
    <i type="logical" name="LMETAGGA"> F  </i>
   </separator>
   <separator name="electronic convergence" >
    <i type="int" name="NELM">   600</i>
    <i type="int" name="NELMDL">     0</i>
    <i type="int" name="NELMIN">     2</i>
    <i name="ENINI">    500.00000000</i>
    <separator name="electronic convergence detail" >
     <i type="logical" name="LDIAG"> T  </i>
     <i type="logical" name="LSUBROT"> F  </i>
     <i name="WEIMIN">      0.00000000</i>
     <i name="EBREAK">      0.00000003</i>
     <i name="DEPER">      0.30000000</i>
     <i type="int" name="NRMM">     4</i>
     <i name="TIME">      0.40000000</i>
    </separator>
   </separator>
   <separator name="electronic mixer" >
    <i name="AMIX">      0.40000000</i>
    <i name="BMIX">      0.01000000</i>
    <i name="AMIN">      0.01000000</i>
    <i name="AMIX_MAG">      1.60000000</i>
    <i name="BMIX_MAG">      0.01000000</i>
    <separator name="electronic mixer details" >
     <i type="int" name="IMIX">     4</i>
     <i type="logical" name="MIXFIRST"> F  </i>
     <i type="int" name="MAXMIX">   -45</i>
     <i name="WC">    100.00000000</i>
     <i type="int" name="INIMIX">     1</i>
     <i type="int" name="MIXPRE">     1</i>
     <i type="int" name="MREMOVE">     5</i>
    </separator>
   </separator>
   <separator name="electronic dipolcorrection" >
    <i type="logical" name="LDIPOL"> T  </i>
    <i type="logical" name="LMONO"> F  </i>
    <i type="int" name="IDIPOL">     3</i>
    <i name="EPSILON">      1.00000000</i>
    <v name="DIPOL">   -100.00000000   -100.00000000   -100.00000000</v>
    <i name="EFIELD">      0.00000000</i>
   </separator>
  </separator>
  <separator name="grids" >
   <i type="int" name="NGX">   100</i>
   <i type="int" name="NGY">   100</i>
   <i type="int" name="NGZ">   350</i>
   <i type="int" name="NGXF">   200</i>
   <i type="int" name="NGYF">   200</i>
   <i type="int" name="NGZF">   700</i>
   <i type="logical" name="ADDGRID"> F  </i>
  </separator>
  <separator name="ionic" >
   <i type="int" name="NSW">     0</i>
   <i type="int" name="IBRION">    -1</i>
   <i type="int" name="MDALGO">     0</i>
   <i type="int" name="ISIF">     2</i>
   <i name="PSTRESS">      0.00000000</i>
   <i name="EDIFFG">      0.00100000</i>
   <i type="int" name="NFREE">     0</i>
   <i name="POTIM">      0.50000000</i>
   <i name="SMASS">     -3.00000000</i>
   <i name="SCALEE">      1.00000000</i>
  </separator>
  <separator name="ionic md" >
   <i name="TEBEG">      0.00010000</i>
   <i name="TEEND">      0.00010000</i>
   <i type="int" name="NBLOCK">     1</i>
   <i type="int" name="KBLOCK">     1</i>
   <i type="int" name="NPACO">   256</i>
   <i name="APACO">     16.00000000</i>
  </separator>
  <separator name="symmetry" >
   <i type="int" name="ISYM">     0</i>
   <i name="SYMPREC">      0.00001000</i>
  </separator>
  <separator name="dos" >
   <i type="int" name="LORBIT">     0</i>
   <v name="RWIGS">     -1.00000000     -1.00000000     -1.00000000     -1.00000000     -1.00000000</v>
   <i type="int" name="NEDOS">   301</i>
   <i name="EMIN">     10.00000000</i>
   <i name="EMAX">    -10.00000000</i>
   <i name="EFERMI">      0.00000000</i>
  </separator>
  <separator name="writing" >
   <i type="int" name="NWRITE">     2</i>
   <i type="logical" name="LWAVE"> F  </i>
   <i type="logical" name="LDOWNSAMPLE"> F  </i>
   <i type="logical" name="LCHARG"> T  </i>
   <i type="logical" name="LPARD"> F  </i>
   <i type="logical" name="LVTOT"> T  </i>
   <i type="logical" name="LVHAR"> F  </i>
   <i type="logical" name="LELF"> F  </i>
   <i type="logical" name="LOPTICS"> F  </i>
   <v name="STM">      0.00000000      0.00000000      0.00000000      0.00000000      0.00000000      0.00000000      0.00000000</v>
  </separator>
  <separator name="performance" >
   <i type="int" name="NPAR">     4</i>
   <i type="int" name="NSIM">     4</i>
   <i type="int" name="NBLK">    -1</i>
   <i type="logical" name="LPLANE"> T  </i>
   <i type="logical" name="LSCALAPACK"> T  </i>
   <i type="logical" name="LSCAAWARE"> F  </i>
   <i type="logical" name="LSCALU"> F  </i>
   <i type="logical" name="LASYNC"> F  </i>
   <i type="logical" name="LORBITALREAL"> F  </i>
  </separator>
  <separator name="miscellaneous" >
   <i type="int" name="IDIOT">     3</i>
   <i type="int" name="PHON_NSTRUCT">    -1</i>
   <i type="logical" name="LMUSIC"> F  </i>
   <v name="POMASS">      1.00000000     12.01100000     14.00100000    126.90400000    207.20000000</v>
   <v name="DARWINR">      0.00000000      0.00000000      0.00000000      0.00000000      0.00000000</v>
   <v name="DARWINV">      1.00000000      1.00000000      1.00000000      1.00000000      1.00000000</v>
   <i type="logical" name="LCORR"> T  </i>
  </separator>
  <i type="logical" name="GGA_COMPAT"> F  </i>
  <i type="logical" name="LBERRY"> F  </i>
  <i type="int" name="ICORELEVEL">     0</i>
  <i type="logical" name="LDAU"> F  </i>
  <i type="int" name="I_CONSTRAINED_M">     0</i>
  <separator name="electronic exchange-correlation" >
   <i type="string" name="GGA">--</i>
   <i type="int" name="VOSKOWN">     0</i>
   <i type="logical" name="LHFCALC"> F  </i>
   <i type="string" name="PRECFOCK"></i>
   <i type="logical" name="LSYMGRAD"> F  </i>
   <i type="logical" name="LHFONE"> F  </i>
   <i type="logical" name="LRHFCALC"> F  </i>
   <i type="logical" name="LTHOMAS"> F  </i>
   <i type="logical" name="LMODELHF"> F  </i>
   <i type="logical" name="LFOCKACE"> F  </i>
   <i name="ENCUT4O">     -1.00000000</i>
   <i type="int" name="EXXOEP">     0</i>
   <i type="int" name="FOURORBIT">     0</i>
   <i name="AEXX">      0.00000000</i>
   <i name="HFALPHA">      0.00000000</i>
   <i name="MCALPHA">      0.00000000</i>
   <i name="ALDAX">      1.00000000</i>
   <i name="AGGAX">      1.00000000</i>
   <i name="ALDAC">      1.00000000</i>
   <i name="AGGAC">      1.00000000</i>
   <i type="int" name="NKREDX">     1</i>
   <i type="int" name="NKREDY">     1</i>
   <i type="int" name="NKREDZ">     1</i>
   <i type="logical" name="SHIFTRED"> F  </i>
   <i type="logical" name="ODDONLY"> F  </i>
   <i type="logical" name="EVENONLY"> F  </i>
   <i type="int" name="LMAXFOCK">     0</i>
   <i type="int" name="NMAXFOCKAE">     0</i>
   <i type="logical" name="LFOCKAEDFT"> F  </i>
   <i name="HFSCREEN">      0.00000000</i>
   <i name="HFSCREENC">      0.00000000</i>
   <i type="int" name="NBANDSGWLOW">     0</i>
  </separator>
  <separator name="vdW DFT" >
   <i type="logical" name="LUSE_VDW"> F  </i>
   <i name="Zab_VDW">     -0.84910000</i>
   <i name="PARAM1">      0.12340000</i>
   <i name="PARAM2">      1.00000000</i>
   <i name="PARAM3">      0.00000000</i>
  </separator>
  <separator name="model GW" >
   <i type="int" name="MODEL_GW">     0</i>
   <i name="MODEL_EPS0">     37.63423484</i>
   <i name="MODEL_ALPHA">      1.00000000</i>
  </separator>
  <separator name="linear response parameters" >
   <i type="logical" name="LEPSILON"> F  </i>
   <i type="logical" name="LRPA"> F  </i>
   <i type="logical" name="LNABLA"> F  </i>
   <i type="logical" name="LVEL"> F  </i>
   <i type="int" name="KINTER">     0</i>
   <i name="CSHIFT">      0.10000000</i>
   <i name="OMEGAMAX">     -1.00000000</i>
   <i name="DEG_THRESHOLD">      0.00200000</i>
   <i name="RTIME">     -0.10000000</i>
   <i name="WPLASMAI">      0.00000000</i>
   <v name="DFIELD">      0.00000000      0.00000000      0.00000000</v>
   <v name="WPLASMA">      0.00000000      0.00000000      0.00000000      0.00000000      0.00000000      0.00000000      0.00000000      0.00000000      0.00000000</v>
  </separator>
  <separator name="orbital magnetization" >
   <i type="logical" name="NUCIND"> F  </i>
   <v name="MAGPOS">      0.00000000      0.00000000      0.00000000</v>
   <i type="logical" name="LNICSALL"> T  </i>
   <i type="logical" name="ORBITALMAG"> F  </i>
   <i type="logical" name="LMAGBLOCH"> F  </i>
   <i type="logical" name="LCHIMAG"> F  </i>
   <i type="logical" name="LGAUGE"> T  </i>
   <i type="int" name="MAGATOM">     0</i>
   <v name="MAGDIPOL">      0.00000000      0.00000000      0.00000000</v>
   <v name="AVECCONST">      0.00000000      0.00000000      0.00000000</v>
  </separator>
  <separator name="response functions" >
   <i type="logical" name="LFINITE_TEMPERATURE"> F  </i>
   <i type="logical" name="LADDER"> F  </i>
   <i type="logical" name="LRPAFORCE"> F  </i>
   <i type="logical" name="LFXC"> F  </i>
   <i type="logical" name="LHARTREE"> T  </i>
   <i type="int" name="IBSE">     0</i>
   <v type="int" name="KPOINT">    -1     0     0     0</v>
   <i type="logical" name="LTCTC"> F  </i>
   <i type="logical" name="LTCTE"> F  </i>
   <i type="logical" name="LTETE"> F  </i>
   <i type="logical" name="LTRIPLET"> F  </i>
   <i type="logical" name="LFXCEPS"> F  </i>
   <i type="logical" name="LFXHEG"> F  </i>
   <i type="int" name="NATURALO">     2</i>
   <i type="logical" name="LHOLEGF"> F  </i>
   <i type="logical" name="L2ORDER"> F  </i>
   <i type="logical" name="LDMP1"> F  </i>
   <i type="logical" name="LMP2LT"> F  </i>
   <i type="logical" name="LSMP2LT"> F  </i>
   <i type="logical" name="LGWLF"> F  </i>
   <i name="ENCUTGW">     -2.00000000</i>
   <i name="ENCUTGWSOFT">     -2.00000000</i>
   <i name="ENCUTLF">     -1.00000000</i>
   <i type="logical" name="LESF_SPLINES"> F  </i>
   <i type="int" name="LMAXMP2">    -1</i>
   <i name="SCISSOR">      0.00000000</i>
   <i type="int" name="NOMEGA">     0</i>
   <i type="int" name="NOMEGAR">     0</i>
   <i type="int" name="NBANDSGW">    -1</i>
   <i type="int" name="NBANDSO">    -1</i>
   <i type="int" name="NBANDSV">    -1</i>
   <i type="int" name="NELM">   600</i>
   <i type="int" name="NELMHF">     1</i>
   <i type="int" name="DIM">     3</i>
   <i type="int" name="IESPILON">     4</i>
   <i type="int" name="ANTIRES">     0</i>
   <i name="OMEGAMAX">    -30.00000000</i>
   <i name="OMEGAMIN">    -30.00000000</i>
   <i name="OMEGATL">   -200.00000000</i>
   <i type="int" name="OMEGAGRID">     0</i>
   <i name="CSHIFT">     -0.10000000</i>
   <i type="logical" name="LSELFENERGY"> F  </i>
   <i type="logical" name="LSPECTRAL"> F  </i>
   <i type="logical" name="LSPECTRALGW"> F  </i>
   <i type="logical" name="LSINGLES"> F  </i>
   <i type="logical" name="LFERMIGW"> F  </i>
   <i type="logical" name="ODDONLYGW"> F  </i>
   <i type="logical" name="EVENONLYGW"> F  </i>
   <i type="int" name="NKREDLFX">     1</i>
   <i type="int" name="NKREDLFY">     1</i>
   <i type="int" name="NKREDLFZ">     1</i>
   <i type="int" name="MAXMEM">  2800</i>
   <i type="int" name="TELESCOPE">     0</i>
   <i type="int" name="NTAUPAR">    -1</i>
   <i type="int" name="NOMEGAPAR">    -1</i>
   <i name="DAMP_NEWTON">      0.80000001</i>
   <i name="LAMBDA">      1.00000000</i>
  </separator>
  <separator name="External order field" >
   <i name="OFIELD_KAPPA">      0.00000000</i>
   <v name="OFIELD_K">      0.00000000      0.00000000      0.00000000</v>
   <i name="OFIELD_Q6_NEAR">      0.00000000</i>
   <i name="OFIELD_Q6_FAR">      0.00000000</i>
   <i name="OFIELD_A">      0.00000000</i>
  </separator>
 </parameters>
 <atominfo>
  <atoms>     325 </atoms>
  <types>       5 </types>
  <array name="atoms" >
   <dimension dim="1">ion</dimension>
   <field type="string">element</field>
   <field type="int">atomtype</field>
   <set>
    <rc><c>H </c><c>   1</c></rc>
    <rc><c>H </c><c>   1</c></rc>
    <rc><c>H </c><c>   1</c></rc>
    <rc><c>H </c><c>   1</c></rc>
    <rc><c>H </c><c>   1</c></rc>
    <rc><c>H </c><c>   1</c></rc>
    <rc><c>H </c><c>   1</c></rc>
    <rc><c>H </c><c>   1</c></rc>
    <rc><c>H </c><c>   1</c></rc>
    <rc><c>H </c><c>   1</c></rc>
    <rc><c>H </c><c>   1</c></rc>
    <rc><c>H </c><c>   1</c></rc>
    <rc><c>H </c><c>   1</c></rc>
    <rc><c>H </c><c>   1</c></rc>
    <rc><c>H </c><c>   1</c></rc>
    <rc><c>H </c><c>   1</c></rc>
    <rc><c>H </c><c>   1</c></rc>
    <rc><c>H </c><c>   1</c></rc>
    <rc><c>H </c><c>   1</c></rc>
    <rc><c>H </c><c>   1</c></rc>
    <rc><c>H </c><c>   1</c></rc>
    <rc><c>H </c><c>   1</c></rc>
    <rc><c>H </c><c>   1</c></rc>
    <rc><c>H </c><c>   1</c></rc>
    <rc><c>H </c><c>   1</c></rc>
    <rc><c>H </c><c>   1</c></rc>
    <rc><c>H </c><c>   1</c></rc>
    <rc><c>H </c><c>   1</c></rc>
    <rc><c>H </c><c>   1</c></rc>
    <rc><c>H </c><c>   1</c></rc>
    <rc><c>H </c><c>   1</c></rc>
    <rc><c>H </c><c>   1</c></rc>
    <rc><c>H </c><c>   1</c></rc>
    <rc><c>H </c><c>   1</c></rc>
    <rc><c>H </c><c>   1</c></rc>
    <rc><c>H </c><c>   1</c></rc>
    <rc><c>H </c><c>   1</c></rc>
    <rc><c>H </c><c>   1</c></rc>
    <rc><c>H </c><c>   1</c></rc>
    <rc><c>H </c><c>   1</c></rc>
    <rc><c>H </c><c>   1</c></rc>
    <rc><c>H </c><c>   1</c></rc>
    <rc><c>H </c><c>   1</c></rc>
    <rc><c>H </c><c>   1</c></rc>
    <rc><c>H </c><c>   1</c></rc>
    <rc><c>H </c><c>   1</c></rc>
    <rc><c>H </c><c>   1</c></rc>
    <rc><c>H </c><c>   1</c></rc>
    <rc><c>H </c><c>   1</c></rc>
    <rc><c>H </c><c>   1</c></rc>
    <rc><c>H </c><c>   1</c></rc>
    <rc><c>H </c><c>   1</c></rc>
    <rc><c>H </c><c>   1</c></rc>
    <rc><c>H </c><c>   1</c></rc>
    <rc><c>H </c><c>   1</c></rc>
    <rc><c>H </c><c>   1</c></rc>
    <rc><c>H </c><c>   1</c></rc>
    <rc><c>H </c><c>   1</c></rc>
    <rc><c>H </c><c>   1</c></rc>
    <rc><c>H </c><c>   1</c></rc>
    <rc><c>H </c><c>   1</c></rc>
    <rc><c>H </c><c>   1</c></rc>
    <rc><c>H </c><c>   1</c></rc>
    <rc><c>H </c><c>   1</c></rc>
    <rc><c>H </c><c>   1</c></rc>
    <rc><c>H </c><c>   1</c></rc>
    <rc><c>H </c><c>   1</c></rc>
    <rc><c>H </c><c>   1</c></rc>
    <rc><c>H </c><c>   1</c></rc>
    <rc><c>H </c><c>   1</c></rc>
    <rc><c>H </c><c>   1</c></rc>
    <rc><c>H </c><c>   1</c></rc>
    <rc><c>H </c><c>   1</c></rc>
    <rc><c>H </c><c>   1</c></rc>
    <rc><c>H </c><c>   1</c></rc>
    <rc><c>H </c><c>   1</c></rc>
    <rc><c>H </c><c>   1</c></rc>
    <rc><c>H </c><c>   1</c></rc>
    <rc><c>H </c><c>   1</c></rc>
    <rc><c>H </c><c>   1</c></rc>
    <rc><c>H </c><c>   1</c></rc>
    <rc><c>H </c><c>   1</c></rc>
    <rc><c>H </c><c>   1</c></rc>
    <rc><c>H </c><c>   1</c></rc>
    <rc><c>H </c><c>   1</c></rc>
    <rc><c>H </c><c>   1</c></rc>
    <rc><c>H </c><c>   1</c></rc>
    <rc><c>H </c><c>   1</c></rc>
    <rc><c>H </c><c>   1</c></rc>
    <rc><c>H </c><c>   1</c></rc>
    <rc><c>H </c><c>   1</c></rc>
    <rc><c>H </c><c>   1</c></rc>
    <rc><c>H </c><c>   1</c></rc>
    <rc><c>H </c><c>   1</c></rc>
    <rc><c>H </c><c>   1</c></rc>
    <rc><c>H </c><c>   1</c></rc>
    <rc><c>H </c><c>   1</c></rc>
    <rc><c>H </c><c>   1</c></rc>
    <rc><c>H </c><c>   1</c></rc>
    <rc><c>H </c><c>   1</c></rc>
    <rc><c>H </c><c>   1</c></rc>
    <rc><c>H </c><c>   1</c></rc>
    <rc><c>H </c><c>   1</c></rc>
    <rc><c>H </c><c>   1</c></rc>
    <rc><c>H </c><c>   1</c></rc>
    <rc><c>H </c><c>   1</c></rc>
    <rc><c>H </c><c>   1</c></rc>
    <rc><c>H </c><c>   1</c></rc>
    <rc><c>H </c><c>   1</c></rc>
    <rc><c>H </c><c>   1</c></rc>
    <rc><c>H </c><c>   1</c></rc>
    <rc><c>H </c><c>   1</c></rc>
    <rc><c>H </c><c>   1</c></rc>
    <rc><c>H </c><c>   1</c></rc>
    <rc><c>H </c><c>   1</c></rc>
    <rc><c>H </c><c>   1</c></rc>
    <rc><c>H </c><c>   1</c></rc>
    <rc><c>H </c><c>   1</c></rc>
    <rc><c>H </c><c>   1</c></rc>
    <rc><c>H </c><c>   1</c></rc>
    <rc><c>H </c><c>   1</c></rc>
    <rc><c>H </c><c>   1</c></rc>
    <rc><c>H </c><c>   1</c></rc>
    <rc><c>H </c><c>   1</c></rc>
    <rc><c>H </c><c>   1</c></rc>
    <rc><c>H </c><c>   1</c></rc>
    <rc><c>H </c><c>   1</c></rc>
    <rc><c>H </c><c>   1</c></rc>
    <rc><c>H </c><c>   1</c></rc>
    <rc><c>H </c><c>   1</c></rc>
    <rc><c>H </c><c>   1</c></rc>
    <rc><c>H </c><c>   1</c></rc>
    <rc><c>H </c><c>   1</c></rc>
    <rc><c>H </c><c>   1</c></rc>
    <rc><c>H </c><c>   1</c></rc>
    <rc><c>H </c><c>   1</c></rc>
    <rc><c>H </c><c>   1</c></rc>
    <rc><c>H </c><c>   1</c></rc>
    <rc><c>H </c><c>   1</c></rc>
    <rc><c>H </c><c>   1</c></rc>
    <rc><c>H </c><c>   1</c></rc>
    <rc><c>H </c><c>   1</c></rc>
    <rc><c>H </c><c>   1</c></rc>
    <rc><c>C </c><c>   2</c></rc>
    <rc><c>C </c><c>   2</c></rc>
    <rc><c>C </c><c>   2</c></rc>
    <rc><c>C </c><c>   2</c></rc>
    <rc><c>C </c><c>   2</c></rc>
    <rc><c>C </c><c>   2</c></rc>
    <rc><c>C </c><c>   2</c></rc>
    <rc><c>C </c><c>   2</c></rc>
    <rc><c>C </c><c>   2</c></rc>
    <rc><c>C </c><c>   2</c></rc>
    <rc><c>C </c><c>   2</c></rc>
    <rc><c>C </c><c>   2</c></rc>
    <rc><c>C </c><c>   2</c></rc>
    <rc><c>C </c><c>   2</c></rc>
    <rc><c>C </c><c>   2</c></rc>
    <rc><c>C </c><c>   2</c></rc>
    <rc><c>C </c><c>   2</c></rc>
    <rc><c>C </c><c>   2</c></rc>
    <rc><c>C </c><c>   2</c></rc>
    <rc><c>C </c><c>   2</c></rc>
    <rc><c>C </c><c>   2</c></rc>
    <rc><c>C </c><c>   2</c></rc>
    <rc><c>C </c><c>   2</c></rc>
    <rc><c>C </c><c>   2</c></rc>
    <rc><c>C </c><c>   2</c></rc>
    <rc><c>C </c><c>   2</c></rc>
    <rc><c>C </c><c>   2</c></rc>
    <rc><c>C </c><c>   2</c></rc>
    <rc><c>C </c><c>   2</c></rc>
    <rc><c>C </c><c>   2</c></rc>
    <rc><c>C </c><c>   2</c></rc>
    <rc><c>C </c><c>   2</c></rc>
    <rc><c>C </c><c>   2</c></rc>
    <rc><c>C </c><c>   2</c></rc>
    <rc><c>C </c><c>   2</c></rc>
    <rc><c>C </c><c>   2</c></rc>
    <rc><c>C </c><c>   2</c></rc>
    <rc><c>C </c><c>   2</c></rc>
    <rc><c>C </c><c>   2</c></rc>
    <rc><c>N </c><c>   3</c></rc>
    <rc><c>N </c><c>   3</c></rc>
    <rc><c>N </c><c>   3</c></rc>
    <rc><c>N </c><c>   3</c></rc>
    <rc><c>N </c><c>   3</c></rc>
    <rc><c>N </c><c>   3</c></rc>
    <rc><c>N </c><c>   3</c></rc>
    <rc><c>N </c><c>   3</c></rc>
    <rc><c>N </c><c>   3</c></rc>
    <rc><c>N </c><c>   3</c></rc>
    <rc><c>N </c><c>   3</c></rc>
    <rc><c>N </c><c>   3</c></rc>
    <rc><c>N </c><c>   3</c></rc>
    <rc><c>N </c><c>   3</c></rc>
    <rc><c>N </c><c>   3</c></rc>
    <rc><c>N </c><c>   3</c></rc>
    <rc><c>N </c><c>   3</c></rc>
    <rc><c>N </c><c>   3</c></rc>
    <rc><c>N </c><c>   3</c></rc>
    <rc><c>N </c><c>   3</c></rc>
    <rc><c>N </c><c>   3</c></rc>
    <rc><c>N </c><c>   3</c></rc>
    <rc><c>N </c><c>   3</c></rc>
    <rc><c>N </c><c>   3</c></rc>
    <rc><c>N </c><c>   3</c></rc>
    <rc><c>N </c><c>   3</c></rc>
    <rc><c>N </c><c>   3</c></rc>
    <rc><c>N </c><c>   3</c></rc>
    <rc><c>N </c><c>   3</c></rc>
    <rc><c>N </c><c>   3</c></rc>
    <rc><c>N </c><c>   3</c></rc>
    <rc><c>N </c><c>   3</c></rc>
    <rc><c>N </c><c>   3</c></rc>
    <rc><c>N </c><c>   3</c></rc>
    <rc><c>N </c><c>   3</c></rc>
    <rc><c>N </c><c>   3</c></rc>
    <rc><c>N </c><c>   3</c></rc>
    <rc><c>N </c><c>   3</c></rc>
    <rc><c>N </c><c>   3</c></rc>
    <rc><c>N </c><c>   3</c></rc>
    <rc><c>N </c><c>   3</c></rc>
    <rc><c>N </c><c>   3</c></rc>
    <rc><c>N </c><c>   3</c></rc>
    <rc><c>N </c><c>   3</c></rc>
    <rc><c>N </c><c>   3</c></rc>
    <rc><c>N </c><c>   3</c></rc>
    <rc><c>N </c><c>   3</c></rc>
    <rc><c>I </c><c>   4</c></rc>
    <rc><c>I </c><c>   4</c></rc>
    <rc><c>I </c><c>   4</c></rc>
    <rc><c>I </c><c>   4</c></rc>
    <rc><c>I </c><c>   4</c></rc>
    <rc><c>I </c><c>   4</c></rc>
    <rc><c>I </c><c>   4</c></rc>
    <rc><c>I </c><c>   4</c></rc>
    <rc><c>I </c><c>   4</c></rc>
    <rc><c>I </c><c>   4</c></rc>
    <rc><c>I </c><c>   4</c></rc>
    <rc><c>I </c><c>   4</c></rc>
    <rc><c>I </c><c>   4</c></rc>
    <rc><c>I </c><c>   4</c></rc>
    <rc><c>I </c><c>   4</c></rc>
    <rc><c>I </c><c>   4</c></rc>
    <rc><c>I </c><c>   4</c></rc>
    <rc><c>I </c><c>   4</c></rc>
    <rc><c>I </c><c>   4</c></rc>
    <rc><c>I </c><c>   4</c></rc>
    <rc><c>I </c><c>   4</c></rc>
    <rc><c>I </c><c>   4</c></rc>
    <rc><c>I </c><c>   4</c></rc>
    <rc><c>I </c><c>   4</c></rc>
    <rc><c>I </c><c>   4</c></rc>
    <rc><c>I </c><c>   4</c></rc>
    <rc><c>I </c><c>   4</c></rc>
    <rc><c>I </c><c>   4</c></rc>
    <rc><c>I </c><c>   4</c></rc>
    <rc><c>I </c><c>   4</c></rc>
    <rc><c>I </c><c>   4</c></rc>
    <rc><c>I </c><c>   4</c></rc>
    <rc><c>I </c><c>   4</c></rc>
    <rc><c>I </c><c>   4</c></rc>
    <rc><c>I </c><c>   4</c></rc>
    <rc><c>I </c><c>   4</c></rc>
    <rc><c>I </c><c>   4</c></rc>
    <rc><c>I </c><c>   4</c></rc>
    <rc><c>I </c><c>   4</c></rc>
    <rc><c>I </c><c>   4</c></rc>
    <rc><c>I </c><c>   4</c></rc>
    <rc><c>I </c><c>   4</c></rc>
    <rc><c>I </c><c>   4</c></rc>
    <rc><c>I </c><c>   4</c></rc>
    <rc><c>I </c><c>   4</c></rc>
    <rc><c>I </c><c>   4</c></rc>
    <rc><c>I </c><c>   4</c></rc>
    <rc><c>I </c><c>   4</c></rc>
    <rc><c>I </c><c>   4</c></rc>
    <rc><c>I </c><c>   4</c></rc>
    <rc><c>I </c><c>   4</c></rc>
    <rc><c>I </c><c>   4</c></rc>
    <rc><c>I </c><c>   4</c></rc>
    <rc><c>I </c><c>   4</c></rc>
    <rc><c>I </c><c>   4</c></rc>
    <rc><c>I </c><c>   4</c></rc>
    <rc><c>I </c><c>   4</c></rc>
    <rc><c>I </c><c>   4</c></rc>
    <rc><c>I </c><c>   4</c></rc>
    <rc><c>I </c><c>   4</c></rc>
    <rc><c>I </c><c>   4</c></rc>
    <rc><c>I </c><c>   4</c></rc>
    <rc><c>I </c><c>   4</c></rc>
    <rc><c>I </c><c>   4</c></rc>
    <rc><c>I </c><c>   4</c></rc>
    <rc><c>I </c><c>   4</c></rc>
    <rc><c>I </c><c>   4</c></rc>
    <rc><c>I </c><c>   4</c></rc>
    <rc><c>I </c><c>   4</c></rc>
    <rc><c>I </c><c>   4</c></rc>
    <rc><c>I </c><c>   4</c></rc>
    <rc><c>I </c><c>   4</c></rc>
    <rc><c>Pb</c><c>   5</c></rc>
    <rc><c>Pb</c><c>   5</c></rc>
    <rc><c>Pb</c><c>   5</c></rc>
    <rc><c>Pb</c><c>   5</c></rc>
    <rc><c>Pb</c><c>   5</c></rc>
    <rc><c>Pb</c><c>   5</c></rc>
    <rc><c>Pb</c><c>   5</c></rc>
    <rc><c>Pb</c><c>   5</c></rc>
    <rc><c>Pb</c><c>   5</c></rc>
    <rc><c>Pb</c><c>   5</c></rc>
    <rc><c>Pb</c><c>   5</c></rc>
    <rc><c>Pb</c><c>   5</c></rc>
    <rc><c>Pb</c><c>   5</c></rc>
    <rc><c>Pb</c><c>   5</c></rc>
    <rc><c>Pb</c><c>   5</c></rc>
    <rc><c>Pb</c><c>   5</c></rc>
    <rc><c>Pb</c><c>   5</c></rc>
    <rc><c>Pb</c><c>   5</c></rc>
    <rc><c>Pb</c><c>   5</c></rc>
    <rc><c>Pb</c><c>   5</c></rc>
    <rc><c>Pb</c><c>   5</c></rc>
    <rc><c>Pb</c><c>   5</c></rc>
    <rc><c>Pb</c><c>   5</c></rc>
    <rc><c>Pb</c><c>   5</c></rc>
   </set>
  </array>
  <array name="atomtypes" >
   <dimension dim="1">type</dimension>
   <field type="int">atomspertype</field>
   <field type="string">element</field>
   <field>mass</field>
   <field>valence</field>
   <field type="string">pseudopotential</field>
   <set>
    <rc><c> 143</c><c>H </c><c>      1.00000000</c><c>      1.00000000</c><c>  PAW_PBE H 15Jun2001                   </c></rc>
    <rc><c>  39</c><c>C </c><c>     12.01100000</c><c>      4.00000000</c><c>  PAW_PBE C 08Apr2002                   </c></rc>
    <rc><c>  47</c><c>N </c><c>     14.00100000</c><c>      5.00000000</c><c>  PAW_PBE N 08Apr2002                   </c></rc>
    <rc><c>  72</c><c>I </c><c>    126.90400000</c><c>      7.00000000</c><c>  PAW_PBE I 08Apr2002                   </c></rc>
    <rc><c>  24</c><c>Pb</c><c>    207.20000000</c><c>      4.00000000</c><c>  PAW_PBE Pb 08Apr2002                  </c></rc>
   </set>
  </array>
 </atominfo>
 <structure name="initialpos" >
  <crystal>
   <varray name="basis" >
    <v>      18.06080055       0.00000000       0.00000000 </v>
    <v>      -0.00491865      18.06279945       0.00000000 </v>
    <v>       0.00000000       0.00000000      62.48749924 </v>
   </varray>
   <i name="volume">  20385.21054034 </i>
   <varray name="rec_basis" >
    <v>       0.05536853       0.00001508      -0.00000000 </v>
    <v>       0.00000000       0.05536240       0.00000000 </v>
    <v>       0.00000000      -0.00000000       0.01600320 </v>
   </varray>
  </crystal>
  <varray name="positions" >
   <v>       0.46517704       0.33961341       0.56223837 </v>
   <v>       0.43711100       0.82197428       0.57496168 </v>
   <v>       0.92332667       0.29064816       0.57510172 </v>
   <v>       0.93349714       0.81794856       0.57252406 </v>
   <v>       0.32642609       0.07534503       0.57060809 </v>
   <v>       0.34915289       0.54385314       0.55671633 </v>
   <v>       0.80724646       0.09324955       0.56435769 </v>
   <v>       0.10864899       0.25007574       0.55597723 </v>
   <v>       0.07466966       0.67689680       0.57757536 </v>
   <v>       0.55298988       0.15544510       0.56117181 </v>
   <v>       0.50216793       0.64304165       0.55575203 </v>
   <v>       0.37989178       0.01015098       0.55730458 </v>
   <v>       0.29361749       0.62159591       0.55114600 </v>
   <v>       0.87726267       0.03267555       0.55548098 </v>
   <v>       0.06075047       0.29778509       0.57566891 </v>
   <v>       0.98537767       0.69849777       0.58545468 </v>
   <v>       0.57342056       0.24807228       0.56768764 </v>
   <v>       0.44437849       0.68365866       0.57464686 </v>
   <v>       0.27450039       0.43314148       0.57160823 </v>
   <v>       0.19110350       0.05606521       0.57238609 </v>
   <v>       0.68824731       0.03304452       0.57619349 </v>
   <v>       0.38174753       0.29591940       0.55512831 </v>
   <v>       0.49583124       0.86852559       0.55748754 </v>
   <v>       0.88250709       0.23519075       0.55561711 </v>
   <v>       0.98830752       0.86909596       0.55519179 </v>
   <v>       0.17908579       0.44172095       0.56892055 </v>
   <v>       0.15616546       0.97808256       0.56018999 </v>
   <v>       0.68260623       0.93758626       0.57079599 </v>
   <v>       0.43093022       0.18053792       0.55281119 </v>
   <v>       0.54222885       0.76007008       0.54257526 </v>
   <v>       0.99862861       0.20366562       0.54035399 </v>
   <v>       0.08435801       0.78143055       0.55549844 </v>
   <v>       0.18380293       0.55968696       0.55598761 </v>
   <v>       0.27436134       0.93620110       0.54941116 </v>
   <v>       0.79926635       0.92895208       0.55797690 </v>
   <v>       0.44026835       0.30358655       0.67074213 </v>
   <v>       0.45408620       0.80363917       0.67406866 </v>
   <v>       0.95012230       0.28758254       0.67467828 </v>
   <v>       0.91747968       0.73807456       0.66748012 </v>
   <v>       0.30190067       0.05143283       0.67259400 </v>
   <v>       0.29776316       0.56092876       0.67346179 </v>
   <v>       0.80512407       0.05892960       0.67318433 </v>
   <v>       0.84029042       0.46816024       0.66169070 </v>
   <v>       0.08305544       0.16670516       0.64743424 </v>
   <v>       0.11073674       0.70691557       0.65404445 </v>
   <v>       0.57775689       0.17169718       0.65032709 </v>
   <v>       0.57432493       0.66981916       0.64625127 </v>
   <v>       0.18334238       0.41387538       0.64994976 </v>
   <v>       0.16893472       0.92464334       0.64728810 </v>
   <v>       0.63976501       0.47422559       0.65518201 </v>
   <v>       0.67573784       0.91889423       0.65247468 </v>
   <v>       0.05267036       0.18727152       0.67320295 </v>
   <v>       0.03419749       0.66335847       0.66549975 </v>
   <v>       0.54158946       0.20306841       0.67448818 </v>
   <v>       0.55322712       0.69831519       0.67223425 </v>
   <v>       0.20546387       0.45027454       0.67480501 </v>
   <v>       0.19877261       0.95046653       0.67283874 </v>
   <v>       0.71251296       0.41325462       0.66163997 </v>
   <v>       0.70640058       0.95546441       0.67683838 </v>
   <v>       0.42027639       0.32817967       0.64448712 </v>
   <v>       0.42285580       0.83240811       0.64918673 </v>
   <v>       0.92466314       0.32235495       0.64956693 </v>
   <v>       0.92080623       0.82552054       0.65554371 </v>
   <v>       0.32863248       0.07959679       0.64714689 </v>
   <v>       0.32362085       0.58644246       0.64771262 </v>
   <v>       0.82889522       0.07964754       0.64678806 </v>
   <v>       0.84793178       0.55674723       0.65124378 </v>
   <v>       0.00606615       0.25013453       0.63090036 </v>
   <v>       0.04405624       0.81395114       0.64562340 </v>
   <v>       0.50587047       0.24832156       0.62967086 </v>
   <v>       0.49381060       0.75042114       0.63013250 </v>
   <v>       0.24775962       0.00289196       0.62957514 </v>
   <v>       0.25624720       0.49542318       0.63108832 </v>
   <v>       0.75061149       0.99360525       0.63207595 </v>
   <v>       0.72082556       0.57126660       0.64736367 </v>
   <v>       0.44874502       0.30128397       0.76888902 </v>
   <v>       0.44874501       0.80128391       0.76888902 </v>
   <v>       0.94874497       0.30128397       0.76888902 </v>
   <v>       0.94874501       0.80128391       0.76888902 </v>
   <v>       0.30127600       0.05129450       0.76887296 </v>
   <v>       0.30127601       0.55129450       0.76887296 </v>
   <v>       0.80127594       0.05129450       0.76887296 </v>
   <v>       0.80127598       0.55129450       0.76887296 </v>
   <v>       0.07877100       0.17118050       0.74344197 </v>
   <v>       0.07877101       0.67118045       0.74344197 </v>
   <v>       0.57877100       0.17118050       0.74344197 </v>
   <v>       0.57877099       0.67118045       0.74344197 </v>
   <v>       0.17119950       0.42117448       0.74342103 </v>
   <v>       0.17119950       0.92117451       0.74342103 </v>
   <v>       0.67119951       0.42117448       0.74342103 </v>
   <v>       0.67119950       0.92117451       0.74342103 </v>
   <v>       0.05125600       0.19871499       0.76888902 </v>
   <v>       0.05125600       0.69871493       0.76888902 </v>
   <v>       0.55125603       0.19871499       0.76888902 </v>
   <v>       0.55125602       0.69871493       0.76888902 </v>
   <v>       0.19872349       0.44870397       0.76887205 </v>
   <v>       0.19872349       0.94870397       0.76887205 </v>
   <v>       0.69872352       0.44870397       0.76887205 </v>
   <v>       0.69872351       0.94870397       0.76887205 </v>
   <v>       0.42123152       0.32881747       0.74344197 </v>
   <v>       0.42123151       0.82881744       0.74344197 </v>
   <v>       0.92123147       0.32881747       0.74344197 </v>
   <v>       0.92123151       0.82881744       0.74344197 </v>
   <v>       0.32880050       0.07882500       0.74342103 </v>
   <v>       0.32880049       0.57882496       0.74342103 </v>
   <v>       0.82880048       0.07882500       0.74342103 </v>
   <v>       0.82880052       0.57882496       0.74342103 </v>
   <v>       0.00000350       0.25000148       0.72582199 </v>
   <v>       0.00000350       0.75000145       0.72582199 </v>
   <v>       0.50000351       0.25000148       0.72582199 </v>
   <v>       0.50000350       0.75000145       0.72582199 </v>
   <v>       0.25000050       0.00000000       0.72580398 </v>
   <v>       0.25000052       0.50000000       0.72580398 </v>
   <v>       0.75000050       0.00000000       0.72580398 </v>
   <v>       0.75000049       0.50000000       0.72580398 </v>
   <v>       0.72004253       0.44599196       0.53814804 </v>
   <v>       0.74329619       0.49790166       0.51529282 </v>
   <v>       0.66296620       0.55330509       0.55546462 </v>
   <v>       0.71037435       0.63926624       0.55408446 </v>
   <v>       0.85406760       0.51019645       0.56681448 </v>
   <v>       0.79348992       0.57952617       0.57627292 </v>
   <v>       0.87930417       0.55951378       0.53076186 </v>
   <v>       0.80904193       0.61651497       0.51970124 </v>
   <v>       0.87319230       0.46266368       0.51710575 </v>
   <v>       0.86390417       0.42589605       0.54297359 </v>
   <v>       0.87325874       0.32622708       0.51842614 </v>
   <v>       0.78467397       0.32407394       0.52985195 </v>
   <v>       0.63902310       0.55326681       0.51654381 </v>
   <v>       0.69750130       0.63261151       0.51280264 </v>
   <v>       0.61515629       0.63942590       0.52768678 </v>
   <v>       0.76463096       0.46638085       0.59473425 </v>
   <v>       0.75582947       0.41427754       0.57103291 </v>
   <v>       0.68872221       0.48243859       0.57774519 </v>
   <v>       0.81796101       0.69324297       0.55527305 </v>
   <v>       0.89663395       0.69395347       0.53862104 </v>
   <v>       0.89718661       0.63703602       0.56162057 </v>
   <v>       0.82132351       0.38096621       0.48469134 </v>
   <v>       0.78751054       0.29213618       0.49118800 </v>
   <v>       0.66354722       0.30171865       0.51799484 </v>
   <v>       0.73206042       0.45999529       0.47027488 </v>
   <v>       0.53577852       0.35230503       0.51649033 </v>
   <v>       0.60414506       0.50891653       0.46838226 </v>
   <v>       0.50567532       0.45660066       0.49212959 </v>
   <v>       0.99585252       0.23974394       0.55442498 </v>
   <v>       0.03295164       0.77093352       0.56422766 </v>
   <v>       0.46745070       0.22614117       0.55732919 </v>
   <v>       0.50035101       0.75626352       0.55506250 </v>
   <v>       0.23563908       0.53042858       0.55883400 </v>
   <v>       0.26834272       0.98908227       0.55775371 </v>
   <v>       0.77972697       0.98341427       0.56292772 </v>
   <v>       0.00412940       0.24474079       0.64837346 </v>
   <v>       0.01688637       0.76841069       0.65396161 </v>
   <v>       0.49939731       0.24994506       0.64705258 </v>
   <v>       0.49806996       0.75066459       0.64756684 </v>
   <v>       0.25438936       0.49939726       0.64851319 </v>
   <v>       0.24858801       0.00184749       0.64706979 </v>
   <v>       0.74280906       0.51856431       0.65326121 </v>
   <v>       0.75217741       0.99913709       0.64949478 </v>
   <v>       0.49998898       0.24999498       0.74327702 </v>
   <v>       0.49998903       0.74999496       0.74327702 </v>
   <v>       0.99998898       0.24999498       0.74327702 </v>
   <v>       0.99998903       0.74999496       0.74327702 </v>
   <v>       0.25000050       0.00000100       0.74325596 </v>
   <v>       0.25000052       0.50000100       0.74325596 </v>
   <v>       0.75000050       0.00000100       0.74325596 </v>
   <v>       0.75000049       0.50000100       0.74325596 </v>
   <v>       0.70715553       0.37822667       0.49433767 </v>
   <v>       0.65086212       0.34751239       0.50708146 </v>
   <v>       0.68885224       0.43620258       0.48038362 </v>
   <v>       0.57869481       0.37556495       0.50618230 </v>
   <v>       0.61708393       0.46392280       0.47934133 </v>
   <v>       0.56145160       0.43411691       0.49244447 </v>
   <v>       0.76445749       0.47855299       0.53075569 </v>
   <v>       0.69957997       0.58745301       0.54547360 </v>
   <v>       0.79569587       0.52745692       0.56731360 </v>
   <v>       0.83299011       0.59608670       0.53466205 </v>
   <v>       0.83470033       0.43270648       0.52767860 </v>
   <v>       0.81976252       0.35530731       0.51861972 </v>
   <v>       0.66208112       0.60281154       0.52418761 </v>
   <v>       0.74788965       0.46948530       0.57789891 </v>
   <v>       0.86198539       0.65813577       0.54869404 </v>
   <v>       0.78601161       0.35069654       0.49609242 </v>
   <v>       0.05830694       0.26369475       0.56253750 </v>
   <v>       0.02921874       0.71005286       0.57554224 </v>
   <v>       0.53676417       0.20987182       0.56168900 </v>
   <v>       0.47977110       0.69054580       0.56182606 </v>
   <v>       0.43784773       0.29253396       0.55751446 </v>
   <v>       0.47416468       0.81909495       0.56258866 </v>
   <v>       0.93023395       0.25518096       0.56229234 </v>
   <v>       0.97830815       0.81880346       0.56230137 </v>
   <v>       0.23065474       0.46194637       0.56552650 </v>
   <v>       0.20168926       0.00889363       0.56377353 </v>
   <v>       0.71172912       0.98642161       0.57005054 </v>
   <v>       0.32786492       0.02818760       0.56156117 </v>
   <v>       0.29727451       0.56634691       0.55481733 </v>
   <v>       0.82424743       0.04022529       0.56092933 </v>
   <v>       0.04869615       0.19626618       0.65716293 </v>
   <v>       0.05519625       0.70811234       0.65760828 </v>
   <v>       0.54196356       0.20589987       0.65821930 </v>
   <v>       0.54400217       0.70295442       0.65622323 </v>
   <v>       0.21244345       0.45160848       0.65864559 </v>
   <v>       0.20285294       0.95651230       0.65667425 </v>
   <v>       0.69558889       0.46517891       0.65715134 </v>
   <v>       0.70929781       0.95509930       0.66058702 </v>
   <v>       0.45046427       0.29669994       0.65485412 </v>
   <v>       0.45619228       0.79825523       0.65786486 </v>
   <v>       0.95734796       0.28783805       0.65847545 </v>
   <v>       0.94713341       0.77751961       0.65936571 </v>
   <v>       0.29588077       0.04674208       0.65651809 </v>
   <v>       0.29451030       0.55188895       0.65738045 </v>
   <v>       0.79734142       0.04966707       0.65730420 </v>
   <v>       0.81488064       0.51342878       0.65547198 </v>
   <v>       0.04586250       0.20411950       0.75272599 </v>
   <v>       0.04586250       0.70411946       0.75272599 </v>
   <v>       0.54586251       0.20411950       0.75272599 </v>
   <v>       0.54586250       0.70411946       0.75272599 </v>
   <v>       0.20411900       0.45410100       0.75270499 </v>
   <v>       0.20411899       0.95410095       0.75270499 </v>
   <v>       0.70411898       0.45410100       0.75270499 </v>
   <v>       0.70411896       0.95410095       0.75270499 </v>
   <v>       0.45414002       0.29588849       0.75272697 </v>
   <v>       0.45414001       0.79588852       0.75272697 </v>
   <v>       0.95414002       0.29588849       0.75272697 </v>
[...]
   <v>       0.55298988       0.15544510       0.56117181 </v>
   <v>       0.50216793       0.64304165       0.55575203 </v>
   <v>       0.37989178       0.01015098       0.55730458 </v>
   <v>       0.29361749       0.62159591       0.55114600 </v>
   <v>       0.87726267       0.03267555       0.55548098 </v>
   <v>       0.06075047       0.29778509       0.57566891 </v>
   <v>       0.98537767       0.69849777       0.58545468 </v>
   <v>       0.57342056       0.24807228       0.56768764 </v>
   <v>       0.44437849       0.68365866       0.57464686 </v>
   <v>       0.27450039       0.43314148       0.57160823 </v>
   <v>       0.19110350       0.05606521       0.57238609 </v>
   <v>       0.68824731       0.03304452       0.57619349 </v>
   <v>       0.38174753       0.29591940       0.55512831 </v>
   <v>       0.49583124       0.86852559       0.55748754 </v>
   <v>       0.88250709       0.23519075       0.55561711 </v>
   <v>       0.98830752       0.86909596       0.55519179 </v>
   <v>       0.17908579       0.44172095       0.56892055 </v>
   <v>       0.15616546       0.97808256       0.56018999 </v>
   <v>       0.68260623       0.93758626       0.57079599 </v>
   <v>       0.43093022       0.18053792       0.55281119 </v>
   <v>       0.54222885       0.76007008       0.54257526 </v>
   <v>       0.99862861       0.20366562       0.54035399 </v>
   <v>       0.08435801       0.78143055       0.55549844 </v>
   <v>       0.18380293       0.55968696       0.55598761 </v>
   <v>       0.27436134       0.93620110       0.54941116 </v>
   <v>       0.79926635       0.92895208       0.55797690 </v>
   <v>       0.44026835       0.30358655       0.67074213 </v>
   <v>       0.45408620       0.80363917       0.67406866 </v>
   <v>       0.95012230       0.28758254       0.67467828 </v>
   <v>       0.91747968       0.73807456       0.66748012 </v>
   <v>       0.30190067       0.05143283       0.67259400 </v>
   <v>       0.29776316       0.56092876       0.67346179 </v>
   <v>       0.80512407       0.05892960       0.67318433 </v>
   <v>       0.84029042       0.46816024       0.66169070 </v>
   <v>       0.08305544       0.16670516       0.64743424 </v>
   <v>       0.11073674       0.70691557       0.65404445 </v>
   <v>       0.57775689       0.17169718       0.65032709 </v>
   <v>       0.57432493       0.66981916       0.64625127 </v>
   <v>       0.18334238       0.41387538       0.64994976 </v>
   <v>       0.16893472       0.92464334       0.64728810 </v>
   <v>       0.63976501       0.47422559       0.65518201 </v>
   <v>       0.67573784       0.91889423       0.65247468 </v>
   <v>       0.05267036       0.18727152       0.67320295 </v>
   <v>       0.03419749       0.66335847       0.66549975 </v>
   <v>       0.54158946       0.20306841       0.67448818 </v>
   <v>       0.55322712       0.69831519       0.67223425 </v>
   <v>       0.20546387       0.45027454       0.67480501 </v>
   <v>       0.19877261       0.95046653       0.67283874 </v>
   <v>       0.71251296       0.41325462       0.66163997 </v>
   <v>       0.70640058       0.95546441       0.67683838 </v>
   <v>       0.42027639       0.32817967       0.64448712 </v>
   <v>       0.42285580       0.83240811       0.64918673 </v>
   <v>       0.92466314       0.32235495       0.64956693 </v>
   <v>       0.92080623       0.82552054       0.65554371 </v>
   <v>       0.32863248       0.07959679       0.64714689 </v>
   <v>       0.32362085       0.58644246       0.64771262 </v>
   <v>       0.82889522       0.07964754       0.64678806 </v>
   <v>       0.84793178       0.55674723       0.65124378 </v>
   <v>       0.00606615       0.25013453       0.63090036 </v>
   <v>       0.04405624       0.81395114       0.64562340 </v>
   <v>       0.50587047       0.24832156       0.62967086 </v>
   <v>       0.49381060       0.75042114       0.63013250 </v>
   <v>       0.24775962       0.00289196       0.62957514 </v>
   <v>       0.25624720       0.49542318       0.63108832 </v>
   <v>       0.75061149       0.99360525       0.63207595 </v>
   <v>       0.72082556       0.57126660       0.64736367 </v>
   <v>       0.44874502       0.30128397       0.76888902 </v>
   <v>       0.44874501       0.80128391       0.76888902 </v>
   <v>       0.94874497       0.30128397       0.76888902 </v>
   <v>       0.94874501       0.80128391       0.76888902 </v>
   <v>       0.30127600       0.05129450       0.76887296 </v>
   <v>       0.30127601       0.55129450       0.76887296 </v>
   <v>       0.80127594       0.05129450       0.76887296 </v>
   <v>       0.80127598       0.55129450       0.76887296 </v>
   <v>       0.07877100       0.17118050       0.74344197 </v>
   <v>       0.07877101       0.67118045       0.74344197 </v>
   <v>       0.57877100       0.17118050       0.74344197 </v>
   <v>       0.57877099       0.67118045       0.74344197 </v>
   <v>       0.17119950       0.42117448       0.74342103 </v>
   <v>       0.17119950       0.92117451       0.74342103 </v>
   <v>       0.67119951       0.42117448       0.74342103 </v>
   <v>       0.67119950       0.92117451       0.74342103 </v>
   <v>       0.05125600       0.19871499       0.76888902 </v>
   <v>       0.05125600       0.69871493       0.76888902 </v>
   <v>       0.55125603       0.19871499       0.76888902 </v>
   <v>       0.55125602       0.69871493       0.76888902 </v>
   <v>       0.19872349       0.44870397       0.76887205 </v>
   <v>       0.19872349       0.94870397       0.76887205 </v>
   <v>       0.69872352       0.44870397       0.76887205 </v>
   <v>       0.69872351       0.94870397       0.76887205 </v>
   <v>       0.42123152       0.32881747       0.74344197 </v>
   <v>       0.42123151       0.82881744       0.74344197 </v>
   <v>       0.92123147       0.32881747       0.74344197 </v>
   <v>       0.92123151       0.82881744       0.74344197 </v>
   <v>       0.32880050       0.07882500       0.74342103 </v>
   <v>       0.32880049       0.57882496       0.74342103 </v>
   <v>       0.82880048       0.07882500       0.74342103 </v>
   <v>       0.82880052       0.57882496       0.74342103 </v>
   <v>       0.00000350       0.25000148       0.72582199 </v>
   <v>       0.00000350       0.75000145       0.72582199 </v>
   <v>       0.50000351       0.25000148       0.72582199 </v>
   <v>       0.50000350       0.75000145       0.72582199 </v>
   <v>       0.25000050       0.00000000       0.72580398 </v>
   <v>       0.25000052       0.50000000       0.72580398 </v>
   <v>       0.75000050       0.00000000       0.72580398 </v>
   <v>       0.75000049       0.50000000       0.72580398 </v>
   <v>       0.72004253       0.44599196       0.53814804 </v>
   <v>       0.74329619       0.49790166       0.51529282 </v>
   <v>       0.66296620       0.55330509       0.55546462 </v>
   <v>       0.71037435       0.63926624       0.55408446 </v>
   <v>       0.85406760       0.51019645       0.56681448 </v>
   <v>       0.79348992       0.57952617       0.57627292 </v>
   <v>       0.87930417       0.55951378       0.53076186 </v>
   <v>       0.80904193       0.61651497       0.51970124 </v>
   <v>       0.87319230       0.46266368       0.51710575 </v>
   <v>       0.86390417       0.42589605       0.54297359 </v>
   <v>       0.87325874       0.32622708       0.51842614 </v>
   <v>       0.78467397       0.32407394       0.52985195 </v>
   <v>       0.63902310       0.55326681       0.51654381 </v>
   <v>       0.69750130       0.63261151       0.51280264 </v>
   <v>       0.61515629       0.63942590       0.52768678 </v>
   <v>       0.76463096       0.46638085       0.59473425 </v>
   <v>       0.75582947       0.41427754       0.57103291 </v>
   <v>       0.68872221       0.48243859       0.57774519 </v>
   <v>       0.81796101       0.69324297       0.55527305 </v>
   <v>       0.89663395       0.69395347       0.53862104 </v>
   <v>       0.89718661       0.63703602       0.56162057 </v>
   <v>       0.82132351       0.38096621       0.48469134 </v>
   <v>       0.78751054       0.29213618       0.49118800 </v>
   <v>       0.66354722       0.30171865       0.51799484 </v>
   <v>       0.73206042       0.45999529       0.47027488 </v>
   <v>       0.53577852       0.35230503       0.51649033 </v>
   <v>       0.60414506       0.50891653       0.46838226 </v>
   <v>       0.50567532       0.45660066       0.49212959 </v>
   <v>       0.99585252       0.23974394       0.55442498 </v>
   <v>       0.03295164       0.77093352       0.56422766 </v>
   <v>       0.46745070       0.22614117       0.55732919 </v>
   <v>       0.50035101       0.75626352       0.55506250 </v>
   <v>       0.23563908       0.53042858       0.55883400 </v>
   <v>       0.26834272       0.98908227       0.55775371 </v>
   <v>       0.77972697       0.98341427       0.56292772 </v>
   <v>       0.00412940       0.24474079       0.64837346 </v>
   <v>       0.01688637       0.76841069       0.65396161 </v>
   <v>       0.49939731       0.24994506       0.64705258 </v>
   <v>       0.49806996       0.75066459       0.64756684 </v>
   <v>       0.25438936       0.49939726       0.64851319 </v>
   <v>       0.24858801       0.00184749       0.64706979 </v>
   <v>       0.74280906       0.51856431       0.65326121 </v>
   <v>       0.75217741       0.99913709       0.64949478 </v>
   <v>       0.49998898       0.24999498       0.74327702 </v>
   <v>       0.49998903       0.74999496       0.74327702 </v>
   <v>       0.99998898       0.24999498       0.74327702 </v>
   <v>       0.99998903       0.74999496       0.74327702 </v>
   <v>       0.25000050       0.00000100       0.74325596 </v>
   <v>       0.25000052       0.50000100       0.74325596 </v>
   <v>       0.75000050       0.00000100       0.74325596 </v>
   <v>       0.75000049       0.50000100       0.74325596 </v>
   <v>       0.70715553       0.37822667       0.49433767 </v>
   <v>       0.65086212       0.34751239       0.50708146 </v>
   <v>       0.68885224       0.43620258       0.48038362 </v>
   <v>       0.57869481       0.37556495       0.50618230 </v>
   <v>       0.61708393       0.46392280       0.47934133 </v>
   <v>       0.56145160       0.43411691       0.49244447 </v>
   <v>       0.76445749       0.47855299       0.53075569 </v>
   <v>       0.69957997       0.58745301       0.54547360 </v>
   <v>       0.79569587       0.52745692       0.56731360 </v>
   <v>       0.83299011       0.59608670       0.53466205 </v>
   <v>       0.83470033       0.43270648       0.52767860 </v>
   <v>       0.81976252       0.35530731       0.51861972 </v>
   <v>       0.66208112       0.60281154       0.52418761 </v>
   <v>       0.74788965       0.46948530       0.57789891 </v>
   <v>       0.86198539       0.65813577       0.54869404 </v>
   <v>       0.78601161       0.35069654       0.49609242 </v>
   <v>       0.05830694       0.26369475       0.56253750 </v>
   <v>       0.02921874       0.71005286       0.57554224 </v>
   <v>       0.53676417       0.20987182       0.56168900 </v>
   <v>       0.47977110       0.69054580       0.56182606 </v>
   <v>       0.43784773       0.29253396       0.55751446 </v>
   <v>       0.47416468       0.81909495       0.56258866 </v>
   <v>       0.93023395       0.25518096       0.56229234 </v>
   <v>       0.97830815       0.81880346       0.56230137 </v>
   <v>       0.23065474       0.46194637       0.56552650 </v>
   <v>       0.20168926       0.00889363       0.56377353 </v>
   <v>       0.71172912       0.98642161       0.57005054 </v>
   <v>       0.32786492       0.02818760       0.56156117 </v>
   <v>       0.29727451       0.56634691       0.55481733 </v>
   <v>       0.82424743       0.04022529       0.56092933 </v>
   <v>       0.04869615       0.19626618       0.65716293 </v>
   <v>       0.05519625       0.70811234       0.65760828 </v>
   <v>       0.54196356       0.20589987       0.65821930 </v>
   <v>       0.54400217       0.70295442       0.65622323 </v>
   <v>       0.21244345       0.45160848       0.65864559 </v>
   <v>       0.20285294       0.95651230       0.65667425 </v>
   <v>       0.69558889       0.46517891       0.65715134 </v>
   <v>       0.70929781       0.95509930       0.66058702 </v>
   <v>       0.45046427       0.29669994       0.65485412 </v>
   <v>       0.45619228       0.79825523       0.65786486 </v>
   <v>       0.95734796       0.28783805       0.65847545 </v>
   <v>       0.94713341       0.77751961       0.65936571 </v>
   <v>       0.29588077       0.04674208       0.65651809 </v>
   <v>       0.29451030       0.55188895       0.65738045 </v>
   <v>       0.79734142       0.04966707       0.65730420 </v>
   <v>       0.81488064       0.51342878       0.65547198 </v>
   <v>       0.04586250       0.20411950       0.75272599 </v>
   <v>       0.04586250       0.70411946       0.75272599 </v>
   <v>       0.54586251       0.20411950       0.75272599 </v>
   <v>       0.54586250       0.70411946       0.75272599 </v>
   <v>       0.20411900       0.45410100       0.75270499 </v>
   <v>       0.20411899       0.95410095       0.75270499 </v>
   <v>       0.70411898       0.45410100       0.75270499 </v>
   <v>       0.70411896       0.95410095       0.75270499 </v>
   <v>       0.45414002       0.29588849       0.75272697 </v>
   <v>       0.45414001       0.79588852       0.75272697 </v>
   <v>       0.95414002       0.29588849       0.75272697 </v>
   <v>       0.95414006       0.79588852       0.75272697 </v>
   <v>       0.29588249       0.04590050       0.75270499 </v>
   <v>       0.29588248       0.54590053       0.75270499 </v>
   <v>       0.79588244       0.04590050       0.75270499 </v>
   <v>       0.79588248       0.54590053       0.75270499 </v>
   <v>       0.77377438       0.54709032       0.54452835 </v>
   <v>       0.52045131       0.01053134       0.55323486 </v>
   <v>       0.49043762       0.49392562       0.55220939 </v>
   <v>       0.01264791       0.00929450       0.55075701 </v>
   <v>       0.02348640       0.49864141       0.55451118 </v>
   <v>       0.25125858       0.22951296       0.55309372 </v>
   <v>       0.25292178       0.76317226       0.55222465 </v>
   <v>       0.73487763       0.21274015       0.55579348 </v>
   <v>       0.69998925       0.79647362       0.55534826 </v>
   <v>       0.99900228       0.98550630       0.65385221 </v>
   <v>       0.01295445       0.50083315       0.65521076 </v>
   <v>       0.49454273       0.00399094       0.65498831 </v>
   <v>       0.50007012       0.49633811       0.65374788 </v>
   <v>       0.25196457       0.24795290       0.65457880 </v>
   <v>       0.24965699       0.75375854       0.65413553 </v>
   <v>       0.74763542       0.26945807       0.65500601 </v>
   <v>       0.74927634       0.73905205       0.65452215 </v>
   <v>       0.13032010       0.12103044       0.60743308 </v>
   <v>       0.14949922       0.60818434       0.60721905 </v>
   <v>       0.63829782       0.11517110       0.61216608 </v>
   <v>       0.63159874       0.61774183       0.60632244 </v>
   <v>       0.36109028       0.38978535       0.60486878 </v>
   <v>       0.36967125       0.88553627       0.60770645 </v>
   <v>       0.88887208       0.36683546       0.60748961 </v>
   <v>       0.86720408       0.88192311       0.60642598 </v>
   <v>       0.12148044       0.36681267       0.60877337 </v>
   <v>       0.12337616       0.87546606       0.60613088 </v>
   <v>       0.59901592       0.35009270       0.60078948 </v>
   <v>       0.61692545       0.86753627       0.61474436 </v>
   <v>       0.38775890       0.13551634       0.60718474 </v>
   <v>       0.38544110       0.63548503       0.60853016 </v>
   <v>       0.88215510       0.13491216       0.61064075 </v>
   <v>       0.89307435       0.63962775       0.61269219 </v>
   <v>       0.00000000       0.00000000       0.75492797 </v>
   <v>       0.00000000       0.50000000       0.75492797 </v>
   <v>       0.50000000       0.00000000       0.75492797 </v>
   <v>       0.49999999       0.50000000       0.75492797 </v>
   <v>       0.25000050       0.25000000       0.75493902 </v>
   <v>       0.25000051       0.74999997       0.75493902 </v>
   <v>       0.75000047       0.25000000       0.75493902 </v>
   <v>       0.75000046       0.74999997       0.75493902 </v>
   <v>       0.13579050       0.11421000       0.70478299 </v>
   <v>       0.13579050       0.61420998       0.70478299 </v>
   <v>       0.63579045       0.11421000       0.70478299 </v>
   <v>       0.63579049       0.61420998       0.70478299 </v>
   <v>       0.36420952       0.38578999       0.70478299 </v>
   <v>       0.36420950       0.88578996       0.70478299 </v>
   <v>       0.86420954       0.38578999       0.70478299 </v>
   <v>       0.86420953       0.88578996       0.70478299 </v>
   <v>       0.11421799       0.36421899       0.70478098 </v>
   <v>       0.11421799       0.86421899       0.70478098 </v>
   <v>       0.61421800       0.36421899       0.70478098 </v>
   <v>       0.61421799       0.86421899       0.70478098 </v>
   <v>       0.38578201       0.13578149       0.70478202 </v>
   <v>       0.38578200       0.63578149       0.70478202 </v>
   <v>       0.88578199       0.13578149       0.70478202 </v>
   <v>       0.88578203       0.63578149       0.70478202 </v>
   <v>       0.13466700       0.11533200       0.80125603 </v>
   <v>       0.13466699       0.61533199       0.80125603 </v>
   <v>       0.63466699       0.11533200       0.80125603 </v>
   <v>       0.63466698       0.61533199       0.80125603 </v>
   <v>       0.36533300       0.38466799       0.80125603 </v>
   <v>       0.36533299       0.88466796       0.80125603 </v>
   <v>       0.86533295       0.38466799       0.80125603 </v>
   <v>       0.86533294       0.88466796       0.80125603 </v>
   <v>       0.11532850       0.36533700       0.80126500 </v>
   <v>       0.11532850       0.86533698       0.80126500 </v>
   <v>       0.61532850       0.36533700       0.80126500 </v>
   <v>       0.61532849       0.86533698       0.80126500 </v>
   <v>       0.38467151       0.13466300       0.80126500 </v>
   <v>       0.38467150       0.63466297       0.80126500 </v>
   <v>       0.88467149       0.13466300       0.80126500 </v>
   <v>       0.88467153       0.63466297       0.80126500 </v>
   <v>       0.99830654       0.00364091       0.60388482 </v>
   <v>       0.00489810       0.50461774       0.60421112 </v>
   <v>       0.50496604       0.00105303       0.60536125 </v>
   <v>       0.50216911       0.49807626       0.60299689 </v>
   <v>       0.25197968       0.24914608       0.60429256 </v>
   <v>       0.25105615       0.75364661       0.60288481 </v>
   <v>       0.74719116       0.25115168       0.60505492 </v>
   <v>       0.74306323       0.75598866       0.60357745 </v>
   <v>       0.00000050       0.00000050       0.70482896 </v>
   <v>       0.00000050       0.50000048       0.70482896 </v>
   <v>       0.50000048       0.00000050       0.70482896 </v>
   <v>       0.50000046       0.50000048       0.70482896 </v>
   <v>       0.24999999       0.24999947       0.70482499 </v>
   <v>       0.25000001       0.74999950       0.70482499 </v>
   <v>       0.74999999       0.24999947       0.70482499 </v>
   <v>       0.74999998       0.74999950       0.70482499 </v>
   <v>       0.00000000       0.00000000       0.80731797 </v>
   <v>       0.00000000       0.50000000       0.80731797 </v>
   <v>       0.50000000       0.00000000       0.80731797 </v>
   <v>       0.49999999       0.50000000       0.80731797 </v>
   <v>       0.24999999       0.25000000       0.80731797 </v>
   <v>       0.25000001       0.74999997       0.80731797 </v>
   <v>       0.74999999       0.25000000       0.80731797 </v>
   <v>       0.74999998       0.74999997       0.80731797 </v>
  </varray>
 </structure>
</modeling>
