<?xml version="1.0" encoding="ISO-8859-1"?>
<modeling>
 <generator>
  <i name="program" type="string">vasp </i>
  <i name="version" type="string">6.2.1  </i>
  <i name="subversion" type="string">16May21 (build Nov 15 2021 14:57:28) complex                          parallel </i>
  <i name="platform" type="string">LinuxPGI </i>
  <i name="date" type="string">2023 07 30 </i>
  <i name="time" type="string">11:04:54 </i>
 </generator>
 <incar>
  <i type="string" name="SYSTEM">PSC</i>
  <i type="int" name="ISTART">     1</i>
  <i type="string" name="PREC">Normal</i>
  <i name="BMIX">      0.01000000</i>
  <i name="AMIN">      0.01000000</i>
  <i type="int" name="ICHARG">     1</i>
  <i type="int" name="NELM">   600</i>
  <i type="int" name="ISYM">     0</i>
  <i name="ENCUT">    500.00000000</i>
  <i type="string" name="LREAL">Auto</i>
  <i type="int" name="ISMEAR">     0</i>
  <i name="SIGMA">      0.05000000</i>
  <i type="logical" name="LWAVE"> F  </i>
  <i type="logical" name="LVTOT"> T  </i>
  <i type="logical" name="GGA_COMPAT"> F  </i>
  <i type="logical" name="LDIPOL"> T  </i>
  <i type="int" name="IDIPOL">     3</i>
  <i type="int" name="IVDW">    12</i>
 </incar>
 <primitive_cell>
  <structure name="primitive_cell" >
   <crystal>
    <varray name="basis" >
     <v>      18.06080055       0.00000000       0.00000000 </v>
     <v>      -0.00491865      18.06279945       0.00000000 </v>
     <v>       0.00000000       0.00000000      62.48749924 </v>
    </varray>
    <i name="volume">  20385.21054034 </i>
    <varray name="rec_basis" >
     <v>       0.05536853       0.00001508      -0.00000000 </v>
     <v>       0.00000000       0.05536240       0.00000000 </v>
     <v>       0.00000000      -0.00000000       0.01600320 </v>
    </varray>
   </crystal>
   <varray name="positions" >
    <v>       0.42351760       0.25932856       0.58062028 </v>
    <v>       0.41314441       0.73575447       0.57682985 </v>
    <v>       0.93346330       0.28692341       0.58162360 </v>
    <v>       0.94344903       0.81177872       0.57893550 </v>
    <v>       0.31315114       0.06322436       0.57796240 </v>
    <v>       0.30479027       0.58056665       0.57480393 </v>
    <v>       0.78932980       0.07621960       0.58075758 </v>
    <v>       0.10585948       0.20392623       0.56460646 </v>
    <v>       0.08386814       0.67457064       0.56580329 </v>
    <v>       0.60355283       0.19702607       0.56375961 </v>
    <v>       0.60662865       0.74382956       0.56318668 </v>
    <v>       0.37099588       0.01613679       0.56062086 </v>
    <v>       0.26683423       0.61555622       0.55165660 </v>
    <v>       0.86028999       0.05173105       0.56352482 </v>
    <v>       0.06745395       0.25733526       0.58504634 </v>
    <v>       0.00702871       0.69035446       0.58267068 </v>
    <v>       0.53364837       0.17759768       0.58193481 </v>
    <v>       0.54296052       0.69539585       0.58046565 </v>
    <v>       0.27335940       0.44704776       0.58321370 </v>
    <v>       0.17676727       0.02921994       0.57583527 </v>
    <v>       0.67443121       0.99835418       0.57928585 </v>
    <v>       0.42273189       0.32924695       0.56123640 </v>
    <v>       0.39291708       0.80263416       0.55750940 </v>
    <v>       0.88767038       0.24932928       0.55926262 </v>
    <v>       0.97872503       0.87174234       0.55933374 </v>
    <v>       0.21518093       0.40182684       0.56556081 </v>
    <v>       0.15250462       0.96413658       0.55659796 </v>
    <v>       0.67789992       0.92291815       0.56174956 </v>
    <v>       0.53600639       0.29264098       0.54744140 </v>
    <v>       0.51895613       0.81035429       0.54667477 </v>
    <v>       0.99449242       0.19791303       0.54591467 </v>
    <v>       0.07021487       0.78752673       0.54881088 </v>
    <v>       0.20396573       0.50588789       0.54357967 </v>
    <v>       0.27400835       0.94864779       0.54509761 </v>
    <v>       0.79515686       0.95184104       0.54959809 </v>
    <v>       0.43656712       0.28297280       0.67564857 </v>
    <v>       0.43073810       0.82104657       0.67174752 </v>
    <v>       0.97388302       0.27319986       0.68272304 </v>
    <v>       0.93334429       0.78240974       0.67481319 </v>
    <v>       0.29584183       0.04638683       0.67718635 </v>
    <v>       0.29842444       0.55073088       0.67518906 </v>
    <v>       0.79521125       0.05615624       0.67524852 </v>
    <v>       0.80765657       0.55136071       0.67664254 </v>
    <v>       0.08360263       0.16688572       0.64395283 </v>
    <v>       0.09842562       0.68933943       0.65399055 </v>
    <v>       0.58156641       0.17463124       0.64939136 </v>
    <v>       0.56166434       0.67586957       0.65582673 </v>
    <v>       0.18191563       0.40912821       0.64945284 </v>
    <v>       0.17261870       0.92143290       0.64594066 </v>
    <v>       0.67157268       0.42740033       0.65199570 </v>
    <v>       0.66785855       0.92528647       0.64913606 </v>
    <v>       0.07215796       0.17696882       0.67155162 </v>
    <v>       0.03727117       0.68542527       0.67561352 </v>
    <v>       0.53545775       0.18209030       0.67353553 </v>
    <v>       0.52347649       0.71789580       0.67851102 </v>
    <v>       0.21240833       0.43464164       0.67463799 </v>
    <v>       0.18679560       0.94699337       0.67226215 </v>
    <v>       0.71116771       0.44493886       0.67646269 </v>
    <v>       0.68716789       0.96071890       0.67429014 </v>
    <v>       0.42524759       0.33334891       0.65206169 </v>
    <v>       0.41633072       0.84020913       0.64478815 </v>
    <v>       0.93080328       0.31789074       0.66084501 </v>
    <v>       0.93558754       0.83994054       0.65232658 </v>
    <v>       0.33833200       0.07081547       0.65368757 </v>
    <v>       0.31357966       0.58978270       0.65045481 </v>
    <v>       0.83599698       0.07226546       0.65071072 </v>
    <v>       0.81815056       0.59525640       0.65164615 </v>
    <v>       0.99662317       0.25420473       0.63563061 </v>
    <v>       0.03850940       0.78650177       0.63780164 </v>
    <v>       0.51669867       0.26939257       0.63394735 </v>
    <v>       0.49712415       0.75148216       0.63272873 </v>
    <v>       0.26466189       0.99625128       0.63242453 </v>
    <v>       0.24289257       0.50493046       0.63227386 </v>
    <v>       0.76014855       0.99223123       0.63247507 </v>
    <v>       0.73337293       0.51982385       0.63450588 </v>
    <v>       0.44874502       0.30128397       0.76888902 </v>
    <v>       0.44874501       0.80128391       0.76888902 </v>
    <v>       0.94874497       0.30128397       0.76888902 </v>
    <v>       0.94874501       0.80128391       0.76888902 </v>
    <v>       0.30127600       0.05129450       0.76887296 </v>
    <v>       0.30127601       0.55129450       0.76887296 </v>
    <v>       0.80127594       0.05129450       0.76887296 </v>
    <v>       0.80127598       0.55129450       0.76887296 </v>
    <v>       0.07877100       0.17118050       0.74344197 </v>
    <v>       0.07877101       0.67118045       0.74344197 </v>
    <v>       0.57877100       0.17118050       0.74344197 </v>
    <v>       0.57877099       0.67118045       0.74344197 </v>
    <v>       0.17119950       0.42117448       0.74342103 </v>
    <v>       0.17119950       0.92117451       0.74342103 </v>
    <v>       0.67119951       0.42117448       0.74342103 </v>
    <v>       0.67119950       0.92117451       0.74342103 </v>
    <v>       0.05125600       0.19871499       0.76888902 </v>
    <v>       0.05125600       0.69871493       0.76888902 </v>
    <v>       0.55125603       0.19871499       0.76888902 </v>
    <v>       0.55125602       0.69871493       0.76888902 </v>
    <v>       0.19872349       0.44870397       0.76887205 </v>
    <v>       0.19872349       0.94870397       0.76887205 </v>
    <v>       0.69872352       0.44870397       0.76887205 </v>
    <v>       0.69872351       0.94870397       0.76887205 </v>
    <v>       0.42123152       0.32881747       0.74344197 </v>
    <v>       0.42123151       0.82881744       0.74344197 </v>
    <v>       0.92123147       0.32881747       0.74344197 </v>
    <v>       0.92123151       0.82881744       0.74344197 </v>
    <v>       0.32880050       0.07882500       0.74342103 </v>
    <v>       0.32880049       0.57882496       0.74342103 </v>
    <v>       0.82880048       0.07882500       0.74342103 </v>
    <v>       0.82880052       0.57882496       0.74342103 </v>
    <v>       0.00000350       0.25000148       0.72582199 </v>
    <v>       0.00000350       0.75000145       0.72582199 </v>
    <v>       0.50000351       0.25000148       0.72582199 </v>
    <v>       0.50000350       0.75000145       0.72582199 </v>
    <v>       0.25000050       0.00000000       0.72580398 </v>
    <v>       0.25000052       0.50000000       0.72580398 </v>
    <v>       0.75000050       0.00000000       0.72580398 </v>
    <v>       0.75000049       0.50000000       0.72580398 </v>
    <v>       0.78703334       0.50864272       0.51805436 </v>
    <v>       0.87176517       0.50569983       0.53193598 </v>
    <v>       0.75177246       0.62713312       0.53849217 </v>
    <v>       0.76782245       0.62668233       0.56616097 </v>
    <v>       0.67965039       0.45331242       0.55749676 </v>
    <v>       0.66969145       0.54935049       0.56327642 </v>
    <v>       0.79939419       0.42825436       0.57057115 </v>
    <v>       0.86516420       0.50144117       0.57112601 </v>
    <v>       0.86188698       0.37957594       0.54184910 </v>
    <v>       0.76524124       0.37631969       0.53756339 </v>
    <v>       0.77740184       0.38000856       0.49930476 </v>
    <v>       0.86576943       0.41941637       0.49948510 </v>
    <v>       0.89218150       0.60998258       0.53282428 </v>
    <v>       0.90509235       0.60986626       0.56131631 </v>
    <v>       0.86729744       0.68903874       0.54822812 </v>
    <v>       0.59681653       0.52220983       0.53281214 </v>
    <v>       0.66871059       0.48369697       0.51745189 </v>
    <v>       0.66847423       0.58079368       0.52313393 </v>
    <v>       0.72225275       0.48273383       0.59626397 </v>
    <v>       0.75177390       0.57503013       0.59286516 </v>
    <v>       0.81203214       0.50930433       0.60567070 </v>
    <v>       0.83425311       0.26275070       0.51719317 </v>
    <v>       0.84634123       0.27772949       0.48976043 </v>
    <v>       0.93907807       0.17354284       0.50239428 </v>
    <v>       0.97342315       0.40569295       0.51464896 </v>
    <v>       0.07301531       0.15062977       0.50365744 </v>
    <v>       0.10719619       0.38244465       0.51657506 </v>
    <v>       0.15852812       0.25727695       0.51156735 </v>
    <v>       0.99721986       0.22711111       0.56101748 </v>
    <v>       0.03112651       0.77238134       0.56126460 </v>
    <v>       0.51251936       0.26179517       0.56083007 </v>
    <v>       0.50090557       0.77145976       0.55916158 </v>
    <v>       0.23861344       0.50828264       0.55768839 </v>
    <v>       0.26259537       0.98820916       0.55769577 </v>
    <v>       0.76906537       0.98600629       0.56175304 </v>
    <v>       0.00701010       0.24272060       0.65249812 </v>
    <v>       0.01621039       0.76444743       0.65295225 </v>
    <v>       0.50353071       0.25439697       0.65035029 </v>
    <v>       0.48913331       0.75855167       0.65004927 </v>
    <v>       0.24772837       0.49936748       0.64957743 </v>
    <v>       0.25547059       0.99604616       0.64982718 </v>
    <v>       0.74451801       0.51146418       0.65139280 </v>
    <v>       0.75240702       0.99861767       0.64964617 </v>
    <v>       0.49998898       0.24999498       0.74327702 </v>
    <v>       0.49998903       0.74999496       0.74327702 </v>
    <v>       0.99998898       0.24999498       0.74327702 </v>
    <v>       0.99998903       0.74999496       0.74327702 </v>
    <v>       0.25000050       0.00000100       0.74325596 </v>
    <v>       0.25000052       0.50000100       0.74325596 </v>
    <v>       0.75000050       0.00000100       0.74325596 </v>
    <v>       0.75000049       0.50000100       0.74325596 </v>
    <v>       0.94472834       0.29014993       0.50790554 </v>
    <v>       0.97556904       0.21939551       0.50531759 </v>
    <v>       0.99401380       0.34871557       0.51245687 </v>
    <v>       0.05209687       0.20686170       0.50615287 </v>
    <v>       0.07036710       0.33633937       0.51328412 </v>
    <v>       0.09942355       0.26626526       0.51010325 </v>
    <v>       0.81360583       0.48597044       0.53247332 </v>
    <v>       0.78861964       0.60453164       0.55101896 </v>
    <v>       0.69169320       0.51018109       0.55130668 </v>
    <v>       0.80597598       0.48906465       0.57191401 </v>
    <v>       0.81679919       0.40206776       0.53177580 </v>
    <v>       0.82983278       0.37914828       0.50798686 </v>
    <v>       0.86844475       0.62831579       0.54820169 </v>
    <v>       0.65609713       0.52534564       0.52977765 </v>
    <v>       0.77037239       0.51640282       0.59269692 </v>
    <v>       0.86236440       0.30077626       0.50554936 </v>
    <v>       0.05966315       0.22687096       0.57132387 </v>
    <v>       0.04059083       0.70808462       0.57034979 </v>
    <v>       0.55001375       0.20641286       0.56893948 </v>
    <v>       0.55268096       0.72852393       0.56744406 </v>
    <v>       0.44857842       0.28458616       0.56795973 </v>
    <v>       0.43088849       0.77026563       0.56520808 </v>
    <v>       0.93565497       0.25749228       0.56756121 </v>
    <v>       0.97890941       0.81935710       0.56627189 </v>
    <v>       0.24167250       0.44931537       0.56979341 </v>
    <v>       0.19397640       0.99404739       0.56393420 </v>
    <v>       0.70135484       0.97102446       0.56742227 </v>
    <v>       0.31721795       0.02660177       0.56560806 </v>
    <v>       0.27183750       0.57077405       0.56194669 </v>
    <v>       0.80759529       0.04111589       0.56933317 </v>
    <v>       0.05750946       0.19189411       0.65653610 </v>
    <v>       0.05270055       0.70962372       0.66156878 </v>
    <v>       0.54243965       0.20033038       0.65852570 </v>
    <v>       0.52807203       0.71479594       0.66274309 </v>
    <v>       0.21282266       0.44549672       0.65887385 </v>
    <v>       0.20291237       0.95351260       0.65689713 </v>
    <v>       0.70702552       0.45826716       0.66076259 </v>
    <v>       0.70048800       0.95991478       0.65869003 </v>
    <v>       0.45183525       0.29219318       0.66017330 </v>
    <v>       0.44291737       0.80971597       0.65627482 </v>
    <v>       0.96871689       0.27972350       0.66644561 </v>
    <v>       0.95693798       0.79661908       0.66063873 </v>
    <v>       0.29740526       0.03869200       0.66127460 </v>
    <v>       0.28899168       0.54921913       0.65927762 </v>
    <v>       0.79724844       0.04484833       0.65949494 </v>
    <v>       0.79359610       0.55581958       0.66073982 </v>
    <v>       0.04586250       0.20411950       0.75272599 </v>
    <v>       0.04586250       0.70411946       0.75272599 </v>
    <v>       0.54586251       0.20411950       0.75272599 </v>
    <v>       0.54586250       0.70411946       0.75272599 </v>
    <v>       0.20411900       0.45410100       0.75270499 </v>
    <v>       0.20411899       0.95410095       0.75270499 </v>
    <v>       0.70411898       0.45410100       0.75270499 </v>
    <v>       0.70411896       0.95410095       0.75270499 </v>
    <v>       0.45414002       0.29588849       0.75272697 </v>
    <v>       0.45414001       0.79588852       0.75272697 </v>
    <v>       0.95414002       0.29588849       0.75272697 </v>
    <v>       0.95414006       0.79588852       0.75272697 </v>
    <v>       0.29588249       0.04590050       0.75270499 </v>
    <v>       0.29588248       0.54590053       0.75270499 </v>
    <v>       0.79588244       0.04590050       0.75270499 </v>
    <v>       0.79588248       0.54590053       0.75270499 </v>
    <v>       0.77492659       0.52161659       0.55142993 </v>
    <v>       0.50687613       0.98663212       0.55371036 </v>
    <v>       0.45606340       0.47722138       0.55450001 </v>
    <v>       0.99684550       0.01058721       0.55145509 </v>
    <v>       0.03570214       0.49096837       0.55778588 </v>
    <v>       0.24464777       0.24640770       0.55571399 </v>
    <v>       0.23727729       0.77164297       0.55138464 </v>
    <v>       0.74395567       0.22611469       0.55457583 </v>
    <v>       0.71535060       0.79008674       0.54502515 </v>
    <v>       0.00194533       0.99673310       0.65445860 </v>
    <v>       0.00069678       0.50531382       0.65620449 </v>
    <v>       0.49579225       0.00330874       0.65494655 </v>
    <v>       0.49633053       0.49968379       0.65518311 </v>
    <v>       0.25492883       0.23903534       0.65566172 </v>
    <v>       0.25137553       0.75353341       0.65406527 </v>
    <v>       0.74329887       0.25181534       0.65564536 </v>
    <v>       0.75635130       0.75525123       0.65370741 </v>
    <v>       0.14741134       0.10526524       0.61012795 </v>
    <v>       0.14988739       0.60667522       0.60954031 </v>
    <v>       0.64687597       0.10664191       0.61050333 </v>
    <v>       0.61014370       0.64018123       0.61480339 </v>
    <v>       0.36252948       0.38837119       0.61275708 </v>
    <v>       0.36115884       0.88921796       0.60843462 </v>
    <v>       0.88997782       0.36153034       0.61618727 </v>
    <v>       0.86191562       0.89036409       0.60854652 </v>
    <v>       0.11762524       0.36075385       0.61267247 </v>
    <v>       0.11659425       0.87224292       0.60857882 </v>
    <v>       0.61694644       0.37032068       0.60646652 </v>
    <v>       0.61953156       0.86614246       0.61308606 </v>
    <v>       0.39729373       0.14088287       0.60853822 </v>
    <v>       0.38318679       0.63889935       0.60737282 </v>
    <v>       0.88614073       0.13674671       0.61343074 </v>
    <v>       0.91487881       0.66474325       0.61433760 </v>
    <v>       0.00000000       0.00000000       0.75492797 </v>
    <v>       0.00000000       0.50000000       0.75492797 </v>
    <v>       0.50000000       0.00000000       0.75492797 </v>
    <v>       0.49999999       0.50000000       0.75492797 </v>
    <v>       0.25000050       0.25000000       0.75493902 </v>
    <v>       0.25000051       0.74999997       0.75493902 </v>
    <v>       0.75000047       0.25000000       0.75493902 </v>
    <v>       0.75000046       0.74999997       0.75493902 </v>
    <v>       0.13579050       0.11421000       0.70478299 </v>
    <v>       0.13579050       0.61420998       0.70478299 </v>
    <v>       0.63579045       0.11421000       0.70478299 </v>
    <v>       0.63579049       0.61420998       0.70478299 </v>
    <v>       0.36420952       0.38578999       0.70478299 </v>
    <v>       0.36420950       0.88578996       0.70478299 </v>
    <v>       0.86420954       0.38578999       0.70478299 </v>
    <v>       0.86420953       0.88578996       0.70478299 </v>
    <v>       0.11421799       0.36421899       0.70478098 </v>
    <v>       0.11421799       0.86421899       0.70478098 </v>
    <v>       0.61421800       0.36421899       0.70478098 </v>
    <v>       0.61421799       0.86421899       0.70478098 </v>
    <v>       0.38578201       0.13578149       0.70478202 </v>
    <v>       0.38578200       0.63578149       0.70478202 </v>
    <v>       0.88578199       0.13578149       0.70478202 </v>
    <v>       0.88578203       0.63578149       0.70478202 </v>
    <v>       0.13466700       0.11533200       0.80125603 </v>
    <v>       0.13466699       0.61533199       0.80125603 </v>
    <v>       0.63466699       0.11533200       0.80125603 </v>
    <v>       0.63466698       0.61533199       0.80125603 </v>
    <v>       0.36533300       0.38466799       0.80125603 </v>
    <v>       0.36533299       0.88466796       0.80125603 </v>
    <v>       0.86533295       0.38466799       0.80125603 </v>
    <v>       0.86533294       0.88466796       0.80125603 </v>
    <v>       0.11532850       0.36533700       0.80126500 </v>
    <v>       0.11532850       0.86533698       0.80126500 </v>
    <v>       0.61532850       0.36533700       0.80126500 </v>
    <v>       0.61532849       0.86533698       0.80126500 </v>
    <v>       0.38467151       0.13466300       0.80126500 </v>
    <v>       0.38467150       0.63466297       0.80126500 </v>
    <v>       0.88467149       0.13466300       0.80126500 </v>
    <v>       0.88467153       0.63466297       0.80126500 </v>
    <v>       0.99470913       0.00568325       0.60442112 </v>
    <v>       0.00891522       0.50461558       0.60643605 </v>
    <v>       0.50193689       0.99496273       0.60355730 </v>
    <v>       0.49536904       0.50069788       0.60292687 </v>
    <v>       0.25204219       0.24938411       0.60552584 </v>
    <v>       0.24297812       0.75721008       0.60363422 </v>
    <v>       0.75189750       0.25488967       0.60583974 </v>
    <v>       0.74984369       0.75524015       0.60500834 </v>
    <v>       0.00000050       0.00000050       0.70482896 </v>
    <v>       0.00000050       0.50000048       0.70482896 </v>
    <v>       0.50000048       0.00000050       0.70482896 </v>
    <v>       0.50000046       0.50000048       0.70482896 </v>
    <v>       0.24999999       0.24999947       0.70482499 </v>
    <v>       0.25000001       0.74999950       0.70482499 </v>
    <v>       0.74999999       0.24999947       0.70482499 </v>
    <v>       0.74999998       0.74999950       0.70482499 </v>
    <v>       0.00000000       0.00000000       0.80731797 </v>
    <v>       0.00000000       0.50000000       0.80731797 </v>
    <v>       0.50000000       0.00000000       0.80731797 </v>
    <v>       0.49999999       0.50000000       0.80731797 </v>
    <v>       0.24999999       0.25000000       0.80731797 </v>
    <v>       0.25000001       0.74999997       0.80731797 </v>
    <v>       0.74999999       0.25000000       0.80731797 </v>
    <v>       0.74999998       0.74999997       0.80731797 </v>
   </varray>
  </structure>
  <varray name="primitive_index" >
   <v type="int" >        1 </v>
   <v type="int" >        2 </v>
   <v type="int" >        3 </v>
   <v type="int" >        4 </v>
   <v type="int" >        5 </v>
   <v type="int" >        6 </v>
   <v type="int" >        7 </v>
   <v type="int" >        8 </v>
   <v type="int" >        9 </v>
   <v type="int" >       10 </v>
   <v type="int" >       11 </v>
   <v type="int" >       12 </v>
   <v type="int" >       13 </v>
   <v type="int" >       14 </v>
   <v type="int" >       15 </v>
   <v type="int" >       16 </v>
   <v type="int" >       17 </v>
   <v type="int" >       18 </v>
   <v type="int" >       19 </v>
   <v type="int" >       20 </v>
   <v type="int" >       21 </v>
   <v type="int" >       22 </v>
   <v type="int" >       23 </v>
   <v type="int" >       24 </v>
   <v type="int" >       25 </v>
   <v type="int" >       26 </v>
   <v type="int" >       27 </v>
   <v type="int" >       28 </v>
   <v type="int" >       29 </v>
   <v type="int" >       30 </v>
   <v type="int" >       31 </v>
   <v type="int" >       32 </v>
   <v type="int" >       33 </v>
   <v type="int" >       34 </v>
   <v type="int" >       35 </v>
   <v type="int" >       36 </v>
   <v type="int" >       37 </v>
   <v type="int" >       38 </v>
   <v type="int" >       39 </v>
   <v type="int" >       40 </v>
   <v type="int" >       41 </v>
   <v type="int" >       42 </v>
   <v type="int" >       43 </v>
   <v type="int" >       44 </v>
   <v type="int" >       45 </v>
   <v type="int" >       46 </v>
   <v type="int" >       47 </v>
   <v type="int" >       48 </v>
   <v type="int" >       49 </v>
   <v type="int" >       50 </v>
   <v type="int" >       51 </v>
   <v type="int" >       52 </v>
   <v type="int" >       53 </v>
   <v type="int" >       54 </v>
   <v type="int" >       55 </v>
   <v type="int" >       56 </v>
   <v type="int" >       57 </v>
   <v type="int" >       58 </v>
   <v type="int" >       59 </v>
   <v type="int" >       60 </v>
   <v type="int" >       61 </v>
   <v type="int" >       62 </v>
   <v type="int" >       63 </v>
   <v type="int" >       64 </v>
   <v type="int" >       65 </v>
   <v type="int" >       66 </v>
   <v type="int" >       67 </v>
   <v type="int" >       68 </v>
   <v type="int" >       69 </v>
   <v type="int" >       70 </v>
   <v type="int" >       71 </v>
   <v type="int" >       72 </v>
   <v type="int" >       73 </v>
   <v type="int" >       74 </v>
   <v type="int" >       75 </v>
   <v type="int" >       76 </v>
   <v type="int" >       77 </v>
   <v type="int" >       78 </v>
   <v type="int" >       79 </v>
   <v type="int" >       80 </v>
   <v type="int" >       81 </v>
   <v type="int" >       82 </v>
   <v type="int" >       83 </v>
   <v type="int" >       84 </v>
   <v type="int" >       85 </v>
   <v type="int" >       86 </v>
   <v type="int" >       87 </v>
   <v type="int" >       88 </v>
   <v type="int" >       89 </v>
   <v type="int" >       90 </v>
   <v type="int" >       91 </v>
   <v type="int" >       92 </v>
   <v type="int" >       93 </v>
   <v type="int" >       94 </v>
   <v type="int" >       95 </v>
   <v type="int" >       96 </v>
   <v type="int" >       97 </v>
   <v type="int" >       98 </v>
   <v type="int" >       99 </v>
   <v type="int" >      100 </v>
   <v type="int" >      101 </v>
   <v type="int" >      102 </v>
   <v type="int" >      103 </v>
   <v type="int" >      104 </v>
   <v type="int" >      105 </v>
   <v type="int" >      106 </v>
   <v type="int" >      107 </v>
   <v type="int" >      108 </v>
   <v type="int" >      109 </v>
   <v type="int" >      110 </v>
   <v type="int" >      111 </v>
   <v type="int" >      112 </v>
   <v type="int" >      113 </v>
   <v type="int" >      114 </v>
   <v type="int" >      115 </v>
   <v type="int" >      116 </v>
   <v type="int" >      117 </v>
   <v type="int" >      118 </v>
   <v type="int" >      119 </v>
   <v type="int" >      120 </v>
   <v type="int" >      121 </v>
   <v type="int" >      122 </v>
   <v type="int" >      123 </v>
   <v type="int" >      124 </v>
   <v type="int" >      125 </v>
   <v type="int" >      126 </v>
   <v type="int" >      127 </v>
   <v type="int" >      128 </v>
   <v type="int" >      129 </v>
   <v type="int" >      130 </v>
   <v type="int" >      131 </v>
   <v type="int" >      132 </v>
   <v type="int" >      133 </v>
   <v type="int" >      134 </v>
   <v type="int" >      135 </v>
   <v type="int" >      136 </v>
   <v type="int" >      137 </v>
   <v type="int" >      138 </v>
   <v type="int" >      139 </v>
   <v type="int" >      140 </v>
   <v type="int" >      141 </v>
   <v type="int" >      142 </v>
   <v type="int" >      143 </v>
   <v type="int" >      144 </v>
   <v type="int" >      145 </v>
   <v type="int" >      146 </v>
   <v type="int" >      147 </v>
   <v type="int" >      148 </v>
   <v type="int" >      149 </v>
   <v type="int" >      150 </v>
   <v type="int" >      151 </v>
   <v type="int" >      152 </v>
   <v type="int" >      153 </v>
   <v type="int" >      154 </v>
   <v type="int" >      155 </v>
   <v type="int" >      156 </v>
   <v type="int" >      157 </v>
   <v type="int" >      158 </v>
   <v type="int" >      159 </v>
   <v type="int" >      160 </v>
   <v type="int" >      161 </v>
   <v type="int" >      162 </v>
   <v type="int" >      163 </v>
   <v type="int" >      164 </v>
   <v type="int" >      165 </v>
   <v type="int" >      166 </v>
   <v type="int" >      167 </v>
   <v type="int" >      168 </v>
   <v type="int" >      169 </v>
   <v type="int" >      170 </v>
   <v type="int" >      171 </v>
   <v type="int" >      172 </v>
   <v type="int" >      173 </v>
   <v type="int" >      174 </v>
   <v type="int" >      175 </v>
   <v type="int" >      176 </v>
   <v type="int" >      177 </v>
   <v type="int" >      178 </v>
   <v type="int" >      179 </v>
   <v type="int" >      180 </v>
   <v type="int" >      181 </v>
   <v type="int" >      182 </v>
   <v type="int" >      183 </v>
   <v type="int" >      184 </v>
   <v type="int" >      185 </v>
   <v type="int" >      186 </v>
   <v type="int" >      187 </v>
   <v type="int" >      188 </v>
   <v type="int" >      189 </v>
   <v type="int" >      190 </v>
   <v type="int" >      191 </v>
   <v type="int" >      192 </v>
   <v type="int" >      193 </v>
   <v type="int" >      194 </v>
   <v type="int" >      195 </v>
   <v type="int" >      196 </v>
   <v type="int" >      197 </v>
   <v type="int" >      198 </v>
   <v type="int" >      199 </v>
   <v type="int" >      200 </v>
   <v type="int" >      201 </v>
   <v type="int" >      202 </v>
   <v type="int" >      203 </v>
   <v type="int" >      204 </v>
   <v type="int" >      205 </v>
   <v type="int" >      206 </v>
   <v type="int" >      207 </v>
   <v type="int" >      208 </v>
   <v type="int" >      209 </v>
   <v type="int" >      210 </v>
   <v type="int" >      211 </v>
   <v type="int" >      212 </v>
   <v type="int" >      213 </v>
   <v type="int" >      214 </v>
   <v type="int" >      215 </v>
   <v type="int" >      216 </v>
   <v type="int" >      217 </v>
   <v type="int" >      218 </v>
   <v type="int" >      219 </v>
   <v type="int" >      220 </v>
   <v type="int" >      221 </v>
   <v type="int" >      222 </v>
   <v type="int" >      223 </v>
   <v type="int" >      224 </v>
   <v type="int" >      225 </v>
   <v type="int" >      226 </v>
   <v type="int" >      227 </v>
   <v type="int" >      228 </v>
   <v type="int" >      229 </v>
   <v type="int" >      230 </v>
   <v type="int" >      231 </v>
   <v type="int" >      232 </v>
   <v type="int" >      233 </v>
   <v type="int" >      234 </v>
   <v type="int" >      235 </v>
   <v type="int" >      236 </v>
   <v type="int" >      237 </v>
   <v type="int" >      238 </v>
   <v type="int" >      239 </v>
   <v type="int" >      240 </v>
   <v type="int" >      241 </v>
   <v type="int" >      242 </v>
   <v type="int" >      243 </v>
   <v type="int" >      244 </v>
   <v type="int" >      245 </v>
   <v type="int" >      246 </v>
   <v type="int" >      247 </v>
   <v type="int" >      248 </v>
   <v type="int" >      249 </v>
   <v type="int" >      250 </v>
   <v type="int" >      251 </v>
   <v type="int" >      252 </v>
   <v type="int" >      253 </v>
   <v type="int" >      254 </v>
   <v type="int" >      255 </v>
   <v type="int" >      256 </v>
   <v type="int" >      257 </v>
   <v type="int" >      258 </v>
   <v type="int" >      259 </v>
   <v type="int" >      260 </v>
   <v type="int" >      261 </v>
   <v type="int" >      262 </v>
   <v type="int" >      263 </v>
   <v type="int" >      264 </v>
   <v type="int" >      265 </v>
   <v type="int" >      266 </v>
   <v type="int" >      267 </v>
   <v type="int" >      268 </v>
   <v type="int" >      269 </v>
   <v type="int" >      270 </v>
   <v type="int" >      271 </v>
   <v type="int" >      272 </v>
   <v type="int" >      273 </v>
   <v type="int" >      274 </v>
   <v type="int" >      275 </v>
   <v type="int" >      276 </v>
   <v type="int" >      277 </v>
   <v type="int" >      278 </v>
   <v type="int" >      279 </v>
   <v type="int" >      280 </v>
   <v type="int" >      281 </v>
   <v type="int" >      282 </v>
   <v type="int" >      283 </v>
   <v type="int" >      284 </v>
   <v type="int" >      285 </v>
   <v type="int" >      286 </v>
   <v type="int" >      287 </v>
   <v type="int" >      288 </v>
   <v type="int" >      289 </v>
   <v type="int" >      290 </v>
   <v type="int" >      291 </v>
   <v type="int" >      292 </v>
   <v type="int" >      293 </v>
   <v type="int" >      294 </v>
   <v type="int" >      295 </v>
   <v type="int" >      296 </v>
   <v type="int" >      297 </v>
   <v type="int" >      298 </v>
   <v type="int" >      299 </v>
   <v type="int" >      300 </v>
   <v type="int" >      301 </v>
   <v type="int" >      302 </v>
   <v type="int" >      303 </v>
   <v type="int" >      304 </v>
   <v type="int" >      305 </v>
   <v type="int" >      306 </v>
   <v type="int" >      307 </v>
   <v type="int" >      308 </v>
   <v type="int" >      309 </v>
   <v type="int" >      310 </v>
   <v type="int" >      311 </v>
   <v type="int" >      312 </v>
   <v type="int" >      313 </v>
   <v type="int" >      314 </v>
   <v type="int" >      315 </v>
   <v type="int" >      316 </v>
   <v type="int" >      317 </v>
   <v type="int" >      318 </v>
   <v type="int" >      319 </v>
   <v type="int" >      320 </v>
   <v type="int" >      321 </v>
   <v type="int" >      322 </v>
   <v type="int" >      323 </v>
   <v type="int" >      324 </v>
   <v type="int" >      325 </v>
  </varray>
 </primitive_cell>
 <kpoints>
  <generation param="Gamma">
   <v type="int" name="divisions">       3        3        1 </v>
   <v name="usershift">      0.00000000       0.00000000       0.00000000 </v>
   <v name="genvec1">      0.33333333       0.00000000       0.00000000 </v>
   <v name="genvec2">      0.00000000       0.33333333       0.00000000 </v>
   <v name="genvec3">      0.00000000       0.00000000       1.00000000 </v>
   <v name="shift">      0.00000000       0.00000000       0.00000000 </v>
  </generation>
  <varray name="kpointlist" >
   <v>       0.00000000       0.00000000       0.00000000 </v>
   <v>       0.33333333       0.00000000       0.00000000 </v>
   <v>       0.00000000       0.33333333       0.00000000 </v>
   <v>       0.33333333       0.33333333       0.00000000 </v>
   <v>      -0.33333333       0.33333333       0.00000000 </v>
  </varray>
  <varray name="weights" >
   <v>       0.11111111 </v>
   <v>       0.22222222 </v>
   <v>       0.22222222 </v>
   <v>       0.22222222 </v>
   <v>       0.22222222 </v>
  </varray>
 </kpoints>
 <parameters>
  <separator name="general" >
   <i type="string" name="SYSTEM">PSC</i>
   <i type="logical" name="LCOMPAT"> F  </i>
  </separator>
  <separator name="electronic" >
   <i type="string" name="PREC">normal</i>
   <i name="ENMAX">    500.00000000</i>
   <i name="ENAUG">    644.87300000</i>
   <i name="EDIFF">      0.00010000</i>
   <i type="int" name="IALGO">    38</i>
   <i type="int" name="IWAVPR">    10</i>
   <i type="int" name="NBANDS">   732</i>
   <i type="int" name="NBANDSLOW">    -1</i>
   <i type="int" name="NBANDSHIGH">    -1</i>
   <i name="NELECT">   1134.00000000</i>
   <i type="int" name="TURBO">     0</i>
   <i type="int" name="IRESTART">     0</i>
   <i type="int" name="NREBOOT">     0</i>
   <i type="int" name="NMIN">     0</i>
   <i name="EREF">      0.00000000</i>
   <separator name="electronic smearing" >
    <i type="int" name="ISMEAR">     0</i>
    <i name="SIGMA">      0.05000000</i>
    <i name="KSPACING">      0.50000000</i>
    <i type="logical" name="KGAMMA"> T  </i>
    <i type="logical" name="KBLOWUP"> T  </i>
   </separator>
   <separator name="electronic projectors" >
    <i type="logical" name="LREAL"> T  </i>
    <v name="ROPT">     -0.00050000     -0.00050000     -0.00050000     -0.00050000     -0.00050000</v>
    <i type="int" name="LMAXPAW">  -100</i>
    <i type="int" name="LMAXMIX">     2</i>
    <i type="logical" name="NLSPLINE"> F  </i>
   </separator>
   <separator name="electronic startup" >
    <i type="int" name="ISTART">     0</i>
    <i type="int" name="ICHARG">     1</i>
    <i type="int" name="INIWAV">     1</i>
   </separator>
   <separator name="electronic spin" >
    <i type="int" name="ISPIN">     1</i>
    <i type="logical" name="LNONCOLLINEAR"> F  </i>
    <v name="MAGMOM">      1.00000000      1.00000000      1.00000000      1.00000000      1.00000000      1.00000000      1.00000000      1.00000000      1.00000000      1.00000000      1.00000000      1.00000000      1.00000000      1.00000000      1.00000000      1.00000000      1.00000000      1.00000000      1.00000000      1.00000000
      1.00000000      1.00000000      1.00000000      1.00000000      1.00000000      1.00000000      1.00000000      1.00000000      1.00000000      1.00000000      1.00000000      1.00000000      1.00000000      1.00000000      1.00000000      1.00000000      1.00000000      1.00000000      1.00000000      1.00000000
      1.00000000      1.00000000      1.00000000      1.00000000      1.00000000      1.00000000      1.00000000      1.00000000      1.00000000      1.00000000      1.00000000      1.00000000      1.00000000      1.00000000      1.00000000      1.00000000      1.00000000      1.00000000      1.00000000      1.00000000
      1.00000000      1.00000000      1.00000000      1.00000000      1.00000000      1.00000000      1.00000000      1.00000000      1.00000000      1.00000000      1.00000000      1.00000000      1.00000000      1.00000000      1.00000000      1.00000000      1.00000000      1.00000000      1.00000000      1.00000000
      1.00000000      1.00000000      1.00000000      1.00000000      1.00000000      1.00000000      1.00000000      1.00000000      1.00000000      1.00000000      1.00000000      1.00000000      1.00000000      1.00000000      1.00000000      1.00000000      1.00000000      1.00000000      1.00000000      1.00000000
      1.00000000      1.00000000      1.00000000      1.00000000      1.00000000      1.00000000      1.00000000      1.00000000      1.00000000      1.00000000      1.00000000      1.00000000      1.00000000      1.00000000      1.00000000      1.00000000      1.00000000      1.00000000      1.00000000      1.00000000
      1.00000000      1.00000000      1.00000000      1.00000000      1.00000000      1.00000000      1.00000000      1.00000000      1.00000000      1.00000000      1.00000000      1.00000000      1.00000000      1.00000000      1.00000000      1.00000000      1.00000000      1.00000000      1.00000000      1.00000000
      1.00000000      1.00000000      1.00000000      1.00000000      1.00000000      1.00000000      1.00000000      1.00000000      1.00000000      1.00000000      1.00000000      1.00000000      1.00000000      1.00000000      1.00000000      1.00000000      1.00000000      1.00000000      1.00000000      1.00000000
      1.00000000      1.00000000      1.00000000      1.00000000      1.00000000      1.00000000      1.00000000      1.00000000      1.00000000      1.00000000      1.00000000      1.00000000      1.00000000      1.00000000      1.00000000      1.00000000      1.00000000      1.00000000      1.00000000      1.00000000
      1.00000000      1.00000000      1.00000000      1.00000000      1.00000000      1.00000000      1.00000000      1.00000000      1.00000000      1.00000000      1.00000000      1.00000000      1.00000000      1.00000000      1.00000000      1.00000000      1.00000000      1.00000000      1.00000000      1.00000000
      1.00000000      1.00000000      1.00000000      1.00000000      1.00000000      1.00000000      1.00000000      1.00000000      1.00000000      1.00000000      1.00000000      1.00000000      1.00000000      1.00000000      1.00000000      1.00000000      1.00000000      1.00000000      1.00000000      1.00000000
      1.00000000      1.00000000      1.00000000      1.00000000      1.00000000      1.00000000      1.00000000      1.00000000      1.00000000      1.00000000      1.00000000      1.00000000      1.00000000      1.00000000      1.00000000      1.00000000      1.00000000      1.00000000      1.00000000      1.00000000
      1.00000000      1.00000000      1.00000000      1.00000000      1.00000000      1.00000000      1.00000000      1.00000000      1.00000000      1.00000000      1.00000000      1.00000000      1.00000000      1.00000000      1.00000000      1.00000000      1.00000000      1.00000000      1.00000000      1.00000000
      1.00000000      1.00000000      1.00000000      1.00000000      1.00000000      1.00000000      1.00000000      1.00000000      1.00000000      1.00000000      1.00000000      1.00000000      1.00000000      1.00000000      1.00000000      1.00000000      1.00000000      1.00000000      1.00000000      1.00000000
      1.00000000      1.00000000      1.00000000      1.00000000      1.00000000      1.00000000      1.00000000      1.00000000      1.00000000      1.00000000      1.00000000      1.00000000      1.00000000      1.00000000      1.00000000      1.00000000      1.00000000      1.00000000      1.00000000      1.00000000
      1.00000000      1.00000000      1.00000000      1.00000000      1.00000000      1.00000000      1.00000000      1.00000000      1.00000000      1.00000000      1.00000000      1.00000000      1.00000000      1.00000000      1.00000000      1.00000000      1.00000000      1.00000000      1.00000000      1.00000000
      1.00000000      1.00000000      1.00000000      1.00000000      1.00000000</v>
    <i name="NUPDOWN">     -1.00000000</i>
    <i type="logical" name="LSORBIT"> F  </i>
    <v name="SAXIS">      0.00000000      0.00000000      1.00000000</v>
    <i type="logical" name="LSPIRAL"> F  </i>
    <v name="QSPIRAL">      0.00000000      0.00000000      0.00000000</v>
    <i type="logical" name="LZEROZ"> F  </i>
   </separator>
   <separator name="electronic exchange-correlation" >
    <i type="logical" name="LASPH"> F  </i>
    <i type="logical" name="LMETAGGA"> F  </i>
   </separator>
   <separator name="electronic convergence" >
    <i type="int" name="NELM">   600</i>
    <i type="int" name="NELMDL">     0</i>
    <i type="int" name="NELMIN">     2</i>
    <i name="ENINI">    500.00000000</i>
    <separator name="electronic convergence detail" >
     <i type="logical" name="LDIAG"> T  </i>
     <i type="logical" name="LSUBROT"> F  </i>
     <i name="WEIMIN">      0.00000000</i>
     <i name="EBREAK">      0.00000003</i>
     <i name="DEPER">      0.30000000</i>
     <i type="int" name="NRMM">     4</i>
     <i name="TIME">      0.40000000</i>
    </separator>
   </separator>
   <separator name="electronic mixer" >
    <i name="AMIX">      0.40000000</i>
    <i name="BMIX">      0.01000000</i>
    <i name="AMIN">      0.01000000</i>
    <i name="AMIX_MAG">      1.60000000</i>
    <i name="BMIX_MAG">      0.01000000</i>
    <separator name="electronic mixer details" >
     <i type="int" name="IMIX">     4</i>
     <i type="logical" name="MIXFIRST"> F  </i>
     <i type="int" name="MAXMIX">   -45</i>
     <i name="WC">    100.00000000</i>
     <i type="int" name="INIMIX">     1</i>
     <i type="int" name="MIXPRE">     1</i>
     <i type="int" name="MREMOVE">     5</i>
    </separator>
   </separator>
   <separator name="electronic dipolcorrection" >
    <i type="logical" name="LDIPOL"> T  </i>
    <i type="logical" name="LMONO"> F  </i>
    <i type="int" name="IDIPOL">     3</i>
    <i name="EPSILON">      1.00000000</i>
    <v name="DIPOL">   -100.00000000   -100.00000000   -100.00000000</v>
    <i name="EFIELD">      0.00000000</i>
   </separator>
  </separator>
  <separator name="grids" >
   <i type="int" name="NGX">   100</i>
   <i type="int" name="NGY">   100</i>
   <i type="int" name="NGZ">   350</i>
   <i type="int" name="NGXF">   200</i>
   <i type="int" name="NGYF">   200</i>
   <i type="int" name="NGZF">   700</i>
   <i type="logical" name="ADDGRID"> F  </i>
  </separator>
  <separator name="ionic" >
   <i type="int" name="NSW">     0</i>
   <i type="int" name="IBRION">    -1</i>
   <i type="int" name="MDALGO">     0</i>
   <i type="int" name="ISIF">     2</i>
   <i name="PSTRESS">      0.00000000</i>
   <i name="EDIFFG">      0.00100000</i>
   <i type="int" name="NFREE">     0</i>
   <i name="POTIM">      0.50000000</i>
   <i name="SMASS">     -3.00000000</i>
   <i name="SCALEE">      1.00000000</i>
  </separator>
  <separator name="ionic md" >
   <i name="TEBEG">      0.00010000</i>
   <i name="TEEND">      0.00010000</i>
   <i type="int" name="NBLOCK">     1</i>
   <i type="int" name="KBLOCK">     1</i>
   <i type="int" name="NPACO">   256</i>
   <i name="APACO">     16.00000000</i>
  </separator>
  <separator name="symmetry" >
   <i type="int" name="ISYM">     0</i>
   <i name="SYMPREC">      0.00001000</i>
  </separator>
  <separator name="dos" >
   <i type="int" name="LORBIT">     0</i>
   <v name="RWIGS">     -1.00000000     -1.00000000     -1.00000000     -1.00000000     -1.00000000</v>
   <i type="int" name="NEDOS">   301</i>
   <i name="EMIN">     10.00000000</i>
   <i name="EMAX">    -10.00000000</i>
   <i name="EFERMI">      0.00000000</i>
  </separator>
  <separator name="writing" >
   <i type="int" name="NWRITE">     2</i>
   <i type="logical" name="LWAVE"> F  </i>
   <i type="logical" name="LDOWNSAMPLE"> F  </i>
   <i type="logical" name="LCHARG"> T  </i>
   <i type="logical" name="LPARD"> F  </i>
   <i type="logical" name="LVTOT"> T  </i>
   <i type="logical" name="LVHAR"> F  </i>
   <i type="logical" name="LELF"> F  </i>
   <i type="logical" name="LOPTICS"> F  </i>
   <v name="STM">      0.00000000      0.00000000      0.00000000      0.00000000      0.00000000      0.00000000      0.00000000</v>
  </separator>
  <separator name="performance" >
   <i type="int" name="NPAR">     4</i>
   <i type="int" name="NSIM">     4</i>
   <i type="int" name="NBLK">    -1</i>
   <i type="logical" name="LPLANE"> T  </i>
   <i type="logical" name="LSCALAPACK"> T  </i>
   <i type="logical" name="LSCAAWARE"> F  </i>
   <i type="logical" name="LSCALU"> F  </i>
   <i type="logical" name="LASYNC"> F  </i>
   <i type="logical" name="LORBITALREAL"> F  </i>
  </separator>
  <separator name="miscellaneous" >
   <i type="int" name="IDIOT">     3</i>
   <i type="int" name="PHON_NSTRUCT">    -1</i>
   <i type="logical" name="LMUSIC"> F  </i>
   <v name="POMASS">      1.00000000     12.01100000     14.00100000    126.90400000    207.20000000</v>
   <v name="DARWINR">      0.00000000      0.00000000      0.00000000      0.00000000      0.00000000</v>
   <v name="DARWINV">      1.00000000      1.00000000      1.00000000      1.00000000      1.00000000</v>
   <i type="logical" name="LCORR"> T  </i>
  </separator>
  <i type="logical" name="GGA_COMPAT"> F  </i>
  <i type="logical" name="LBERRY"> F  </i>
  <i type="int" name="ICORELEVEL">     0</i>
  <i type="logical" name="LDAU"> F  </i>
  <i type="int" name="I_CONSTRAINED_M">     0</i>
  <separator name="electronic exchange-correlation" >
   <i type="string" name="GGA">--</i>
   <i type="int" name="VOSKOWN">     0</i>
   <i type="logical" name="LHFCALC"> F  </i>
   <i type="string" name="PRECFOCK"></i>
   <i type="logical" name="LSYMGRAD"> F  </i>
   <i type="logical" name="LHFONE"> F  </i>
   <i type="logical" name="LRHFCALC"> F  </i>
   <i type="logical" name="LTHOMAS"> F  </i>
   <i type="logical" name="LMODELHF"> F  </i>
   <i type="logical" name="LFOCKACE"> F  </i>
   <i name="ENCUT4O">     -1.00000000</i>
   <i type="int" name="EXXOEP">     0</i>
   <i type="int" name="FOURORBIT">     0</i>
   <i name="AEXX">      0.00000000</i>
   <i name="HFALPHA">      0.00000000</i>
   <i name="MCALPHA">      0.00000000</i>
   <i name="ALDAX">      1.00000000</i>
   <i name="AGGAX">      1.00000000</i>
   <i name="ALDAC">      1.00000000</i>
   <i name="AGGAC">      1.00000000</i>
   <i type="int" name="NKREDX">     1</i>
   <i type="int" name="NKREDY">     1</i>
   <i type="int" name="NKREDZ">     1</i>
   <i type="logical" name="SHIFTRED"> F  </i>
   <i type="logical" name="ODDONLY"> F  </i>
   <i type="logical" name="EVENONLY"> F  </i>
   <i type="int" name="LMAXFOCK">     0</i>
   <i type="int" name="NMAXFOCKAE">     0</i>
   <i type="logical" name="LFOCKAEDFT"> F  </i>
   <i name="HFSCREEN">      0.00000000</i>
   <i name="HFSCREENC">      0.00000000</i>
   <i type="int" name="NBANDSGWLOW">     0</i>
  </separator>
  <separator name="vdW DFT" >
   <i type="logical" name="LUSE_VDW"> F  </i>
   <i name="Zab_VDW">     -0.84910000</i>
   <i name="PARAM1">      0.12340000</i>
   <i name="PARAM2">      1.00000000</i>
   <i name="PARAM3">      0.00000000</i>
  </separator>
  <separator name="model GW" >
   <i type="int" name="MODEL_GW">     0</i>
   <i name="MODEL_EPS0">     37.63423484</i>
   <i name="MODEL_ALPHA">      1.00000000</i>
  </separator>
  <separator name="linear response parameters" >
   <i type="logical" name="LEPSILON"> F  </i>
   <i type="logical" name="LRPA"> F  </i>
   <i type="logical" name="LNABLA"> F  </i>
   <i type="logical" name="LVEL"> F  </i>
   <i type="int" name="KINTER">     0</i>
   <i name="CSHIFT">      0.10000000</i>
   <i name="OMEGAMAX">     -1.00000000</i>
   <i name="DEG_THRESHOLD">      0.00200000</i>
   <i name="RTIME">     -0.10000000</i>
   <i name="WPLASMAI">      0.00000000</i>
   <v name="DFIELD">      0.00000000      0.00000000      0.00000000</v>
   <v name="WPLASMA">      0.00000000      0.00000000      0.00000000      0.00000000      0.00000000      0.00000000      0.00000000      0.00000000      0.00000000</v>
  </separator>
  <separator name="orbital magnetization" >
   <i type="logical" name="NUCIND"> F  </i>
   <v name="MAGPOS">      0.00000000      0.00000000      0.00000000</v>
   <i type="logical" name="LNICSALL"> T  </i>
   <i type="logical" name="ORBITALMAG"> F  </i>
   <i type="logical" name="LMAGBLOCH"> F  </i>
   <i type="logical" name="LCHIMAG"> F  </i>
   <i type="logical" name="LGAUGE"> T  </i>
   <i type="int" name="MAGATOM">     0</i>
   <v name="MAGDIPOL">      0.00000000      0.00000000      0.00000000</v>
   <v name="AVECCONST">      0.00000000      0.00000000      0.00000000</v>
  </separator>
  <separator name="response functions" >
   <i type="logical" name="LFINITE_TEMPERATURE"> F  </i>
   <i type="logical" name="LADDER"> F  </i>
   <i type="logical" name="LRPAFORCE"> F  </i>
   <i type="logical" name="LFXC"> F  </i>
   <i type="logical" name="LHARTREE"> T  </i>
   <i type="int" name="IBSE">     0</i>
   <v type="int" name="KPOINT">    -1     0     0     0</v>
   <i type="logical" name="LTCTC"> F  </i>
   <i type="logical" name="LTCTE"> F  </i>
   <i type="logical" name="LTETE"> F  </i>
   <i type="logical" name="LTRIPLET"> F  </i>
   <i type="logical" name="LFXCEPS"> F  </i>
   <i type="logical" name="LFXHEG"> F  </i>
   <i type="int" name="NATURALO">     2</i>
   <i type="logical" name="LHOLEGF"> F  </i>
   <i type="logical" name="L2ORDER"> F  </i>
   <i type="logical" name="LDMP1"> F  </i>
   <i type="logical" name="LMP2LT"> F  </i>
   <i type="logical" name="LSMP2LT"> F  </i>
   <i type="logical" name="LGWLF"> F  </i>
   <i name="ENCUTGW">     -2.00000000</i>
   <i name="ENCUTGWSOFT">     -2.00000000</i>
   <i name="ENCUTLF">     -1.00000000</i>
   <i type="logical" name="LESF_SPLINES"> F  </i>
   <i type="int" name="LMAXMP2">    -1</i>
   <i name="SCISSOR">      0.00000000</i>
   <i type="int" name="NOMEGA">     0</i>
   <i type="int" name="NOMEGAR">     0</i>
   <i type="int" name="NBANDSGW">    -1</i>
   <i type="int" name="NBANDSO">    -1</i>
   <i type="int" name="NBANDSV">    -1</i>
   <i type="int" name="NELM">   600</i>
   <i type="int" name="NELMHF">     1</i>
   <i type="int" name="DIM">     3</i>
   <i type="int" name="IESPILON">     4</i>
   <i type="int" name="ANTIRES">     0</i>
   <i name="OMEGAMAX">    -30.00000000</i>
   <i name="OMEGAMIN">    -30.00000000</i>
   <i name="OMEGATL">   -200.00000000</i>
   <i type="int" name="OMEGAGRID">     0</i>
   <i name="CSHIFT">     -0.10000000</i>
   <i type="logical" name="LSELFENERGY"> F  </i>
   <i type="logical" name="LSPECTRAL"> F  </i>
   <i type="logical" name="LSPECTRALGW"> F  </i>
   <i type="logical" name="LSINGLES"> F  </i>
   <i type="logical" name="LFERMIGW"> F  </i>
   <i type="logical" name="ODDONLYGW"> F  </i>
   <i type="logical" name="EVENONLYGW"> F  </i>
   <i type="int" name="NKREDLFX">     1</i>
   <i type="int" name="NKREDLFY">     1</i>
   <i type="int" name="NKREDLFZ">     1</i>
   <i type="int" name="MAXMEM">  2800</i>
   <i type="int" name="TELESCOPE">     0</i>
   <i type="int" name="NTAUPAR">    -1</i>
   <i type="int" name="NOMEGAPAR">    -1</i>
   <i name="DAMP_NEWTON">      0.80000001</i>
   <i name="LAMBDA">      1.00000000</i>
  </separator>
  <separator name="External order field" >
   <i name="OFIELD_KAPPA">      0.00000000</i>
   <v name="OFIELD_K">      0.00000000      0.00000000      0.00000000</v>
   <i name="OFIELD_Q6_NEAR">      0.00000000</i>
   <i name="OFIELD_Q6_FAR">      0.00000000</i>
   <i name="OFIELD_A">      0.00000000</i>
  </separator>
 </parameters>
 <atominfo>
  <atoms>     325 </atoms>
  <types>       5 </types>
  <array name="atoms" >
   <dimension dim="1">ion</dimension>
   <field type="string">element</field>
   <field type="int">atomtype</field>
   <set>
    <rc><c>H </c><c>   1</c></rc>
    <rc><c>H </c><c>   1</c></rc>
    <rc><c>H </c><c>   1</c></rc>
    <rc><c>H </c><c>   1</c></rc>
    <rc><c>H </c><c>   1</c></rc>
    <rc><c>H </c><c>   1</c></rc>
    <rc><c>H </c><c>   1</c></rc>
    <rc><c>H </c><c>   1</c></rc>
    <rc><c>H </c><c>   1</c></rc>
    <rc><c>H </c><c>   1</c></rc>
    <rc><c>H </c><c>   1</c></rc>
    <rc><c>H </c><c>   1</c></rc>
    <rc><c>H </c><c>   1</c></rc>
    <rc><c>H </c><c>   1</c></rc>
    <rc><c>H </c><c>   1</c></rc>
    <rc><c>H </c><c>   1</c></rc>
    <rc><c>H </c><c>   1</c></rc>
    <rc><c>H </c><c>   1</c></rc>
    <rc><c>H </c><c>   1</c></rc>
    <rc><c>H </c><c>   1</c></rc>
    <rc><c>H </c><c>   1</c></rc>
    <rc><c>H </c><c>   1</c></rc>
    <rc><c>H </c><c>   1</c></rc>
    <rc><c>H </c><c>   1</c></rc>
    <rc><c>H </c><c>   1</c></rc>
    <rc><c>H </c><c>   1</c></rc>
    <rc><c>H </c><c>   1</c></rc>
    <rc><c>H </c><c>   1</c></rc>
    <rc><c>H </c><c>   1</c></rc>
    <rc><c>H </c><c>   1</c></rc>
    <rc><c>H </c><c>   1</c></rc>
    <rc><c>H </c><c>   1</c></rc>
    <rc><c>H </c><c>   1</c></rc>
    <rc><c>H </c><c>   1</c></rc>
    <rc><c>H </c><c>   1</c></rc>
    <rc><c>H </c><c>   1</c></rc>
    <rc><c>H </c><c>   1</c></rc>
    <rc><c>H </c><c>   1</c></rc>
    <rc><c>H </c><c>   1</c></rc>
    <rc><c>H </c><c>   1</c></rc>
    <rc><c>H </c><c>   1</c></rc>
    <rc><c>H </c><c>   1</c></rc>
    <rc><c>H </c><c>   1</c></rc>
    <rc><c>H </c><c>   1</c></rc>
    <rc><c>H </c><c>   1</c></rc>
    <rc><c>H </c><c>   1</c></rc>
    <rc><c>H </c><c>   1</c></rc>
    <rc><c>H </c><c>   1</c></rc>
    <rc><c>H </c><c>   1</c></rc>
    <rc><c>H </c><c>   1</c></rc>
    <rc><c>H </c><c>   1</c></rc>
    <rc><c>H </c><c>   1</c></rc>
    <rc><c>H </c><c>   1</c></rc>
    <rc><c>H </c><c>   1</c></rc>
    <rc><c>H </c><c>   1</c></rc>
    <rc><c>H </c><c>   1</c></rc>
    <rc><c>H </c><c>   1</c></rc>
    <rc><c>H </c><c>   1</c></rc>
    <rc><c>H </c><c>   1</c></rc>
    <rc><c>H </c><c>   1</c></rc>
    <rc><c>H </c><c>   1</c></rc>
    <rc><c>H </c><c>   1</c></rc>
    <rc><c>H </c><c>   1</c></rc>
    <rc><c>H </c><c>   1</c></rc>
    <rc><c>H </c><c>   1</c></rc>
    <rc><c>H </c><c>   1</c></rc>
    <rc><c>H </c><c>   1</c></rc>
    <rc><c>H </c><c>   1</c></rc>
    <rc><c>H </c><c>   1</c></rc>
    <rc><c>H </c><c>   1</c></rc>
    <rc><c>H </c><c>   1</c></rc>
    <rc><c>H </c><c>   1</c></rc>
    <rc><c>H </c><c>   1</c></rc>
    <rc><c>H </c><c>   1</c></rc>
    <rc><c>H </c><c>   1</c></rc>
    <rc><c>H </c><c>   1</c></rc>
    <rc><c>H </c><c>   1</c></rc>
    <rc><c>H </c><c>   1</c></rc>
    <rc><c>H </c><c>   1</c></rc>
    <rc><c>H </c><c>   1</c></rc>
    <rc><c>H </c><c>   1</c></rc>
    <rc><c>H </c><c>   1</c></rc>
    <rc><c>H </c><c>   1</c></rc>
    <rc><c>H </c><c>   1</c></rc>
    <rc><c>H </c><c>   1</c></rc>
    <rc><c>H </c><c>   1</c></rc>
    <rc><c>H </c><c>   1</c></rc>
    <rc><c>H </c><c>   1</c></rc>
    <rc><c>H </c><c>   1</c></rc>
    <rc><c>H </c><c>   1</c></rc>
    <rc><c>H </c><c>   1</c></rc>
    <rc><c>H </c><c>   1</c></rc>
    <rc><c>H </c><c>   1</c></rc>
    <rc><c>H </c><c>   1</c></rc>
    <rc><c>H </c><c>   1</c></rc>
    <rc><c>H </c><c>   1</c></rc>
    <rc><c>H </c><c>   1</c></rc>
    <rc><c>H </c><c>   1</c></rc>
    <rc><c>H </c><c>   1</c></rc>
    <rc><c>H </c><c>   1</c></rc>
    <rc><c>H </c><c>   1</c></rc>
    <rc><c>H </c><c>   1</c></rc>
    <rc><c>H </c><c>   1</c></rc>
    <rc><c>H </c><c>   1</c></rc>
    <rc><c>H </c><c>   1</c></rc>
    <rc><c>H </c><c>   1</c></rc>
    <rc><c>H </c><c>   1</c></rc>
    <rc><c>H </c><c>   1</c></rc>
    <rc><c>H </c><c>   1</c></rc>
    <rc><c>H </c><c>   1</c></rc>
    <rc><c>H </c><c>   1</c></rc>
    <rc><c>H </c><c>   1</c></rc>
    <rc><c>H </c><c>   1</c></rc>
    <rc><c>H </c><c>   1</c></rc>
    <rc><c>H </c><c>   1</c></rc>
    <rc><c>H </c><c>   1</c></rc>
    <rc><c>H </c><c>   1</c></rc>
    <rc><c>H </c><c>   1</c></rc>
    <rc><c>H </c><c>   1</c></rc>
    <rc><c>H </c><c>   1</c></rc>
    <rc><c>H </c><c>   1</c></rc>
    <rc><c>H </c><c>   1</c></rc>
    <rc><c>H </c><c>   1</c></rc>
    <rc><c>H </c><c>   1</c></rc>
    <rc><c>H </c><c>   1</c></rc>
    <rc><c>H </c><c>   1</c></rc>
    <rc><c>H </c><c>   1</c></rc>
    <rc><c>H </c><c>   1</c></rc>
    <rc><c>H </c><c>   1</c></rc>
    <rc><c>H </c><c>   1</c></rc>
    <rc><c>H </c><c>   1</c></rc>
    <rc><c>H </c><c>   1</c></rc>
    <rc><c>H </c><c>   1</c></rc>
    <rc><c>H </c><c>   1</c></rc>
    <rc><c>H </c><c>   1</c></rc>
    <rc><c>H </c><c>   1</c></rc>
    <rc><c>H </c><c>   1</c></rc>
    <rc><c>H </c><c>   1</c></rc>
    <rc><c>H </c><c>   1</c></rc>
    <rc><c>H </c><c>   1</c></rc>
    <rc><c>H </c><c>   1</c></rc>
    <rc><c>H </c><c>   1</c></rc>
    <rc><c>H </c><c>   1</c></rc>
    <rc><c>C </c><c>   2</c></rc>
    <rc><c>C </c><c>   2</c></rc>
    <rc><c>C </c><c>   2</c></rc>
    <rc><c>C </c><c>   2</c></rc>
    <rc><c>C </c><c>   2</c></rc>
    <rc><c>C </c><c>   2</c></rc>
    <rc><c>C </c><c>   2</c></rc>
    <rc><c>C </c><c>   2</c></rc>
    <rc><c>C </c><c>   2</c></rc>
    <rc><c>C </c><c>   2</c></rc>
    <rc><c>C </c><c>   2</c></rc>
    <rc><c>C </c><c>   2</c></rc>
    <rc><c>C </c><c>   2</c></rc>
    <rc><c>C </c><c>   2</c></rc>
    <rc><c>C </c><c>   2</c></rc>
    <rc><c>C </c><c>   2</c></rc>
    <rc><c>C </c><c>   2</c></rc>
    <rc><c>C </c><c>   2</c></rc>
    <rc><c>C </c><c>   2</c></rc>
    <rc><c>C </c><c>   2</c></rc>
    <rc><c>C </c><c>   2</c></rc>
    <rc><c>C </c><c>   2</c></rc>
    <rc><c>C </c><c>   2</c></rc>
    <rc><c>C </c><c>   2</c></rc>
    <rc><c>C </c><c>   2</c></rc>
    <rc><c>C </c><c>   2</c></rc>
    <rc><c>C </c><c>   2</c></rc>
    <rc><c>C </c><c>   2</c></rc>
    <rc><c>C </c><c>   2</c></rc>
    <rc><c>C </c><c>   2</c></rc>
    <rc><c>C </c><c>   2</c></rc>
    <rc><c>C </c><c>   2</c></rc>
    <rc><c>C </c><c>   2</c></rc>
    <rc><c>C </c><c>   2</c></rc>
    <rc><c>C </c><c>   2</c></rc>
    <rc><c>C </c><c>   2</c></rc>
    <rc><c>C </c><c>   2</c></rc>
    <rc><c>C </c><c>   2</c></rc>
    <rc><c>C </c><c>   2</c></rc>
    <rc><c>N </c><c>   3</c></rc>
    <rc><c>N </c><c>   3</c></rc>
    <rc><c>N </c><c>   3</c></rc>
    <rc><c>N </c><c>   3</c></rc>
    <rc><c>N </c><c>   3</c></rc>
    <rc><c>N </c><c>   3</c></rc>
    <rc><c>N </c><c>   3</c></rc>
    <rc><c>N </c><c>   3</c></rc>
    <rc><c>N </c><c>   3</c></rc>
    <rc><c>N </c><c>   3</c></rc>
    <rc><c>N </c><c>   3</c></rc>
    <rc><c>N </c><c>   3</c></rc>
    <rc><c>N </c><c>   3</c></rc>
    <rc><c>N </c><c>   3</c></rc>
    <rc><c>N </c><c>   3</c></rc>
    <rc><c>N </c><c>   3</c></rc>
    <rc><c>N </c><c>   3</c></rc>
    <rc><c>N </c><c>   3</c></rc>
    <rc><c>N </c><c>   3</c></rc>
    <rc><c>N </c><c>   3</c></rc>
    <rc><c>N </c><c>   3</c></rc>
    <rc><c>N </c><c>   3</c></rc>
    <rc><c>N </c><c>   3</c></rc>
    <rc><c>N </c><c>   3</c></rc>
    <rc><c>N </c><c>   3</c></rc>
    <rc><c>N </c><c>   3</c></rc>
    <rc><c>N </c><c>   3</c></rc>
    <rc><c>N </c><c>   3</c></rc>
    <rc><c>N </c><c>   3</c></rc>
    <rc><c>N </c><c>   3</c></rc>
    <rc><c>N </c><c>   3</c></rc>
    <rc><c>N </c><c>   3</c></rc>
    <rc><c>N </c><c>   3</c></rc>
    <rc><c>N </c><c>   3</c></rc>
    <rc><c>N </c><c>   3</c></rc>
    <rc><c>N </c><c>   3</c></rc>
    <rc><c>N </c><c>   3</c></rc>
    <rc><c>N </c><c>   3</c></rc>
    <rc><c>N </c><c>   3</c></rc>
    <rc><c>N </c><c>   3</c></rc>
    <rc><c>N </c><c>   3</c></rc>
    <rc><c>N </c><c>   3</c></rc>
    <rc><c>N </c><c>   3</c></rc>
    <rc><c>N </c><c>   3</c></rc>
    <rc><c>N </c><c>   3</c></rc>
    <rc><c>N </c><c>   3</c></rc>
    <rc><c>N </c><c>   3</c></rc>
    <rc><c>I </c><c>   4</c></rc>
    <rc><c>I </c><c>   4</c></rc>
    <rc><c>I </c><c>   4</c></rc>
    <rc><c>I </c><c>   4</c></rc>
    <rc><c>I </c><c>   4</c></rc>
    <rc><c>I </c><c>   4</c></rc>
    <rc><c>I </c><c>   4</c></rc>
    <rc><c>I </c><c>   4</c></rc>
    <rc><c>I </c><c>   4</c></rc>
    <rc><c>I </c><c>   4</c></rc>
    <rc><c>I </c><c>   4</c></rc>
    <rc><c>I </c><c>   4</c></rc>
    <rc><c>I </c><c>   4</c></rc>
    <rc><c>I </c><c>   4</c></rc>
    <rc><c>I </c><c>   4</c></rc>
    <rc><c>I </c><c>   4</c></rc>
    <rc><c>I </c><c>   4</c></rc>
    <rc><c>I </c><c>   4</c></rc>
    <rc><c>I </c><c>   4</c></rc>
    <rc><c>I </c><c>   4</c></rc>
    <rc><c>I </c><c>   4</c></rc>
    <rc><c>I </c><c>   4</c></rc>
    <rc><c>I </c><c>   4</c></rc>
    <rc><c>I </c><c>   4</c></rc>
    <rc><c>I </c><c>   4</c></rc>
    <rc><c>I </c><c>   4</c></rc>
    <rc><c>I </c><c>   4</c></rc>
    <rc><c>I </c><c>   4</c></rc>
    <rc><c>I </c><c>   4</c></rc>
    <rc><c>I </c><c>   4</c></rc>
    <rc><c>I </c><c>   4</c></rc>
    <rc><c>I </c><c>   4</c></rc>
    <rc><c>I </c><c>   4</c></rc>
    <rc><c>I </c><c>   4</c></rc>
    <rc><c>I </c><c>   4</c></rc>
    <rc><c>I </c><c>   4</c></rc>
    <rc><c>I </c><c>   4</c></rc>
    <rc><c>I </c><c>   4</c></rc>
    <rc><c>I </c><c>   4</c></rc>
    <rc><c>I </c><c>   4</c></rc>
    <rc><c>I </c><c>   4</c></rc>
    <rc><c>I </c><c>   4</c></rc>
    <rc><c>I </c><c>   4</c></rc>
    <rc><c>I </c><c>   4</c></rc>
    <rc><c>I </c><c>   4</c></rc>
    <rc><c>I </c><c>   4</c></rc>
    <rc><c>I </c><c>   4</c></rc>
    <rc><c>I </c><c>   4</c></rc>
    <rc><c>I </c><c>   4</c></rc>
    <rc><c>I </c><c>   4</c></rc>
    <rc><c>I </c><c>   4</c></rc>
    <rc><c>I </c><c>   4</c></rc>
    <rc><c>I </c><c>   4</c></rc>
    <rc><c>I </c><c>   4</c></rc>
    <rc><c>I </c><c>   4</c></rc>
    <rc><c>I </c><c>   4</c></rc>
    <rc><c>I </c><c>   4</c></rc>
    <rc><c>I </c><c>   4</c></rc>
    <rc><c>I </c><c>   4</c></rc>
    <rc><c>I </c><c>   4</c></rc>
    <rc><c>I </c><c>   4</c></rc>
    <rc><c>I </c><c>   4</c></rc>
    <rc><c>I </c><c>   4</c></rc>
    <rc><c>I </c><c>   4</c></rc>
    <rc><c>I </c><c>   4</c></rc>
    <rc><c>I </c><c>   4</c></rc>
    <rc><c>I </c><c>   4</c></rc>
    <rc><c>I </c><c>   4</c></rc>
    <rc><c>I </c><c>   4</c></rc>
    <rc><c>I </c><c>   4</c></rc>
    <rc><c>I </c><c>   4</c></rc>
    <rc><c>I </c><c>   4</c></rc>
    <rc><c>Pb</c><c>   5</c></rc>
    <rc><c>Pb</c><c>   5</c></rc>
    <rc><c>Pb</c><c>   5</c></rc>
    <rc><c>Pb</c><c>   5</c></rc>
    <rc><c>Pb</c><c>   5</c></rc>
    <rc><c>Pb</c><c>   5</c></rc>
    <rc><c>Pb</c><c>   5</c></rc>
    <rc><c>Pb</c><c>   5</c></rc>
    <rc><c>Pb</c><c>   5</c></rc>
    <rc><c>Pb</c><c>   5</c></rc>
    <rc><c>Pb</c><c>   5</c></rc>
    <rc><c>Pb</c><c>   5</c></rc>
    <rc><c>Pb</c><c>   5</c></rc>
    <rc><c>Pb</c><c>   5</c></rc>
    <rc><c>Pb</c><c>   5</c></rc>
    <rc><c>Pb</c><c>   5</c></rc>
    <rc><c>Pb</c><c>   5</c></rc>
    <rc><c>Pb</c><c>   5</c></rc>
    <rc><c>Pb</c><c>   5</c></rc>
    <rc><c>Pb</c><c>   5</c></rc>
    <rc><c>Pb</c><c>   5</c></rc>
    <rc><c>Pb</c><c>   5</c></rc>
    <rc><c>Pb</c><c>   5</c></rc>
    <rc><c>Pb</c><c>   5</c></rc>
   </set>
  </array>
  <array name="atomtypes" >
   <dimension dim="1">type</dimension>
   <field type="int">atomspertype</field>
   <field type="string">element</field>
   <field>mass</field>
   <field>valence</field>
   <field type="string">pseudopotential</field>
   <set>
    <rc><c> 143</c><c>H </c><c>      1.00000000</c><c>      1.00000000</c><c>  PAW_PBE H 15Jun2001                   </c></rc>
    <rc><c>  39</c><c>C </c><c>     12.01100000</c><c>      4.00000000</c><c>  PAW_PBE C 08Apr2002                   </c></rc>
    <rc><c>  47</c><c>N </c><c>     14.00100000</c><c>      5.00000000</c><c>  PAW_PBE N 08Apr2002                   </c></rc>
    <rc><c>  72</c><c>I </c><c>    126.90400000</c><c>      7.00000000</c><c>  PAW_PBE I 08Apr2002                   </c></rc>
    <rc><c>  24</c><c>Pb</c><c>    207.20000000</c><c>      4.00000000</c><c>  PAW_PBE Pb 08Apr2002                  </c></rc>
   </set>
  </array>
 </atominfo>
 <structure name="initialpos" >
  <crystal>
   <varray name="basis" >
    <v>      18.06080055       0.00000000       0.00000000 </v>
    <v>      -0.00491865      18.06279945       0.00000000 </v>
    <v>       0.00000000       0.00000000      62.48749924 </v>
   </varray>
   <i name="volume">  20385.21054034 </i>
   <varray name="rec_basis" >
    <v>       0.05536853       0.00001508      -0.00000000 </v>
    <v>       0.00000000       0.05536240       0.00000000 </v>
    <v>       0.00000000      -0.00000000       0.01600320 </v>
   </varray>
  </crystal>
  <varray name="positions" >
   <v>       0.42351760       0.25932856       0.58062028 </v>
   <v>       0.41314441       0.73575447       0.57682985 </v>
   <v>       0.93346330       0.28692341       0.58162360 </v>
   <v>       0.94344903       0.81177872       0.57893550 </v>
   <v>       0.31315114       0.06322436       0.57796240 </v>
   <v>       0.30479027       0.58056665       0.57480393 </v>
   <v>       0.78932980       0.07621960       0.58075758 </v>
   <v>       0.10585948       0.20392623       0.56460646 </v>
   <v>       0.08386814       0.67457064       0.56580329 </v>
   <v>       0.60355283       0.19702607       0.56375961 </v>
   <v>       0.60662865       0.74382956       0.56318668 </v>
   <v>       0.37099588       0.01613679       0.56062086 </v>
   <v>       0.26683423       0.61555622       0.55165660 </v>
   <v>       0.86028999       0.05173105       0.56352482 </v>
   <v>       0.06745395       0.25733526       0.58504634 </v>
   <v>       0.00702871       0.69035446       0.58267068 </v>
   <v>       0.53364837       0.17759768       0.58193481 </v>
   <v>       0.54296052       0.69539585       0.58046565 </v>
   <v>       0.27335940       0.44704776       0.58321370 </v>
   <v>       0.17676727       0.02921994       0.57583527 </v>
   <v>       0.67443121       0.99835418       0.57928585 </v>
   <v>       0.42273189       0.32924695       0.56123640 </v>
   <v>       0.39291708       0.80263416       0.55750940 </v>
   <v>       0.88767038       0.24932928       0.55926262 </v>
   <v>       0.97872503       0.87174234       0.55933374 </v>
   <v>       0.21518093       0.40182684       0.56556081 </v>
   <v>       0.15250462       0.96413658       0.55659796 </v>
   <v>       0.67789992       0.92291815       0.56174956 </v>
   <v>       0.53600639       0.29264098       0.54744140 </v>
   <v>       0.51895613       0.81035429       0.54667477 </v>
   <v>       0.99449242       0.19791303       0.54591467 </v>
   <v>       0.07021487       0.78752673       0.54881088 </v>
   <v>       0.20396573       0.50588789       0.54357967 </v>
   <v>       0.27400835       0.94864779       0.54509761 </v>
   <v>       0.79515686       0.95184104       0.54959809 </v>
   <v>       0.43656712       0.28297280       0.67564857 </v>
   <v>       0.43073810       0.82104657       0.67174752 </v>
   <v>       0.97388302       0.27319986       0.68272304 </v>
   <v>       0.93334429       0.78240974       0.67481319 </v>
   <v>       0.29584183       0.04638683       0.67718635 </v>
   <v>       0.29842444       0.55073088       0.67518906 </v>
   <v>       0.79521125       0.05615624       0.67524852 </v>
   <v>       0.80765657       0.55136071       0.67664254 </v>
   <v>       0.08360263       0.16688572       0.64395283 </v>
   <v>       0.09842562       0.68933943       0.65399055 </v>
   <v>       0.58156641       0.17463124       0.64939136 </v>
   <v>       0.56166434       0.67586957       0.65582673 </v>
   <v>       0.18191563       0.40912821       0.64945284 </v>
   <v>       0.17261870       0.92143290       0.64594066 </v>
   <v>       0.67157268       0.42740033       0.65199570 </v>
   <v>       0.66785855       0.92528647       0.64913606 </v>
   <v>       0.07215796       0.17696882       0.67155162 </v>
   <v>       0.03727117       0.68542527       0.67561352 </v>
   <v>       0.53545775       0.18209030       0.67353553 </v>
   <v>       0.52347649       0.71789580       0.67851102 </v>
   <v>       0.21240833       0.43464164       0.67463799 </v>
   <v>       0.18679560       0.94699337       0.67226215 </v>
   <v>       0.71116771       0.44493886       0.67646269 </v>
   <v>       0.68716789       0.96071890       0.67429014 </v>
   <v>       0.42524759       0.33334891       0.65206169 </v>
   <v>       0.41633072       0.84020913       0.64478815 </v>
   <v>       0.93080328       0.31789074       0.66084501 </v>
   <v>       0.93558754       0.83994054       0.65232658 </v>
   <v>       0.33833200       0.07081547       0.65368757 </v>
   <v>       0.31357966       0.58978270       0.65045481 </v>
   <v>       0.83599698       0.07226546       0.65071072 </v>
   <v>       0.81815056       0.59525640       0.65164615 </v>
   <v>       0.99662317       0.25420473       0.63563061 </v>
   <v>       0.03850940       0.78650177       0.63780164 </v>
   <v>       0.51669867       0.26939257       0.63394735 </v>
   <v>       0.49712415       0.75148216       0.63272873 </v>
   <v>       0.26466189       0.99625128       0.63242453 </v>
   <v>       0.24289257       0.50493046       0.63227386 </v>
   <v>       0.76014855       0.99223123       0.63247507 </v>
   <v>       0.73337293       0.51982385       0.63450588 </v>
   <v>       0.44874502       0.30128397       0.76888902 </v>
   <v>       0.44874501       0.80128391       0.76888902 </v>
   <v>       0.94874497       0.30128397       0.76888902 </v>
   <v>       0.94874501       0.80128391       0.76888902 </v>
   <v>       0.30127600       0.05129450       0.76887296 </v>
   <v>       0.30127601       0.55129450       0.76887296 </v>
   <v>       0.80127594       0.05129450       0.76887296 </v>
   <v>       0.80127598       0.55129450       0.76887296 </v>
   <v>       0.07877100       0.17118050       0.74344197 </v>
   <v>       0.07877101       0.67118045       0.74344197 </v>
   <v>       0.57877100       0.17118050       0.74344197 </v>
   <v>       0.57877099       0.67118045       0.74344197 </v>
   <v>       0.17119950       0.42117448       0.74342103 </v>
   <v>       0.17119950       0.92117451       0.74342103 </v>
   <v>       0.67119951       0.42117448       0.74342103 </v>
   <v>       0.67119950       0.92117451       0.74342103 </v>
   <v>       0.05125600       0.19871499       0.76888902 </v>
   <v>       0.05125600       0.69871493       0.76888902 </v>
   <v>       0.55125603       0.19871499       0.76888902 </v>
   <v>       0.55125602       0.69871493       0.76888902 </v>
   <v>       0.19872349       0.44870397       0.76887205 </v>
   <v>       0.19872349       0.94870397       0.76887205 </v>
   <v>       0.69872352       0.44870397       0.76887205 </v>
   <v>       0.69872351       0.94870397       0.76887205 </v>
   <v>       0.42123152       0.32881747       0.74344197 </v>
   <v>       0.42123151       0.82881744       0.74344197 </v>
   <v>       0.92123147       0.32881747       0.74344197 </v>
   <v>       0.92123151       0.82881744       0.74344197 </v>
   <v>       0.32880050       0.07882500       0.74342103 </v>
   <v>       0.32880049       0.57882496       0.74342103 </v>
   <v>       0.82880048       0.07882500       0.74342103 </v>
   <v>       0.82880052       0.57882496       0.74342103 </v>
   <v>       0.00000350       0.25000148       0.72582199 </v>
   <v>       0.00000350       0.75000145       0.72582199 </v>
   <v>       0.50000351       0.25000148       0.72582199 </v>
   <v>       0.50000350       0.75000145       0.72582199 </v>
   <v>       0.25000050       0.00000000       0.72580398 </v>
   <v>       0.25000052       0.50000000       0.72580398 </v>
   <v>       0.75000050       0.00000000       0.72580398 </v>
   <v>       0.75000049       0.50000000       0.72580398 </v>
   <v>       0.78703334       0.50864272       0.51805436 </v>
   <v>       0.87176517       0.50569983       0.53193598 </v>
   <v>       0.75177246       0.62713312       0.53849217 </v>
   <v>       0.76782245       0.62668233       0.56616097 </v>
   <v>       0.67965039       0.45331242       0.55749676 </v>
   <v>       0.66969145       0.54935049       0.56327642 </v>
   <v>       0.79939419       0.42825436       0.57057115 </v>
   <v>       0.86516420       0.50144117       0.57112601 </v>
   <v>       0.86188698       0.37957594       0.54184910 </v>
   <v>       0.76524124       0.37631969       0.53756339 </v>
   <v>       0.77740184       0.38000856       0.49930476 </v>
   <v>       0.86576943       0.41941637       0.49948510 </v>
   <v>       0.89218150       0.60998258       0.53282428 </v>
   <v>       0.90509235       0.60986626       0.56131631 </v>
   <v>       0.86729744       0.68903874       0.54822812 </v>
   <v>       0.59681653       0.52220983       0.53281214 </v>
   <v>       0.66871059       0.48369697       0.51745189 </v>
   <v>       0.66847423       0.58079368       0.52313393 </v>
   <v>       0.72225275       0.48273383       0.59626397 </v>
   <v>       0.75177390       0.57503013       0.59286516 </v>
   <v>       0.81203214       0.50930433       0.60567070 </v>
   <v>       0.83425311       0.26275070       0.51719317 </v>
   <v>       0.84634123       0.27772949       0.48976043 </v>
   <v>       0.93907807       0.17354284       0.50239428 </v>
   <v>       0.97342315       0.40569295       0.51464896 </v>
   <v>       0.07301531       0.15062977       0.50365744 </v>
   <v>       0.10719619       0.38244465       0.51657506 </v>
   <v>       0.15852812       0.25727695       0.51156735 </v>
   <v>       0.99721986       0.22711111       0.56101748 </v>
   <v>       0.03112651       0.77238134       0.56126460 </v>
   <v>       0.51251936       0.26179517       0.56083007 </v>
   <v>       0.50090557       0.77145976       0.55916158 </v>
   <v>       0.23861344       0.50828264       0.55768839 </v>
   <v>       0.26259537       0.98820916       0.55769577 </v>
   <v>       0.76906537       0.98600629       0.56175304 </v>
   <v>       0.00701010       0.24272060       0.65249812 </v>
   <v>       0.01621039       0.76444743       0.65295225 </v>
   <v>       0.50353071       0.25439697       0.65035029 </v>
   <v>       0.48913331       0.75855167       0.65004927 </v>
   <v>       0.24772837       0.49936748       0.64957743 </v>
   <v>       0.25547059       0.99604616       0.64982718 </v>
   <v>       0.74451801       0.51146418       0.65139280 </v>
   <v>       0.75240702       0.99861767       0.64964617 </v>
   <v>       0.49998898       0.24999498       0.74327702 </v>
   <v>       0.49998903       0.74999496       0.74327702 </v>
   <v>       0.99998898       0.24999498       0.74327702 </v>
   <v>       0.99998903       0.74999496       0.74327702 </v>
   <v>       0.25000050       0.00000100       0.74325596 </v>
   <v>       0.25000052       0.50000100       0.74325596 </v>
   <v>       0.75000050       0.00000100       0.74325596 </v>
   <v>       0.75000049       0.50000100       0.74325596 </v>
   <v>       0.94472834       0.29014993       0.50790554 </v>
   <v>       0.97556904       0.21939551       0.50531759 </v>
   <v>       0.99401380       0.34871557       0.51245687 </v>
   <v>       0.05209687       0.20686170       0.50615287 </v>
   <v>       0.07036710       0.33633937       0.51328412 </v>
   <v>       0.09942355       0.26626526       0.51010325 </v>
   <v>       0.81360583       0.48597044       0.53247332 </v>
   <v>       0.78861964       0.60453164       0.55101896 </v>
   <v>       0.69169320       0.51018109       0.55130668 </v>
   <v>       0.80597598       0.48906465       0.57191401 </v>
   <v>       0.81679919       0.40206776       0.53177580 </v>
   <v>       0.82983278       0.37914828       0.50798686 </v>
   <v>       0.86844475       0.62831579       0.54820169 </v>
   <v>       0.65609713       0.52534564       0.52977765 </v>
   <v>       0.77037239       0.51640282       0.59269692 </v>
   <v>       0.86236440       0.30077626       0.50554936 </v>
   <v>       0.05966315       0.22687096       0.57132387 </v>
   <v>       0.04059083       0.70808462       0.57034979 </v>
   <v>       0.55001375       0.20641286       0.56893948 </v>
   <v>       0.55268096       0.72852393       0.56744406 </v>
   <v>       0.44857842       0.28458616       0.56795973 </v>
   <v>       0.43088849       0.77026563       0.56520808 </v>
   <v>       0.93565497       0.25749228       0.56756121 </v>
   <v>       0.97890941       0.81935710       0.56627189 </v>
   <v>       0.24167250       0.44931537       0.56979341 </v>
   <v>       0.19397640       0.99404739       0.56393420 </v>
   <v>       0.70135484       0.97102446       0.56742227 </v>
   <v>       0.31721795       0.02660177       0.56560806 </v>
   <v>       0.27183750       0.57077405       0.56194669 </v>
   <v>       0.80759529       0.04111589       0.56933317 </v>
   <v>       0.05750946       0.19189411       0.65653610 </v>
   <v>       0.05270055       0.70962372       0.66156878 </v>
   <v>       0.54243965       0.20033038       0.65852570 </v>
   <v>       0.52807203       0.71479594       0.66274309 </v>
   <v>       0.21282266       0.44549672       0.65887385 </v>
   <v>       0.20291237       0.95351260       0.65689713 </v>
   <v>       0.70702552       0.45826716       0.66076259 </v>
   <v>       0.70048800       0.95991478       0.65869003 </v>
   <v>       0.45183525       0.29219318       0.66017330 </v>
   <v>       0.44291737       0.80971597       0.65627482 </v>
   <v>       0.96871689       0.27972350       0.66644561 </v>
   <v>       0.95693798       0.79661908       0.66063873 </v>
   <v>       0.29740526       0.03869200       0.66127460 </v>
   <v>       0.28899168       0.54921913       0.65927762 </v>
   <v>       0.79724844       0.04484833       0.65949494 </v>
   <v>       0.79359610       0.55581958       0.66073982 </v>
   <v>       0.04586250       0.20411950       0.75272599 </v>
   <v>       0.04586250       0.70411946       0.75272599 </v>
   <v>       0.54586251       0.20411950       0.75272599 </v>
   <v>       0.54586250       0.70411946       0.75272599 </v>
   <v>       0.20411900       0.45410100       0.75270499 </v>
   <v>       0.20411899       0.95410095       0.75270499 </v>
   <v>       0.70411898       0.45410100       0.75270499 </v>
   <v>       0.70411896       0.95410095       0.75270499 </v>
   <v>       0.45414002       0.29588849       0.75272697 </v>
   <v>       0.45414001       0.79588852       0.75272697 </v>
   <v>       0.95414002       0.29588849       0.75272697 </v>
[...]
   <v>       0.60355283       0.19702607       0.56375961 </v>
   <v>       0.60662865       0.74382956       0.56318668 </v>
   <v>       0.37099588       0.01613679       0.56062086 </v>
   <v>       0.26683423       0.61555622       0.55165660 </v>
   <v>       0.86028999       0.05173105       0.56352482 </v>
   <v>       0.06745395       0.25733526       0.58504634 </v>
   <v>       0.00702871       0.69035446       0.58267068 </v>
   <v>       0.53364837       0.17759768       0.58193481 </v>
   <v>       0.54296052       0.69539585       0.58046565 </v>
   <v>       0.27335940       0.44704776       0.58321370 </v>
   <v>       0.17676727       0.02921994       0.57583527 </v>
   <v>       0.67443121       0.99835418       0.57928585 </v>
   <v>       0.42273189       0.32924695       0.56123640 </v>
   <v>       0.39291708       0.80263416       0.55750940 </v>
   <v>       0.88767038       0.24932928       0.55926262 </v>
   <v>       0.97872503       0.87174234       0.55933374 </v>
   <v>       0.21518093       0.40182684       0.56556081 </v>
   <v>       0.15250462       0.96413658       0.55659796 </v>
   <v>       0.67789992       0.92291815       0.56174956 </v>
   <v>       0.53600639       0.29264098       0.54744140 </v>
   <v>       0.51895613       0.81035429       0.54667477 </v>
   <v>       0.99449242       0.19791303       0.54591467 </v>
   <v>       0.07021487       0.78752673       0.54881088 </v>
   <v>       0.20396573       0.50588789       0.54357967 </v>
   <v>       0.27400835       0.94864779       0.54509761 </v>
   <v>       0.79515686       0.95184104       0.54959809 </v>
   <v>       0.43656712       0.28297280       0.67564857 </v>
   <v>       0.43073810       0.82104657       0.67174752 </v>
   <v>       0.97388302       0.27319986       0.68272304 </v>
   <v>       0.93334429       0.78240974       0.67481319 </v>
   <v>       0.29584183       0.04638683       0.67718635 </v>
   <v>       0.29842444       0.55073088       0.67518906 </v>
   <v>       0.79521125       0.05615624       0.67524852 </v>
   <v>       0.80765657       0.55136071       0.67664254 </v>
   <v>       0.08360263       0.16688572       0.64395283 </v>
   <v>       0.09842562       0.68933943       0.65399055 </v>
   <v>       0.58156641       0.17463124       0.64939136 </v>
   <v>       0.56166434       0.67586957       0.65582673 </v>
   <v>       0.18191563       0.40912821       0.64945284 </v>
   <v>       0.17261870       0.92143290       0.64594066 </v>
   <v>       0.67157268       0.42740033       0.65199570 </v>
   <v>       0.66785855       0.92528647       0.64913606 </v>
   <v>       0.07215796       0.17696882       0.67155162 </v>
   <v>       0.03727117       0.68542527       0.67561352 </v>
   <v>       0.53545775       0.18209030       0.67353553 </v>
   <v>       0.52347649       0.71789580       0.67851102 </v>
   <v>       0.21240833       0.43464164       0.67463799 </v>
   <v>       0.18679560       0.94699337       0.67226215 </v>
   <v>       0.71116771       0.44493886       0.67646269 </v>
   <v>       0.68716789       0.96071890       0.67429014 </v>
   <v>       0.42524759       0.33334891       0.65206169 </v>
   <v>       0.41633072       0.84020913       0.64478815 </v>
   <v>       0.93080328       0.31789074       0.66084501 </v>
   <v>       0.93558754       0.83994054       0.65232658 </v>
   <v>       0.33833200       0.07081547       0.65368757 </v>
   <v>       0.31357966       0.58978270       0.65045481 </v>
   <v>       0.83599698       0.07226546       0.65071072 </v>
   <v>       0.81815056       0.59525640       0.65164615 </v>
   <v>       0.99662317       0.25420473       0.63563061 </v>
   <v>       0.03850940       0.78650177       0.63780164 </v>
   <v>       0.51669867       0.26939257       0.63394735 </v>
   <v>       0.49712415       0.75148216       0.63272873 </v>
   <v>       0.26466189       0.99625128       0.63242453 </v>
   <v>       0.24289257       0.50493046       0.63227386 </v>
   <v>       0.76014855       0.99223123       0.63247507 </v>
   <v>       0.73337293       0.51982385       0.63450588 </v>
   <v>       0.44874502       0.30128397       0.76888902 </v>
   <v>       0.44874501       0.80128391       0.76888902 </v>
   <v>       0.94874497       0.30128397       0.76888902 </v>
   <v>       0.94874501       0.80128391       0.76888902 </v>
   <v>       0.30127600       0.05129450       0.76887296 </v>
   <v>       0.30127601       0.55129450       0.76887296 </v>
   <v>       0.80127594       0.05129450       0.76887296 </v>
   <v>       0.80127598       0.55129450       0.76887296 </v>
   <v>       0.07877100       0.17118050       0.74344197 </v>
   <v>       0.07877101       0.67118045       0.74344197 </v>
   <v>       0.57877100       0.17118050       0.74344197 </v>
   <v>       0.57877099       0.67118045       0.74344197 </v>
   <v>       0.17119950       0.42117448       0.74342103 </v>
   <v>       0.17119950       0.92117451       0.74342103 </v>
   <v>       0.67119951       0.42117448       0.74342103 </v>
   <v>       0.67119950       0.92117451       0.74342103 </v>
   <v>       0.05125600       0.19871499       0.76888902 </v>
   <v>       0.05125600       0.69871493       0.76888902 </v>
   <v>       0.55125603       0.19871499       0.76888902 </v>
   <v>       0.55125602       0.69871493       0.76888902 </v>
   <v>       0.19872349       0.44870397       0.76887205 </v>
   <v>       0.19872349       0.94870397       0.76887205 </v>
   <v>       0.69872352       0.44870397       0.76887205 </v>
   <v>       0.69872351       0.94870397       0.76887205 </v>
   <v>       0.42123152       0.32881747       0.74344197 </v>
   <v>       0.42123151       0.82881744       0.74344197 </v>
   <v>       0.92123147       0.32881747       0.74344197 </v>
   <v>       0.92123151       0.82881744       0.74344197 </v>
   <v>       0.32880050       0.07882500       0.74342103 </v>
   <v>       0.32880049       0.57882496       0.74342103 </v>
   <v>       0.82880048       0.07882500       0.74342103 </v>
   <v>       0.82880052       0.57882496       0.74342103 </v>
   <v>       0.00000350       0.25000148       0.72582199 </v>
   <v>       0.00000350       0.75000145       0.72582199 </v>
   <v>       0.50000351       0.25000148       0.72582199 </v>
   <v>       0.50000350       0.75000145       0.72582199 </v>
   <v>       0.25000050       0.00000000       0.72580398 </v>
   <v>       0.25000052       0.50000000       0.72580398 </v>
   <v>       0.75000050       0.00000000       0.72580398 </v>
   <v>       0.75000049       0.50000000       0.72580398 </v>
   <v>       0.78703334       0.50864272       0.51805436 </v>
   <v>       0.87176517       0.50569983       0.53193598 </v>
   <v>       0.75177246       0.62713312       0.53849217 </v>
   <v>       0.76782245       0.62668233       0.56616097 </v>
   <v>       0.67965039       0.45331242       0.55749676 </v>
   <v>       0.66969145       0.54935049       0.56327642 </v>
   <v>       0.79939419       0.42825436       0.57057115 </v>
   <v>       0.86516420       0.50144117       0.57112601 </v>
   <v>       0.86188698       0.37957594       0.54184910 </v>
   <v>       0.76524124       0.37631969       0.53756339 </v>
   <v>       0.77740184       0.38000856       0.49930476 </v>
   <v>       0.86576943       0.41941637       0.49948510 </v>
   <v>       0.89218150       0.60998258       0.53282428 </v>
   <v>       0.90509235       0.60986626       0.56131631 </v>
   <v>       0.86729744       0.68903874       0.54822812 </v>
   <v>       0.59681653       0.52220983       0.53281214 </v>
   <v>       0.66871059       0.48369697       0.51745189 </v>
   <v>       0.66847423       0.58079368       0.52313393 </v>
   <v>       0.72225275       0.48273383       0.59626397 </v>
   <v>       0.75177390       0.57503013       0.59286516 </v>
   <v>       0.81203214       0.50930433       0.60567070 </v>
   <v>       0.83425311       0.26275070       0.51719317 </v>
   <v>       0.84634123       0.27772949       0.48976043 </v>
   <v>       0.93907807       0.17354284       0.50239428 </v>
   <v>       0.97342315       0.40569295       0.51464896 </v>
   <v>       0.07301531       0.15062977       0.50365744 </v>
   <v>       0.10719619       0.38244465       0.51657506 </v>
   <v>       0.15852812       0.25727695       0.51156735 </v>
   <v>       0.99721986       0.22711111       0.56101748 </v>
   <v>       0.03112651       0.77238134       0.56126460 </v>
   <v>       0.51251936       0.26179517       0.56083007 </v>
   <v>       0.50090557       0.77145976       0.55916158 </v>
   <v>       0.23861344       0.50828264       0.55768839 </v>
   <v>       0.26259537       0.98820916       0.55769577 </v>
   <v>       0.76906537       0.98600629       0.56175304 </v>
   <v>       0.00701010       0.24272060       0.65249812 </v>
   <v>       0.01621039       0.76444743       0.65295225 </v>
   <v>       0.50353071       0.25439697       0.65035029 </v>
   <v>       0.48913331       0.75855167       0.65004927 </v>
   <v>       0.24772837       0.49936748       0.64957743 </v>
   <v>       0.25547059       0.99604616       0.64982718 </v>
   <v>       0.74451801       0.51146418       0.65139280 </v>
   <v>       0.75240702       0.99861767       0.64964617 </v>
   <v>       0.49998898       0.24999498       0.74327702 </v>
   <v>       0.49998903       0.74999496       0.74327702 </v>
   <v>       0.99998898       0.24999498       0.74327702 </v>
   <v>       0.99998903       0.74999496       0.74327702 </v>
   <v>       0.25000050       0.00000100       0.74325596 </v>
   <v>       0.25000052       0.50000100       0.74325596 </v>
   <v>       0.75000050       0.00000100       0.74325596 </v>
   <v>       0.75000049       0.50000100       0.74325596 </v>
   <v>       0.94472834       0.29014993       0.50790554 </v>
   <v>       0.97556904       0.21939551       0.50531759 </v>
   <v>       0.99401380       0.34871557       0.51245687 </v>
   <v>       0.05209687       0.20686170       0.50615287 </v>
   <v>       0.07036710       0.33633937       0.51328412 </v>
   <v>       0.09942355       0.26626526       0.51010325 </v>
   <v>       0.81360583       0.48597044       0.53247332 </v>
   <v>       0.78861964       0.60453164       0.55101896 </v>
   <v>       0.69169320       0.51018109       0.55130668 </v>
   <v>       0.80597598       0.48906465       0.57191401 </v>
   <v>       0.81679919       0.40206776       0.53177580 </v>
   <v>       0.82983278       0.37914828       0.50798686 </v>
   <v>       0.86844475       0.62831579       0.54820169 </v>
   <v>       0.65609713       0.52534564       0.52977765 </v>
   <v>       0.77037239       0.51640282       0.59269692 </v>
   <v>       0.86236440       0.30077626       0.50554936 </v>
   <v>       0.05966315       0.22687096       0.57132387 </v>
   <v>       0.04059083       0.70808462       0.57034979 </v>
   <v>       0.55001375       0.20641286       0.56893948 </v>
   <v>       0.55268096       0.72852393       0.56744406 </v>
   <v>       0.44857842       0.28458616       0.56795973 </v>
   <v>       0.43088849       0.77026563       0.56520808 </v>
   <v>       0.93565497       0.25749228       0.56756121 </v>
   <v>       0.97890941       0.81935710       0.56627189 </v>
   <v>       0.24167250       0.44931537       0.56979341 </v>
   <v>       0.19397640       0.99404739       0.56393420 </v>
   <v>       0.70135484       0.97102446       0.56742227 </v>
   <v>       0.31721795       0.02660177       0.56560806 </v>
   <v>       0.27183750       0.57077405       0.56194669 </v>
   <v>       0.80759529       0.04111589       0.56933317 </v>
   <v>       0.05750946       0.19189411       0.65653610 </v>
   <v>       0.05270055       0.70962372       0.66156878 </v>
   <v>       0.54243965       0.20033038       0.65852570 </v>
   <v>       0.52807203       0.71479594       0.66274309 </v>
   <v>       0.21282266       0.44549672       0.65887385 </v>
   <v>       0.20291237       0.95351260       0.65689713 </v>
   <v>       0.70702552       0.45826716       0.66076259 </v>
   <v>       0.70048800       0.95991478       0.65869003 </v>
   <v>       0.45183525       0.29219318       0.66017330 </v>
   <v>       0.44291737       0.80971597       0.65627482 </v>
   <v>       0.96871689       0.27972350       0.66644561 </v>
   <v>       0.95693798       0.79661908       0.66063873 </v>
   <v>       0.29740526       0.03869200       0.66127460 </v>
   <v>       0.28899168       0.54921913       0.65927762 </v>
   <v>       0.79724844       0.04484833       0.65949494 </v>
   <v>       0.79359610       0.55581958       0.66073982 </v>
   <v>       0.04586250       0.20411950       0.75272599 </v>
   <v>       0.04586250       0.70411946       0.75272599 </v>
   <v>       0.54586251       0.20411950       0.75272599 </v>
   <v>       0.54586250       0.70411946       0.75272599 </v>
   <v>       0.20411900       0.45410100       0.75270499 </v>
   <v>       0.20411899       0.95410095       0.75270499 </v>
   <v>       0.70411898       0.45410100       0.75270499 </v>
   <v>       0.70411896       0.95410095       0.75270499 </v>
   <v>       0.45414002       0.29588849       0.75272697 </v>
   <v>       0.45414001       0.79588852       0.75272697 </v>
   <v>       0.95414002       0.29588849       0.75272697 </v>
   <v>       0.95414006       0.79588852       0.75272697 </v>
   <v>       0.29588249       0.04590050       0.75270499 </v>
   <v>       0.29588248       0.54590053       0.75270499 </v>
   <v>       0.79588244       0.04590050       0.75270499 </v>
   <v>       0.79588248       0.54590053       0.75270499 </v>
   <v>       0.77492659       0.52161659       0.55142993 </v>
   <v>       0.50687613       0.98663212       0.55371036 </v>
   <v>       0.45606340       0.47722138       0.55450001 </v>
   <v>       0.99684550       0.01058721       0.55145509 </v>
   <v>       0.03570214       0.49096837       0.55778588 </v>
   <v>       0.24464777       0.24640770       0.55571399 </v>
   <v>       0.23727729       0.77164297       0.55138464 </v>
   <v>       0.74395567       0.22611469       0.55457583 </v>
   <v>       0.71535060       0.79008674       0.54502515 </v>
   <v>       0.00194533       0.99673310       0.65445860 </v>
   <v>       0.00069678       0.50531382       0.65620449 </v>
   <v>       0.49579225       0.00330874       0.65494655 </v>
   <v>       0.49633053       0.49968379       0.65518311 </v>
   <v>       0.25492883       0.23903534       0.65566172 </v>
   <v>       0.25137553       0.75353341       0.65406527 </v>
   <v>       0.74329887       0.25181534       0.65564536 </v>
   <v>       0.75635130       0.75525123       0.65370741 </v>
   <v>       0.14741134       0.10526524       0.61012795 </v>
   <v>       0.14988739       0.60667522       0.60954031 </v>
   <v>       0.64687597       0.10664191       0.61050333 </v>
   <v>       0.61014370       0.64018123       0.61480339 </v>
   <v>       0.36252948       0.38837119       0.61275708 </v>
   <v>       0.36115884       0.88921796       0.60843462 </v>
   <v>       0.88997782       0.36153034       0.61618727 </v>
   <v>       0.86191562       0.89036409       0.60854652 </v>
   <v>       0.11762524       0.36075385       0.61267247 </v>
   <v>       0.11659425       0.87224292       0.60857882 </v>
   <v>       0.61694644       0.37032068       0.60646652 </v>
   <v>       0.61953156       0.86614246       0.61308606 </v>
   <v>       0.39729373       0.14088287       0.60853822 </v>
   <v>       0.38318679       0.63889935       0.60737282 </v>
   <v>       0.88614073       0.13674671       0.61343074 </v>
   <v>       0.91487881       0.66474325       0.61433760 </v>
   <v>       0.00000000       0.00000000       0.75492797 </v>
   <v>       0.00000000       0.50000000       0.75492797 </v>
   <v>       0.50000000       0.00000000       0.75492797 </v>
   <v>       0.49999999       0.50000000       0.75492797 </v>
   <v>       0.25000050       0.25000000       0.75493902 </v>
   <v>       0.25000051       0.74999997       0.75493902 </v>
   <v>       0.75000047       0.25000000       0.75493902 </v>
   <v>       0.75000046       0.74999997       0.75493902 </v>
   <v>       0.13579050       0.11421000       0.70478299 </v>
   <v>       0.13579050       0.61420998       0.70478299 </v>
   <v>       0.63579045       0.11421000       0.70478299 </v>
   <v>       0.63579049       0.61420998       0.70478299 </v>
   <v>       0.36420952       0.38578999       0.70478299 </v>
   <v>       0.36420950       0.88578996       0.70478299 </v>
   <v>       0.86420954       0.38578999       0.70478299 </v>
   <v>       0.86420953       0.88578996       0.70478299 </v>
   <v>       0.11421799       0.36421899       0.70478098 </v>
   <v>       0.11421799       0.86421899       0.70478098 </v>
   <v>       0.61421800       0.36421899       0.70478098 </v>
   <v>       0.61421799       0.86421899       0.70478098 </v>
   <v>       0.38578201       0.13578149       0.70478202 </v>
   <v>       0.38578200       0.63578149       0.70478202 </v>
   <v>       0.88578199       0.13578149       0.70478202 </v>
   <v>       0.88578203       0.63578149       0.70478202 </v>
   <v>       0.13466700       0.11533200       0.80125603 </v>
   <v>       0.13466699       0.61533199       0.80125603 </v>
   <v>       0.63466699       0.11533200       0.80125603 </v>
   <v>       0.63466698       0.61533199       0.80125603 </v>
   <v>       0.36533300       0.38466799       0.80125603 </v>
   <v>       0.36533299       0.88466796       0.80125603 </v>
   <v>       0.86533295       0.38466799       0.80125603 </v>
   <v>       0.86533294       0.88466796       0.80125603 </v>
   <v>       0.11532850       0.36533700       0.80126500 </v>
   <v>       0.11532850       0.86533698       0.80126500 </v>
   <v>       0.61532850       0.36533700       0.80126500 </v>
   <v>       0.61532849       0.86533698       0.80126500 </v>
   <v>       0.38467151       0.13466300       0.80126500 </v>
   <v>       0.38467150       0.63466297       0.80126500 </v>
   <v>       0.88467149       0.13466300       0.80126500 </v>
   <v>       0.88467153       0.63466297       0.80126500 </v>
   <v>       0.99470913       0.00568325       0.60442112 </v>
   <v>       0.00891522       0.50461558       0.60643605 </v>
   <v>       0.50193689       0.99496273       0.60355730 </v>
   <v>       0.49536904       0.50069788       0.60292687 </v>
   <v>       0.25204219       0.24938411       0.60552584 </v>
   <v>       0.24297812       0.75721008       0.60363422 </v>
   <v>       0.75189750       0.25488967       0.60583974 </v>
   <v>       0.74984369       0.75524015       0.60500834 </v>
   <v>       0.00000050       0.00000050       0.70482896 </v>
   <v>       0.00000050       0.50000048       0.70482896 </v>
   <v>       0.50000048       0.00000050       0.70482896 </v>
   <v>       0.50000046       0.50000048       0.70482896 </v>
   <v>       0.24999999       0.24999947       0.70482499 </v>
   <v>       0.25000001       0.74999950       0.70482499 </v>
   <v>       0.74999999       0.24999947       0.70482499 </v>
   <v>       0.74999998       0.74999950       0.70482499 </v>
   <v>       0.00000000       0.00000000       0.80731797 </v>
   <v>       0.00000000       0.50000000       0.80731797 </v>
   <v>       0.50000000       0.00000000       0.80731797 </v>
   <v>       0.49999999       0.50000000       0.80731797 </v>
   <v>       0.24999999       0.25000000       0.80731797 </v>
   <v>       0.25000001       0.74999997       0.80731797 </v>
   <v>       0.74999999       0.25000000       0.80731797 </v>
   <v>       0.74999998       0.74999997       0.80731797 </v>
  </varray>
 </structure>
</modeling>
