 vasp.6.2.1 16May21 (build Nov 15 2021 14:57:28) complex                         
 executed on             LinuxPGI date 2023.07.30  12:40:00
 running on    4 total cores
 distrk:  each k-point on    4 cores,    1 groups
 distr:  one band on NCORE=   1 cores,    4 groups


--------------------------------------------------------------------------------------------------------


 INCAR:
   SYSTEM = PSC
   ISTART = 1
   ICHARG = 1
   PREC = Normal
   ENCUT = 500
   GGA_COMPAT = F
   NELM = 600
   ISYM = 0
   LREAL = Auto
   ISMEAR = 0
   SIGMA = 0.05
   AMIN = 0.01
   BMIX = 0.01
   LVTOT = T
   LWAVE = F
   LDIPOL = T
   IDIPOL = 3
   LVDW = T
   IVDW = 12

 POTCAR:    PAW_PBE H 15Jun2001                   
 POTCAR:    PAW_PBE C 08Apr2002                   
 POTCAR:    PAW_PBE N 08Apr2002                   
 POTCAR:    PAW_PBE I 08Apr2002                   
 POTCAR:    PAW_PBE Pb 08Apr2002                  
 WARNING: For LVTOT=.TRUE., VASP.5.x writes the TOTAL local potential to the
     file LOCPOT. If you want only the Hartree contributions, use LVHAR=.TRUE.
     instead. 

 POTCAR:    PAW_PBE H 15Jun2001                   
   SHA256 =  030f79b5d3ab3cf0e668861823c8fb652ff669f3e15e46930bd03bfd63a607b6 H/POTCAR              
   COPYR  = (c) Copyright 15Jun2001 Georg Kresse                                                    
   COPYR  = This file is part of the software VASP. Any use, copying, and all other rights are regul
   COPYR  = If you do not have a valid VASP license, you may not use, copy or distribute this file. 
   VRHFIN =H: ultrasoft test                                                                        
   LEXCH  = PE                                                                                      
   EATOM  =    12.4884 eV,    0.9179 Ry                                                             
                                                                                                    
   TITEL  = PAW_PBE H 15Jun2001                                                                     
   LULTRA =        F    use ultrasoft PP ?                                                          
   IUNSCR =        0    unscreen: 0-lin 1-nonlin 2-no                                               
   RPACOR =    0.000    partial core radius                                                         
   POMASS =    1.000; ZVAL   =    1.000    mass and valenz                                          
   RCORE  =    1.100    outmost cutoff radius                                                       
   RWIGS  =    0.700; RWIGS  =    0.370    wigner-seitz radius (au A)                               
   ENMAX  =  250.000; ENMIN  =  200.000 eV                                                          
   RCLOC  =    0.701    cutoff for local pot                                                        
   LCOR   =        T    correct aug charges                                                         
   LPAW   =        T    paw PP                                                                      
   EAUG   =  400.000                                                                                
   RMAX   =    1.123    core radius for proj-oper                                                   
   RAUG   =    1.200    factor for augmentation sphere                                              
   RDEP   =    1.112    radius for radial grids                                                     
   RDEPT  =    0.926    core radius for aug-charge                                                  
                                                                                                    
   Atomic configuration                                                                             
    2 entries                                                                                       
     n  l   j            E        occ.                                                              
     1  0  0.50        -6.4927   1.0000                                                             
     2  1  0.50        -3.4015   0.0000                                                             
   Description                                                                                      
     l       E           TYP  RCUT    TYP  RCUT                                                     
     0     -6.4927494     23  1.100                                                                 
     0      6.8029130     23  1.100                                                                 
     1     -4.0817478     23  1.100                                                                 
  local pseudopotential read in
  atomic valenz-charges read in
  non local Contribution for L=            0  read in
    real space projection operators read in
  non local Contribution for L=            0  read in
    real space projection operators read in
  non local Contribution for L=            1  read in
    real space projection operators read in
    PAW grid and wavefunctions read in
 
   number of l-projection  operators is LMAX  =            3
   number of lm-projection operators is LMMAX =            5
 
 POTCAR:    PAW_PBE C 08Apr2002                   
   SHA256 =  253f7b50bb8d59471dbedb8285d89021f4a42ed1a2c5d38a03a736e69125dd95 C/POTCAR              
   COPYR  = (c) Copyright 08Apr2002 Georg Kresse                                                    
   COPYR  = This file is part of the software VASP. Any use, copying, and all other rights are regul
   COPYR  = If you do not have a valid VASP license, you may not use, copy or distribute this file. 
   VRHFIN =C: s2p2                                                                                  
   LEXCH  = PE                                                                                      
   EATOM  =   147.1560 eV,   10.8157 Ry                                                             
                                                                                                    
   TITEL  = PAW_PBE C 08Apr2002                                                                     
   LULTRA =        F    use ultrasoft PP ?                                                          
   IUNSCR =        1    unscreen: 0-lin 1-nonlin 2-no                                               
   RPACOR =    1.200    partial core radius                                                         
   POMASS =   12.011; ZVAL   =    4.000    mass and valenz                                          
   RCORE  =    1.500    outmost cutoff radius                                                       
   RWIGS  =    1.630; RWIGS  =    0.863    wigner-seitz radius (au A)                               
   ENMAX  =  400.000; ENMIN  =  300.000 eV                                                          
   ICORE  =        2    local potential                                                             
   LCOR   =        T    correct aug charges                                                         
   LPAW   =        T    paw PP                                                                      
   EAUG   =  644.873                                                                                
   DEXC   =    0.000                                                                                
   RMAX   =    1.529    core radius for proj-oper                                                   
   RAUG   =    1.300    factor for augmentation sphere                                              
   RDEP   =    1.501    radius for radial grids                                                     
   RDEPT  =    1.300    core radius for aug-charge                                                  
                                                                                                    
   Atomic configuration                                                                             
    4 entries                                                                                       
     n  l   j            E        occ.                                                              
     1  0  0.50      -273.3789   2.0000                                                             
     2  0  0.50       -13.7508   2.0000                                                             
     2  1  0.50        -5.2854   2.0000                                                             
     3  2  1.50        -5.4423   0.0000                                                             
   Description                                                                                      
     l       E           TYP  RCUT    TYP  RCUT                                                     
     0    -13.7508458     23  1.200                                                                 
     0     -8.2022199     23  1.200                                                                 
     1     -5.2854383     23  1.500                                                                 
     1     34.0145650     23  1.500                                                                 
     2     -5.4423304      7  1.500                                                                 
  local pseudopotential read in
  partial core-charges read in
  partial kinetic energy density read in
  atomic valenz-charges read in
  non local Contribution for L=            0  read in
    real space projection operators read in
  non local Contribution for L=            0  read in
    real space projection operators read in
  non local Contribution for L=            1  read in
    real space projection operators read in
  non local Contribution for L=            1  read in
    real space projection operators read in
    PAW grid and wavefunctions read in
 
   number of l-projection  operators is LMAX  =            4
   number of lm-projection operators is LMMAX =            8
 
 POTCAR:    PAW_PBE N 08Apr2002                   
   SHA256 =  e053789ff3a61a86a1b75d8a110fcc91f86041011e7b0817c7c99e4e8a6349d7 N/POTCAR              
   COPYR  = (c) Copyright 08Apr2002 Georg Kresse                                                    
   COPYR  = This file is part of the software VASP. Any use, copying, and all other rights are regul
   COPYR  = If you do not have a valid VASP license, you may not use, copy or distribute this file. 
   VRHFIN =N: s2p3                                                                                  
   LEXCH  = PE                                                                                      
   EATOM  =   264.5486 eV,   19.4438 Ry                                                             
                                                                                                    
   TITEL  = PAW_PBE N 08Apr2002                                                                     
   LULTRA =        F    use ultrasoft PP ?                                                          
   IUNSCR =        1    unscreen: 0-lin 1-nonlin 2-no                                               
   RPACOR =    1.200    partial core radius                                                         
   POMASS =   14.001; ZVAL   =    5.000    mass and valenz                                          
   RCORE  =    1.500    outmost cutoff radius                                                       
   RWIGS  =    1.400; RWIGS  =    0.741    wigner-seitz radius (au A)                               
   ENMAX  =  400.000; ENMIN  =  300.000 eV                                                          
   ICORE  =        2    local potential                                                             
   LCOR   =        T    correct aug charges                                                         
   LPAW   =        T    paw PP                                                                      
   EAUG   =  627.112                                                                                
   DEXC   =    0.000                                                                                
   RMAX   =    1.529    core radius for proj-oper                                                   
   RAUG   =    1.300    factor for augmentation sphere                                              
   RDEP   =    1.514    radius for radial grids                                                     
   RDEPT  =    1.338    core radius for aug-charge                                                  
                                                                                                    
   Atomic configuration                                                                             
    4 entries                                                                                       
     n  l   j            E        occ.                                                              
     1  0  0.50      -384.7179   2.0000                                                             
     2  0  0.50       -18.5828   2.0000                                                             
     2  1  0.50        -7.0898   3.0000                                                             
     3  2  1.50        -6.8029   0.0000                                                             
   Description                                                                                      
     l       E           TYP  RCUT    TYP  RCUT                                                     
     0    -18.5828119     23  1.200                                                                 
     0    -13.5018863     23  1.200                                                                 
     1     -7.0897853     23  1.500                                                                 
     1      9.5240782     23  1.500                                                                 
     2     -6.8029130      7  1.500                                                                 
  local pseudopotential read in
  partial core-charges read in
  partial kinetic energy density read in
  atomic valenz-charges read in
  non local Contribution for L=            0  read in
    real space projection operators read in
  non local Contribution for L=            0  read in
    real space projection operators read in
  non local Contribution for L=            1  read in
    real space projection operators read in
  non local Contribution for L=            1  read in
    real space projection operators read in
    PAW grid and wavefunctions read in
 
   number of l-projection  operators is LMAX  =            4
   number of lm-projection operators is LMMAX =            8
 
 POTCAR:    PAW_PBE I 08Apr2002                   
   SHA256 =  e40f3f59b681c1fc3e3091736183c4589116986673d2b852a5012aec72758799 I/POTCAR              
   COPYR  = (c) Copyright 08Apr2002 Georg Kresse                                                    
   COPYR  = This file is part of the software VASP. Any use, copying, and all other rights are regul
   COPYR  = If you do not have a valid VASP license, you may not use, copy or distribute this file. 
   VRHFIN =I : s2p5                                                                                 
   LEXCH  = PE                                                                                      
   EATOM  =   315.8678 eV,   23.2156 Ry                                                             
                                                                                                    
   TITEL  = PAW_PBE I 08Apr2002                                                                     
   LULTRA =        F    use ultrasoft PP ?                                                          
   IUNSCR =        1    unscreen: 0-lin 1-nonlin 2-no                                               
   RPACOR =    2.200    partial core radius                                                         
   POMASS =  126.904; ZVAL   =    7.000    mass and valenz                                          
   RCORE  =    2.300    outmost cutoff radius                                                       
   RWIGS  =    2.810; RWIGS  =    1.487    wigner-seitz radius (au A)                               
   ENMAX  =  175.647; ENMIN  =  131.735 eV                                                          
   ICORE  =        3    local potential                                                             
   LCOR   =        T    correct aug charges                                                         
   LPAW   =        T    paw PP                                                                      
   EAUG   =  370.139                                                                                
   DEXC   =    0.000                                                                                
   RMAX   =    2.359    core radius for proj-oper                                                   
   RAUG   =    1.300    factor for augmentation sphere                                              
   RDEP   =    2.392    radius for radial grids                                                     
   RDEPT  =    2.170    core radius for aug-charge                                                  
                                                                                                    
   Atomic configuration                                                                             
   13 entries                                                                                       
     n  l   j            E        occ.                                                              
     1  0  0.50    -32976.3739   2.0000                                                             
     2  0  0.50     -5094.5933   2.0000                                                             
     2  1  1.50     -4572.0131   6.0000                                                             
     3  0  0.50     -1028.2813   2.0000                                                             
     3  1  1.50      -859.0250   6.0000                                                             
     3  2  2.50      -605.7620  10.0000                                                             
     4  0  0.50      -180.5540   2.0000                                                             
     4  1  1.50      -127.5306   6.0000                                                             
     4  2  2.50       -50.2720  10.0000                                                             
     5  0  0.50       -17.4058   2.0000                                                             
     5  1  0.50        -7.0851   5.0000                                                             
     5  2  1.50        -7.0750   0.0000                                                             
     4  3  2.50        -7.0750   0.0000                                                             
   Description                                                                                      
     l       E           TYP  RCUT    TYP  RCUT                                                     
     0    -17.4058016     23  2.300                                                                 
     0    -18.7663842     23  2.300                                                                 
     1     -7.0850686     23  2.300                                                                 
     1     -4.2150896     23  2.300                                                                 
     2     -7.0750295     23  2.300                                                                 
     3     -1.3605826     23  2.300                                                                 
  local pseudopotential read in
  partial core-charges read in
  partial kinetic energy density read in
  atomic valenz-charges read in
  non local Contribution for L=            0  read in
    real space projection operators read in
  non local Contribution for L=            0  read in
    real space projection operators read in
  non local Contribution for L=            1  read in
    real space projection operators read in
  non local Contribution for L=            1  read in
    real space projection operators read in
  non local Contribution for L=            2  read in
    real space projection operators read in
    PAW grid and wavefunctions read in
 
   number of l-projection  operators is LMAX  =            5
   number of lm-projection operators is LMMAX =           13
 
 POTCAR:    PAW_PBE Pb 08Apr2002                  
   SHA256 =  797118a27cf1bcd06b9881c67a26cdde129e3cd1a551dd4a281f9681ce847303 Pb/POTCAR             
   COPYR  = (c) Copyright 08Apr2002 Georg Kresse                                                    
   COPYR  = This file is part of the software VASP. Any use, copying, and all other rights are regul
   COPYR  = If you do not have a valid VASP license, you may not use, copy or distribute this file. 
   VRHFIN =Pb:                                                                                      
   LEXCH  = PE                                                                                      
   EATOM  =    96.9868 eV,    7.1283 Ry                                                             
                                                                                                    
   TITEL  = PAW_PBE Pb 08Apr2002                                                                    
   LULTRA =        F    use ultrasoft PP ?                                                          
   IUNSCR =        1    unscreen: 0-lin 1-nonlin 2-no                                               
   RPACOR =    2.200    partial core radius                                                         
   POMASS =  207.200; ZVAL   =    4.000    mass and valenz                                          
   RCORE  =    3.100    outmost cutoff radius                                                       
   RWIGS  =    3.260; RWIGS  =    1.725    wigner-seitz radius (au A)                               
   ENMAX  =   97.973; ENMIN  =   73.480 eV                                                          
   ICORE  =        3    local potential                                                             
   LCOR   =        T    correct aug charges                                                         
   LPAW   =        T    paw PP                                                                      
   EAUG   =  234.873                                                                                
   DEXC   =    0.000                                                                                
   RMAX   =    3.158    core radius for proj-oper                                                   
   RAUG   =    1.300    factor for augmentation sphere                                              
   RDEP   =    3.202    radius for radial grids                                                     
   RDEPT  =    2.659    core radius for aug-charge                                                  
                                                                                                    
   Atomic configuration                                                                             
   17 entries                                                                                       
     n  l   j            E        occ.                                                              
     1  0  0.50    -88091.8466   2.0000                                                             
     2  0  0.50    -15753.4197   2.0000                                                             
     2  1  1.50    -13508.1797   6.0000                                                             
     3  0  0.50     -3781.7194   2.0000                                                             
     3  1  1.50     -3138.2529   6.0000                                                             
     3  2  2.50     -2483.2977  10.0000                                                             
     4  0  0.50      -856.2895   2.0000                                                             
     4  1  1.50      -645.4943   6.0000                                                             
     4  2  2.50      -401.8768  10.0000                                                             
     4  3  3.50      -132.9059  14.0000                                                             
     5  0  0.50      -144.0950   2.0000                                                             
     5  1  1.50       -85.7879   6.0000                                                             
     5  2  2.50       -21.1769  10.0000                                                             
     6  0  0.50       -12.0372   2.0000                                                             
     6  1  1.50        -3.4971   2.0000                                                             
     6  2  2.50        -1.3606   0.0000                                                             
     5  3  2.50        -2.7212   0.0000                                                             
   Description                                                                                      
     l       E           TYP  RCUT    TYP  RCUT                                                     
     0    -12.0371566     23  3.100                                                                 
     0    -13.3977392     23  3.100                                                                 
     1     -3.4971341     23  3.100                                                                 
     1     -5.4423304     23  3.100                                                                 
     2     -1.3605826     23  3.100                                                                 
     3     -1.3605826     23  3.100                                                                 
  local pseudopotential read in
  partial core-charges read in
  partial kinetic energy density read in
  atomic valenz-charges read in
  non local Contribution for L=            0  read in
    real space projection operators read in
  non local Contribution for L=            0  read in
    real space projection operators read in
  non local Contribution for L=            1  read in
    real space projection operators read in
  non local Contribution for L=            1  read in
    real space projection operators read in
  non local Contribution for L=            2  read in
    real space projection operators read in
    PAW grid and wavefunctions read in
 
   number of l-projection  operators is LMAX  =            5
   number of lm-projection operators is LMMAX =           13
 
 Optimization of the real space projectors (new method)

 maximal supplied QI-value         = 34.20
 optimisation between [QCUT,QGAM] = [ 11.29, 22.57] = [ 35.68,142.71] Ry 
 Optimized for a Real-space Cutoff    1.16 Angstroem

   l    n(q)    QCUT    max X(q) W(low)/X(q) W(high)/X(q)  e(spline) 
   0      8    11.287    19.460    0.40E-03    0.73E-03    0.16E-06
   0      8    11.287    12.209    0.38E-03    0.70E-03    0.15E-06
   1      7    11.287     4.655    0.22E-03    0.25E-04    0.22E-06
 Optimization of the real space projectors (new method)

 maximal supplied QI-value         = 25.13
 optimisation between [QCUT,QGAM] = [ 11.31, 22.87] = [ 35.82,146.48] Ry 
 Optimized for a Real-space Cutoff    1.00 Angstroem

   l    n(q)    QCUT    max X(q) W(low)/X(q) W(high)/X(q)  e(spline) 
   0      7    11.310   115.676    0.43E-03    0.13E-02    0.19E-06
   0      7    11.310    87.132    0.43E-03    0.13E-02    0.18E-06
   1      6    11.310     4.429    0.42E-03    0.74E-03    0.11E-06
   1      6    11.310     2.733    0.34E-03    0.55E-03    0.92E-07
 Optimization of the real space projectors (new method)

 maximal supplied QI-value         = 25.13
 optimisation between [QCUT,QGAM] = [ 11.31, 22.87] = [ 35.82,146.48] Ry 
 Optimized for a Real-space Cutoff    1.27 Angstroem

   l    n(q)    QCUT    max X(q) W(low)/X(q) W(high)/X(q)  e(spline) 
   0      9    11.310    79.467    0.75E-04    0.16E-03    0.36E-06
   0      9    11.310    66.151    0.74E-04    0.16E-03    0.36E-06
   1      8    11.310    17.416    0.35E-03    0.12E-03    0.95E-06
   1      8    11.310    12.382    0.37E-03    0.13E-03    0.98E-06
 Optimization of the real space projectors (new method)

 maximal supplied QI-value         = 16.25
 optimisation between [QCUT,QGAM] = [ 11.38, 22.75] = [ 36.24,144.96] Ry 
 Optimized for a Real-space Cutoff    1.31 Angstroem

   l    n(q)    QCUT    max X(q) W(low)/X(q) W(high)/X(q)  e(spline) 
   0      9    11.376   194.483    0.24E-03    0.23E-03    0.67E-07
   0      9    11.376   190.334    0.23E-03    0.22E-03    0.65E-07
   1      8    11.376   116.687    0.25E-03    0.63E-04    0.16E-06
   1      8    11.376    88.696    0.25E-03    0.61E-04    0.16E-06
   2      8    11.376     4.877    0.17E-03    0.14E-03    0.29E-07
 Optimization of the real space projectors (new method)

 maximal supplied QI-value         = 12.09
 optimisation between [QCUT,QGAM] = [ 11.37, 22.86] = [ 36.19,146.31] Ry 
 Optimized for a Real-space Cutoff    1.66 Angstroem

   l    n(q)    QCUT    max X(q) W(low)/X(q) W(high)/X(q)  e(spline) 
   0     11    11.369   135.111    0.12E-03    0.69E-04    0.19E-05
   0     11    11.369   146.850    0.11E-03    0.65E-04    0.18E-05
   1     11    11.369   148.016    0.17E-03    0.32E-03    0.89E-06
   1     11    11.369   122.989    0.17E-03    0.32E-03    0.91E-06
   2     10    11.369     8.916    0.12E-03    0.45E-04    0.33E-06
  PAW_PBE H 15Jun2001                   :
 energy of atom  1       EATOM=  -12.4884
 kinetic energy error for atom=    0.0020 (will be added to EATOM!!)
  PAW_PBE C 08Apr2002                   :
 energy of atom  2       EATOM= -147.1560
 kinetic energy error for atom=    0.0076 (will be added to EATOM!!)
  PAW_PBE N 08Apr2002                   :
 energy of atom  3       EATOM= -264.5486
 kinetic energy error for atom=    0.0138 (will be added to EATOM!!)
  PAW_PBE I 08Apr2002                   :
 energy of atom  4       EATOM= -315.8678
 kinetic energy error for atom=    0.0009 (will be added to EATOM!!)
  PAW_PBE Pb 08Apr2002                  :
 energy of atom  5       EATOM=  -96.9868
 kinetic energy error for atom=    0.0000 (will be added to EATOM!!)
 
 
 POSCAR:  H  C  N  I Pb
  positions in cartesian coordinates
  No initial velocities read in
 exchange correlation table for  LEXCH =        8
   RHO(1)=    0.500       N(1)  =     2000
   RHO(2)=  100.500       N(2)  =     4000
 


--------------------------------------------------------------------------------------------------------


 ion  position               nearest neighbor table
   1  0.417  0.265  0.571- 187 1.01
   2  0.409  0.714  0.574- 188 1.01
   3  0.924  0.281  0.581- 189 1.02
   4  0.935  0.813  0.575- 190 1.03
   5  0.323  0.084  0.570- 194 1.03
   6  0.314  0.579  0.571- 195 1.02
   7  0.800  0.088  0.574- 196 1.02
   8  0.109  0.237  0.564- 183 1.01
   9  0.083  0.678  0.569- 184 1.01
  10  0.602  0.195  0.566- 185 1.02
  11  0.602  0.736  0.560- 186 1.03
  12  0.379  0.016  0.558- 194 1.04
  13  0.253  0.622  0.553- 195 1.04
  14  0.873  0.037  0.562- 196 1.03
  15  0.061  0.285  0.583- 183 1.03
  16  0.998  0.691  0.582- 184 1.03
  17  0.515  0.172  0.576- 185 1.01
  18  0.544  0.684  0.576- 186 1.03
  19  0.301  0.443  0.576- 191 1.02
  20  0.187  0.059  0.570- 192 1.03
  21  0.675  0.027  0.572- 193 1.02
  22  0.445  0.350  0.560- 187 1.03
  23  0.382  0.783  0.557- 188 1.02
  24  0.883  0.230  0.561- 189 1.03
  25  0.981  0.873  0.558- 190 1.03
  26  0.228  0.400  0.562- 191 1.02
  27  0.155  0.983  0.556- 192 1.03
  28  0.672  0.938  0.561- 193 1.03
  29  0.562  0.309  0.554- 146 1.09
  30  0.506  0.806  0.546- 147 1.09
  31  0.001  0.195  0.547- 144 1.10
  32  0.079  0.791  0.552- 145 1.09
  33  0.188  0.510  0.547- 148 1.09
  34  0.276  0.944  0.547- 149 1.09
  35  0.796  0.938  0.553- 150 1.09
  36  0.455  0.286  0.677- 205 1.01
  37  0.434  0.817  0.671- 206 1.02
  38  0.966  0.280  0.680- 207 1.02
  39  0.923  0.756  0.672- 208 1.01
  40  0.300  0.046  0.674- 209 1.01
  41  0.312  0.551  0.673- 210 1.02
  42  0.792  0.057  0.675- 211 1.02
  43  0.819  0.524  0.673- 212 1.03
  44  0.087  0.168  0.646- 197 1.01
  45  0.100  0.689  0.652- 198 1.02
  46  0.576  0.172  0.643- 199 1.02
  47  0.569  0.676  0.655- 200 1.03
  48  0.181  0.412  0.653- 201 1.03
  49  0.164  0.926  0.647- 202 1.04
  50  0.651  0.448  0.650- 203 1.01
  51  0.674  0.918  0.650- 204 1.03
  52  0.068  0.184  0.673- 197 1.02
  53  0.029  0.665  0.669- 198 1.01
  54  0.546  0.180  0.670- 199 1.02
  55  0.531  0.715  0.678- 200 1.00
  56  0.219  0.443  0.677- 201 1.01
  57  0.187  0.953  0.673- 202 1.02
  58  0.706  0.442  0.673- 203 1.02
  59  0.696  0.951  0.675- 204 1.01
  60  0.436  0.341  0.655- 205 1.02
  61  0.415  0.834  0.644- 206 1.02
  62  0.928  0.320  0.657- 207 1.03
  63  0.932  0.835  0.656- 208 1.02
  64  0.339  0.064  0.650- 209 1.04
  65  0.323  0.584  0.647- 210 1.02
  66  0.826  0.081  0.650- 211 1.02
  67  0.833  0.579  0.650- 212 1.03
  68  0.001  0.253  0.634- 151 1.09
  69  0.044  0.799  0.641- 152 1.10
  70  0.512  0.274  0.631- 153 1.11
  71  0.499  0.748  0.632- 154 1.11
  72  0.257  0.990  0.631- 156 1.11
  73  0.243  0.499  0.632- 155 1.10
  74  0.756  0.996  0.632- 158 1.11
  75  0.725  0.536  0.634- 157 1.10
  76  0.449  0.301  0.769- 221 1.02
  77  0.449  0.801  0.769- 222 1.02
  78  0.949  0.301  0.769- 223 1.02
  79  0.949  0.801  0.769- 224 1.02
  80  0.301  0.051  0.769- 225 1.02
  81  0.301  0.551  0.769- 226 1.02
  82  0.801  0.051  0.769- 227 1.02
  83  0.801  0.551  0.769- 228 1.02
  84  0.079  0.171  0.743- 213 1.02
  85  0.079  0.671  0.743- 214 1.02
  86  0.579  0.171  0.743- 215 1.02
  87  0.579  0.671  0.743- 216 1.02
  88  0.171  0.421  0.743- 217 1.02
  89  0.171  0.921  0.743- 218 1.02
  90  0.671  0.421  0.743- 219 1.02
  91  0.671  0.921  0.743- 220 1.02
  92  0.051  0.199  0.769- 213 1.02
  93  0.051  0.699  0.769- 214 1.02
  94  0.551  0.199  0.769- 215 1.02
  95  0.551  0.699  0.769- 216 1.02
  96  0.199  0.449  0.769- 217 1.02
  97  0.199  0.949  0.769- 218 1.02
  98  0.699  0.449  0.769- 219 1.02
  99  0.699  0.949  0.769- 220 1.02
 100  0.421  0.329  0.743- 221 1.02
 101  0.421  0.829  0.743- 222 1.02
 102  0.921  0.329  0.743- 223 1.02
 103  0.921  0.829  0.743- 224 1.02
 104  0.329  0.079  0.743- 225 1.02
 105  0.329  0.579  0.743- 226 1.02
 106  0.829  0.079  0.743- 227 1.02
 107  0.829  0.579  0.743- 228 1.02
 108  0.000  0.250  0.726- 161 1.09
 109  0.000  0.750  0.726- 162 1.09
 110  0.500  0.250  0.726- 159 1.09
 111  0.500  0.750  0.726- 160 1.09
 112  0.250  0.000  0.726- 163 1.09
 113  0.250  0.500  0.726- 164 1.09
 114  0.750  0.000  0.726- 165 1.09
 115  0.750  0.500  0.726- 166 1.09
 116  0.797  0.511  0.516- 173 1.11
 117  0.878  0.502  0.532- 173 1.10
 118  0.762  0.626  0.534- 174 1.10
 119  0.767  0.629  0.563- 174 1.10
 120  0.684  0.451  0.552- 175 1.11
 121  0.671  0.545  0.560- 175 1.10
 122  0.800  0.428  0.568- 176 1.11
 123  0.868  0.500  0.570- 176 1.10
 124  0.860  0.377  0.540- 177 1.10
 125  0.764  0.378  0.535- 177 1.10
 126  0.779  0.381  0.497- 178 1.11
 127  0.871  0.412  0.498- 178 1.10
 128  0.898  0.617  0.531- 179 1.10
 129  0.910  0.607  0.559- 179 1.10
 130  0.873  0.690  0.548- 179 1.10
 131  0.600  0.518  0.529- 180 1.10
 132  0.677  0.489  0.514- 180 1.10
 133  0.668  0.585  0.521- 180 1.10
 134  0.714  0.500  0.591- 181 1.09
 135  0.776  0.578  0.592- 181 1.10
 136  0.802  0.493  0.603- 181 1.10
 137  0.824  0.258  0.514- 182 1.11
 138  0.845  0.275  0.487- 182 1.11
 139  0.927  0.163  0.498- 168 1.09
 140  0.971  0.389  0.517- 169 1.10
 141  0.060  0.134  0.502- 170 1.09
 142  0.103  0.360  0.521- 171 1.09
 143  0.150  0.232  0.513- 172 1.09
 144  0.997  0.231  0.561-  31 1.10 183 1.31 189 1.32
 145  0.032  0.775  0.562-  32 1.09 184 1.31 190 1.32
 146  0.523  0.272  0.561-  29 1.09 187 1.31 185 1.31
 147  0.493  0.761  0.557-  30 1.09 186 1.31 188 1.32
 148  0.237  0.510  0.557-  33 1.09 195 1.31 191 1.31
 149  0.268  0.996  0.556-  34 1.09 194 1.31 192 1.31
 150  0.773  0.987  0.561-  35 1.09 196 1.31 193 1.31
 151  0.008  0.244  0.651-  68 1.09 207 1.30 197 1.31
 152  0.016  0.762  0.653-  69 1.10 198 1.30 208 1.31
 153  0.506  0.257  0.648-  70 1.11 199 1.31 205 1.32
 154  0.493  0.756  0.649-  71 1.11 206 1.31 200 1.32
 155  0.252  0.497  0.650-  73 1.10 201 1.31 210 1.32
 156  0.251  0.995  0.648-  72 1.11 202 1.30 209 1.31
 157  0.741  0.513  0.650-  75 1.10 203 1.31 212 1.32
 158  0.750  0.999  0.650-  74 1.11 204 1.31 211 1.32
 159  0.500  0.250  0.743- 110 1.09 221 1.31 215 1.31
 160  0.500  0.750  0.743- 111 1.09 222 1.31 216 1.31
 161  1.000  0.250  0.743- 108 1.09 223 1.31 213 1.31
 162  1.000  0.750  0.743- 109 1.09 224 1.31 214 1.31
 163  0.250  0.000  0.743- 112 1.09 225 1.31 218 1.31
 164  0.250  0.500  0.743- 113 1.09 226 1.31 217 1.31
 165  0.750  0.000  0.743- 114 1.09 227 1.31 220 1.31
 166  0.750  0.500  0.743- 115 1.09 228 1.31 219 1.31
 167  0.939  0.278  0.507- 168 1.40 169 1.41 182 1.53
 168  0.966  0.206  0.503- 139 1.09 167 1.40 170 1.40
 169  0.990  0.333  0.513- 140 1.10 171 1.40 167 1.41
 170  0.041  0.189  0.506- 141 1.09 172 1.39 168 1.40
 171  0.066  0.316  0.516- 142 1.09 172 1.40 169 1.40
 172  0.091  0.244  0.512- 143 1.09 170 1.39 171 1.40
 173  0.820  0.485  0.530- 117 1.10 116 1.11 229 1.53 177 1.54
 174  0.793  0.605  0.548- 118 1.10 119 1.10 179 1.52 229 1.53
 175  0.695  0.509  0.548- 121 1.10 120 1.11 180 1.52 229 1.53
 176  0.808  0.488  0.570- 123 1.10 122 1.11 181 1.51 229 1.53
 177  0.817  0.400  0.529- 124 1.10 125 1.10 173 1.54 178 1.55
 178  0.831  0.375  0.506- 127 1.10 126 1.11 182 1.54 177 1.55
 179  0.874  0.630  0.547- 128 1.10 130 1.10 129 1.10 174 1.52
 180  0.660  0.527  0.526- 132 1.10 131 1.10 133 1.10 175 1.52
 181  0.772  0.517  0.590- 134 1.09 135 1.10 136 1.10 176 1.51
 182  0.857  0.294  0.503- 137 1.11 138 1.11 167 1.53 178 1.54
 183  0.059  0.250  0.570-   8 1.01  15 1.03 144 1.31
 184  0.036  0.709  0.571-   9 1.01  16 1.03 145 1.31
 185  0.547  0.207  0.567-  17 1.01  10 1.02 146 1.31
 186  0.548  0.721  0.564-  18 1.03  11 1.03 147 1.31
 187  0.455  0.296  0.564-   1 1.01  22 1.03 146 1.31
 188  0.423  0.752  0.563-   2 1.01  23 1.02 147 1.32
 189  0.931  0.252  0.567-   3 1.02  24 1.03 144 1.32
 190  0.975  0.820  0.563-   4 1.03  25 1.03 145 1.32
 191  0.257  0.447  0.566-  26 1.02  19 1.02 148 1.31
 192  0.200  0.015  0.561-  27 1.03  20 1.03 149 1.31
 193  0.701  0.986  0.564-  21 1.02  28 1.03 150 1.31
 194  0.326  0.036  0.561-   5 1.03  12 1.04 149 1.31
 195  0.271  0.573  0.560-   6 1.02  13 1.04 148 1.31
 196  0.817  0.042  0.566-   7 1.02  14 1.03 150 1.31
 197  0.057  0.195  0.657-  44 1.01  52 1.02 151 1.31
 198  0.050  0.701  0.658-  53 1.01  45 1.02 152 1.30
 199  0.544  0.199  0.654-  46 1.02  54 1.02 153 1.31
 200  0.534  0.714  0.662-  55 1.00  47 1.03 154 1.32
 201  0.216  0.448  0.661-  56 1.01  48 1.03 155 1.31
 202  0.198  0.957  0.657-  57 1.02  49 1.04 156 1.30
 203  0.697  0.464  0.658-  50 1.01  58 1.02 157 1.31
 204  0.704  0.954  0.659-  59 1.01  51 1.03 158 1.31
 205  0.463  0.297  0.661-  36 1.01  60 1.02 153 1.32
 206  0.445  0.806  0.656-  37 1.02  61 1.02 154 1.31
 207  0.965  0.283  0.664-  38 1.02  62 1.03 151 1.30
 208  0.952  0.785  0.661-  39 1.01  63 1.02 152 1.31
 209  0.298  0.036  0.658-  40 1.01  64 1.04 156 1.31
 210  0.299  0.547  0.657-  41 1.02  65 1.02 155 1.32
 211  0.792  0.049  0.659-  42 1.02  66 1.02 158 1.32
 212  0.802  0.539  0.658-  43 1.03  67 1.03 157 1.32
 213  0.046  0.204  0.753-  92 1.02  84 1.02 161 1.31
 214  0.046  0.704  0.753-  93 1.02  85 1.02 162 1.31
 215  0.546  0.204  0.753-  94 1.02  86 1.02 159 1.31
 216  0.546  0.704  0.753-  95 1.02  87 1.02 160 1.31
 217  0.204  0.454  0.753-  96 1.02  88 1.02 164 1.31
 218  0.204  0.954  0.753-  97 1.02  89 1.02 163 1.31
 219  0.704  0.454  0.753-  98 1.02  90 1.02 166 1.31
 220  0.704  0.954  0.753-  99 1.02  91 1.02 165 1.31
 221  0.454  0.296  0.753-  76 1.02 100 1.02 159 1.31
 222  0.454  0.796  0.753-  77 1.02 101 1.02 160 1.31
 223  0.954  0.296  0.753-  78 1.02 102 1.02 161 1.31
 224  0.954  0.796  0.753-  79 1.02 103 1.02 162 1.31
 225  0.296  0.046  0.753-  80 1.02 104 1.02 163 1.31
 226  0.296  0.546  0.753-  81 1.02 105 1.02 164 1.31
 227  0.796  0.046  0.753-  82 1.02 106 1.02 165 1.31
 228  0.796  0.546  0.753-  83 1.02 107 1.02 166 1.31
 229  0.779  0.522  0.549- 176 1.53 173 1.53 175 1.53 174 1.53
 230  0.509  0.978  0.554- 304 3.16
 231  0.459  0.492  0.555- 305 3.15
 232  0.005  0.012  0.552- 302 3.30
 233  0.036  0.495  0.555- 303 3.18
 234  0.253  0.244  0.555- 306 3.16
 235  0.235  0.774  0.551- 307 3.32
 236  0.740  0.221  0.555- 308 3.24
 237  0.719  0.797  0.552- 309 3.30
 238  0.994  0.987  0.655- 302 3.12 310 3.15
 239  0.003  0.501  0.655- 311 3.09 303 3.15
 240  0.497  0.004  0.655- 312 3.13 304 3.16
 241  0.496  0.503  0.655- 313 3.11 305 3.21
 242  0.261  0.237  0.656- 314 3.09 306 3.13
 243  0.248  0.753  0.654- 307 3.13 315 3.18
 244  0.742  0.257  0.656- 316 3.08 308 3.08
 245  0.752  0.747  0.654- 309 3.17 317 3.20
 246  0.143  0.113  0.609- 302 3.21 306 3.22
 247  0.144  0.611  0.610- 303 3.14 307 3.22
 248  0.643  0.108  0.609- 308 3.23 304 3.29
 249  0.614  0.634  0.611- 305 3.25 309 3.36
 250  0.367  0.386  0.612- 305 3.16 306 3.19
 251  0.365  0.886  0.607- 304 3.16 307 3.20
 252  0.889  0.361  0.615- 308 3.25 303 3.39
 253  0.866  0.888  0.607- 309 3.16 302 3.24
 254  0.123  0.368  0.613- 306 3.19 303 3.25
 255  0.118  0.875  0.607- 307 3.12 302 3.20
 256  0.620  0.373  0.604- 305 3.19 308 3.22
 257  0.621  0.867  0.612- 309 3.09 304 3.19
 258  0.401  0.145  0.604- 304 3.27 306 3.29
 259  0.376  0.633  0.607- 305 3.26 307 3.28
 260  0.884  0.135  0.613- 302 3.16 308 3.23
 261  0.907  0.655  0.612- 303 3.32 309 3.46
 262  0.000  0.000  0.755- 310 3.13 318 3.27
 263  0.000  0.500  0.755- 311 3.13 319 3.27
 264  0.500  0.000  0.755- 312 3.13 320 3.27
 265  0.500  0.500  0.755- 313 3.13 321 3.27
 266  0.250  0.250  0.755- 314 3.13 322 3.27
 267  0.250  0.750  0.755- 315 3.13 323 3.27
 268  0.750  0.250  0.755- 316 3.13 324 3.27
 269  0.750  0.750  0.755- 317 3.13 325 3.27
 270  0.136  0.114  0.705- 310 3.20 314 3.20
 271  0.136  0.614  0.705- 311 3.20 315 3.20
 272  0.636  0.114  0.705- 312 3.20 316 3.20
 273  0.636  0.614  0.705- 313 3.20 317 3.20
 274  0.364  0.386  0.705- 313 3.20 314 3.20
 275  0.364  0.886  0.705- 312 3.20 315 3.20
 276  0.864  0.386  0.705- 311 3.20 316 3.20
 277  0.864  0.886  0.705- 310 3.20 317 3.20
 278  0.114  0.364  0.705- 314 3.21 311 3.21
 279  0.114  0.864  0.705- 315 3.21 310 3.21
 280  0.614  0.364  0.705- 316 3.21 313 3.21
 281  0.614  0.864  0.705- 317 3.21 312 3.21
 282  0.386  0.136  0.705- 314 3.21 312 3.21
 283  0.386  0.636  0.705- 315 3.21 313 3.21
 284  0.886  0.136  0.705- 316 3.21 310 3.21
 285  0.886  0.636  0.705- 317 3.21 311 3.21
 286  0.135  0.115  0.801- 318 3.22 322 3.22
 287  0.135  0.615  0.801- 319 3.22 323 3.22
 288  0.635  0.115  0.801- 320 3.22 324 3.22
 289  0.635  0.615  0.801- 321 3.22 325 3.22
 290  0.365  0.385  0.801- 321 3.22 322 3.22
 291  0.365  0.885  0.801- 320 3.22 323 3.22
 292  0.865  0.385  0.801- 319 3.22 324 3.22
 293  0.865  0.885  0.801- 318 3.22 325 3.22
 294  0.115  0.365  0.801- 319 3.23 322 3.23
 295  0.115  0.865  0.801- 318 3.23 323 3.23
 296  0.615  0.365  0.801- 321 3.23 324 3.23
 297  0.615  0.865  0.801- 320 3.23 325 3.23
 298  0.385  0.135  0.801- 320 3.23 322 3.23
 299  0.385  0.635  0.801- 321 3.23 323 3.23
 300  0.885  0.135  0.801- 318 3.23 324 3.23
 301  0.885  0.635  0.801- 319 3.23 325 3.23
 302  1.000  0.007  0.605- 238 3.12 260 3.16 255 3.20 246 3.21 253 3.24 232 3.30
 303  0.008  0.503  0.605- 247 3.14 239 3.15 233 3.18 254 3.25 261 3.32 252 3.39
 304  0.502  0.994  0.604- 230 3.16 251 3.16 240 3.16 257 3.19 258 3.27 248 3.29
 305  0.497  0.500  0.604- 231 3.15 250 3.16 256 3.19 241 3.21 249 3.25 259 3.26
 306  0.254  0.252  0.606- 242 3.13 234 3.16 250 3.19 254 3.19 246 3.22 258 3.29
 307  0.244  0.757  0.604- 255 3.12 243 3.13 251 3.20 247 3.22 259 3.28 235 3.32
 308  0.750  0.252  0.606- 244 3.08 256 3.22 248 3.23 260 3.23 236 3.24 252 3.25
 309  0.749  0.758  0.603- 257 3.09 253 3.16 245 3.17 237 3.30 249 3.36 261 3.46
 310  0.000  0.000  0.705- 262 3.13 238 3.15 270 3.20 277 3.20 279 3.21 284 3.21
 311  0.000  0.500  0.705- 239 3.09 263 3.13 271 3.20 276 3.20 278 3.21 285 3.21
 312  0.500  0.000  0.705- 240 3.13 264 3.13 272 3.20 275 3.20 281 3.21 282 3.21
 313  0.500  0.500  0.705- 241 3.11 265 3.13 273 3.20 274 3.20 280 3.21 283 3.21
 314  0.250  0.250  0.705- 242 3.09 266 3.13 270 3.20 274 3.20 282 3.21 278 3.21
 315  0.250  0.750  0.705- 267 3.13 243 3.18 271 3.20 275 3.20 283 3.21 279 3.21
 316  0.750  0.250  0.705- 244 3.08 268 3.13 272 3.20 276 3.20 284 3.21 280 3.21
 317  0.750  0.750  0.705- 269 3.13 245 3.20 273 3.20 277 3.20 285 3.21 281 3.21
 318  0.000  0.000  0.807- 286 3.22 293 3.22 300 3.23 295 3.23 262 3.27
 319  0.000  0.500  0.807- 287 3.22 292 3.22 301 3.23 294 3.23 263 3.27
 320  0.500  0.000  0.807- 288 3.22 291 3.22 298 3.23 297 3.23 264 3.27
 321  0.500  0.500  0.807- 289 3.22 290 3.22 299 3.23 296 3.23 265 3.27
 322  0.250  0.250  0.807- 290 3.22 286 3.22 294 3.23 298 3.23 266 3.27
 323  0.250  0.750  0.807- 291 3.22 287 3.22 299 3.23 295 3.23 267 3.27
 324  0.750  0.250  0.807- 292 3.22 288 3.22 296 3.23 300 3.23 268 3.27
 325  0.750  0.750  0.807- 293 3.22 289 3.22 297 3.23 301 3.23 269 3.27
 

IMPORTANT INFORMATION: All symmetrisations will be switched off!
NOSYMM: (Re-)initialisation of all symmetry stuff for point group C_1.


----------------------------------------------------------------------------------------

                                     Primitive cell                                     

  volume of cell :   20385.2105

  direct lattice vectors                    reciprocal lattice vectors
    18.060800552  0.000000000  0.000000000     0.055368531  0.000015077 -0.000000000
    -0.004918649 18.062799454  0.000000000     0.000000000  0.055362404  0.000000000
     0.000000000  0.000000000 62.487499237     0.000000000 -0.000000000  0.016003201

  length of vectors
    18.060800552 18.062800123 62.487499237     0.055368533  0.055362404  0.016003201

  position of ions in fractional coordinates (direct lattice)
     0.416805772  0.265155686  0.571457621
     0.409441680  0.713606411  0.573880286
     0.924235128  0.281450404  0.581279959
     0.934951535  0.812828554  0.574767182
     0.323211002  0.084027980  0.569707943
     0.313899631  0.579342065  0.570640685
     0.799527353  0.087549949  0.573801291
     0.108652909  0.237330082  0.564026203
     0.082762518  0.677967276  0.569085137
     0.602038005  0.194893968  0.566002795
     0.601505813  0.735902670  0.559842505
     0.379032257  0.016409539  0.557617756
     0.252694011  0.622193208  0.553122899
     0.872584827  0.037210897  0.562136055
     0.060698541  0.284703534  0.583422722
     0.998135563  0.690839672  0.581808019
     0.514587594  0.171908871  0.575634665
     0.544228678  0.683867683  0.576402031
     0.300931714  0.442652455  0.575747969
     0.186644625  0.058781788  0.570286672
     0.674640417  0.027438780  0.572399338
     0.444710635  0.350409642  0.560248592
     0.381522535  0.783472028  0.556666333
     0.883480276  0.229614517  0.561019132
     0.981434718  0.873359272  0.557947900
     0.228437903  0.399872826  0.562149241
     0.155496774  0.983009755  0.555920273
     0.672437395  0.938426877  0.560872069
     0.562399489  0.309474632  0.553600351
     0.505581924  0.806029793  0.545780061
     0.000601473  0.194813201  0.546789968
     0.078848139  0.791392792  0.551646957
     0.187909082  0.510145923  0.546631306
     0.276135275  0.944165334  0.547498361
     0.796364504  0.938367941  0.552803255
     0.455046502  0.286020335  0.676529540
     0.434226407  0.816888591  0.671249126
     0.966423291  0.279784055  0.679873227
     0.923293562  0.756024033  0.671603445
     0.299567470  0.045524987  0.674413700
     0.312267160  0.551049465  0.673107408
     0.792480642  0.056629800  0.675348335
     0.819434108  0.524297503  0.673309963
     0.087175200  0.168066558  0.646202552
     0.100114931  0.689355793  0.651684483
     0.576088487  0.171601589  0.643310066
     0.568889783  0.676310431  0.654794053
     0.181147497  0.412334061  0.652983693
     0.163630076  0.925952106  0.647037008
     0.651358920  0.447629747  0.649930592
     0.674050399  0.917732533  0.649762895
     0.067526701  0.183741259  0.673125539
     0.028722819  0.664907130  0.669011618
     0.546355442  0.180319875  0.669725689
     0.531090200  0.715451110  0.677861227
     0.218893741  0.443108099  0.677047405
     0.186781576  0.952501296  0.673026276
     0.705519450  0.441759752  0.672927074
     0.695686379  0.950853661  0.675227400
     0.436125219  0.341168856  0.654544125
     0.415490325  0.834397788  0.644221565
     0.928001681  0.320072610  0.657047189
     0.931822724  0.835382782  0.656104251
     0.339141300  0.063753767  0.649664120
     0.323102713  0.583530665  0.646925169
     0.825868518  0.080802779  0.649957758
     0.832689017  0.578991118  0.650440826
     0.000503780  0.253077393  0.634032332
     0.043563436  0.798505540  0.641269131
     0.511722692  0.273532438  0.631387455
     0.499377752  0.748178928  0.631784690
     0.257392911  0.990375266  0.630594022
     0.243009674  0.498654028  0.632223315
     0.755604500  0.995581038  0.632061479
     0.724929201  0.535844202  0.633945278
     0.448745018  0.301283966  0.768889017
     0.448745007  0.801283913  0.768889017
     0.948744965  0.301283966  0.768889017
     0.948745007  0.801283913  0.768889017
     0.301275995  0.051294496  0.768872961
     0.301276011  0.551294499  0.768872961
     0.801275943  0.051294496  0.768872961
     0.801275984  0.551294499  0.768872961
     0.078771004  0.171180501  0.743441971
     0.078771006  0.671180448  0.743441971
     0.578771004  0.171180501  0.743441971
     0.578770992  0.671180448  0.743441971
     0.171199499  0.421174482  0.743421032
     0.171199501  0.921174508  0.743421032
     0.671199512  0.421174482  0.743421032
     0.671199501  0.921174508  0.743421032
     0.051256000  0.198714991  0.768889017
     0.051256002  0.698714925  0.768889017
     0.551256027  0.198714991  0.768889017
     0.551256016  0.698714925  0.768889017
     0.198723491  0.448703970  0.768872046
     0.198723493  0.948703970  0.768872046
     0.698723518  0.448703970  0.768872046
     0.698723507  0.948703970  0.768872046
     0.421231519  0.328817467  0.743441971
     0.421231508  0.828817440  0.743441971
     0.921231466  0.328817467  0.743441971
     0.921231508  0.828817440  0.743441971
     0.328800503  0.078824997  0.743421032
     0.328800492  0.578824964  0.743421032
     0.828800477  0.078824997  0.743421032
     0.828800519  0.578824964  0.743421032
     0.000003500  0.250001478  0.725821992
     0.000003500  0.750001452  0.725821992
     0.500003506  0.250001478  0.725821992
     0.500003495  0.750001452  0.725821992
     0.250000502  0.000000000  0.725803983
     0.250000517  0.500000000  0.725803983
     0.750000502  0.000000000  0.725803983
     0.750000490  0.500000000  0.725803983
     0.797286080  0.511103990  0.515714966
     0.877773915  0.502075319  0.532323085
     0.761760471  0.626405145  0.534423236
     0.767155595  0.629026076  0.562506429
     0.684452989  0.451219991  0.552398084
     0.671366164  0.544502972  0.560400112
     0.800305591  0.427706006  0.568469841
     0.867601508  0.499886749  0.569539086
     0.860213111  0.377084598  0.539776602
     0.763700316  0.377649481  0.535063990
     0.778890821  0.380873942  0.496782865
     0.871189892  0.411910808  0.498145686
     0.898035914  0.616896595  0.531011543
     0.910151265  0.606814557  0.558942545
     0.873010124  0.690487829  0.548203886
     0.599836897  0.518136750  0.528628804
     0.676932259  0.488933285  0.513729705
     0.668469599  0.584540421  0.520980057
     0.714039669  0.500112723  0.591264317
     0.776258499  0.577627037  0.591848785
     0.802200275  0.492999341  0.603378435
     0.824029196  0.258151939  0.513986165
     0.844892487  0.274547315  0.486779124
     0.927007869  0.163276896  0.498340061
     0.971327981  0.389291797  0.516826211
     0.060388022  0.133729770  0.502445954
     0.103486252  0.359715976  0.520897216
     0.150385192  0.232495502  0.512927238
     0.996880781  0.230698084  0.560929942
     0.032281401  0.774611464  0.561736011
     0.522876437  0.271978892  0.561156916
     0.492722015  0.761331681  0.556964732
     0.236859698  0.510386998  0.556936589
     0.268251320  0.996165041  0.556021673
     0.772652517  0.986937240  0.560632519
     0.007671205  0.243716255  0.651138536
     0.016128913  0.762375333  0.653032836
     0.506220169  0.256770223  0.648342201
     0.492723964  0.755888132  0.649240879
     0.252211253  0.497320886  0.649649286
     0.250675349  0.994538887  0.648176396
     0.741073116  0.513434111  0.649588361
     0.750250125  0.998721153  0.649664243
     0.499988984  0.249994984  0.743277021
     0.499989025  0.749994958  0.743277021
     0.999988984  0.249994984  0.743277021
     0.999989025  0.749994958  0.743277021
     0.250000502  0.000001000  0.743255960
     0.250000517  0.500001003  0.743255960
     0.750000502  0.000001000  0.743255960
     0.750000491  0.500001003  0.743255960
     0.939419248  0.278100917  0.506960651
     0.965566824  0.206358871  0.503295276
     0.990353797  0.332913037  0.513440524
     0.040833261  0.189482824  0.505801850
     0.065650891  0.316153700  0.515608011
     0.091238971  0.244448190  0.511598664
     0.819938921  0.484980849  0.530374026
     0.793221033  0.605457762  0.548162129
     0.694891829  0.509392923  0.547797616
     0.807785710  0.488470460  0.569662401
     0.816933616  0.399895318  0.529207655
     0.831013629  0.374690724  0.505911003
     0.873590221  0.629981661  0.546610427
     0.659591413  0.527116847  0.526393737
     0.771521443  0.517337182  0.589857114
     0.857140547  0.293789675  0.503238990
     0.058665231  0.249983369  0.570333129
     0.036190241  0.708702983  0.570577440
     0.546846996  0.206517079  0.566956049
     0.548056001  0.720959864  0.563935365
     0.455134432  0.295758211  0.563529156
     0.423291295  0.752035483  0.562809102
     0.930889059  0.252167346  0.567371599
     0.975242373  0.819967964  0.563343511
     0.256754036  0.447352243  0.565601653
     0.200034327  0.014540298  0.560623789
     0.701205976  0.986488083  0.564057582
     0.326220751  0.036234615  0.560735994
     0.271050985  0.573353485  0.560072593
     0.816751804  0.041551954  0.565625766
     0.057150840  0.195287193  0.657360057
     0.049794890  0.701190609  0.658233217
     0.544442732  0.198714872  0.654265566
     0.533917981  0.713873145  0.661833180
     0.216045444  0.448365114  0.660963072
     0.197526664  0.956531965  0.657067823
     0.696909579  0.463906223  0.658157396
     0.704398489  0.953568070  0.659235615
     0.463255631  0.296776547  0.660803739
     0.444720962  0.805773777  0.655562456
     0.965218975  0.283178261  0.663570588
     0.952499707  0.785429027  0.660699653
     0.298179297  0.036434193  0.658397496
     0.299007264  0.546969840  0.657296384
     0.792280408  0.048669530  0.659242880
     0.802199640  0.539332388  0.658295608
     0.045862501  0.204119496  0.752725994
     0.045862500  0.704119456  0.752725994
     0.545862507  0.204119496  0.752725994
     0.545862496  0.704119456  0.752725994
     0.204119002  0.454101003  0.752704994
     0.204118991  0.954100951  0.752704994
     0.704118976  0.454101003  0.752704994
     0.704118964  0.954100951  0.752704994
     0.454140018  0.295888490  0.752726971
     0.454140007  0.795888516  0.752726971
     0.954140018  0.295888490  0.752726971
     0.954140060  0.795888516  0.752726971
     0.295882492  0.045900498  0.752704994
     0.295882481  0.545900528  0.752704994
     0.795882439  0.045900498  0.752704994
     0.795882481  0.545900528  0.752704994
     0.778543509  0.521942039  0.548851476
     0.508996395  0.978444691  0.553951678
     0.459166706  0.491723063  0.554555437
     0.005028232  0.011713401  0.552161037
     0.036421046  0.495476451  0.554943332
     0.253197867  0.244222347  0.555153518
     0.234894393  0.774330264  0.551018047
     0.739869075  0.220996546  0.555493124
     0.719219883  0.796668813  0.552054448
     0.994082434  0.987074355  0.654620312
     0.003468165  0.501475009  0.655437004
     0.497354903  0.004232022  0.654751930
     0.496239506  0.502621776  0.655041783
     0.261113107  0.237103792  0.655600794
     0.247548964  0.753449881  0.653891651
     0.741716662  0.256637252  0.655684978
     0.752464058  0.746500595  0.653633786
     0.142515680  0.112764845  0.609079099
     0.143628048  0.610800678  0.609534756
     0.643193111  0.108112285  0.608949190
     0.613684220  0.633751892  0.611332662
     0.366829897  0.385713248  0.611578073
     0.364670299  0.885901524  0.607171429
     0.889480643  0.361203313  0.614527454
     0.865817349  0.887934236  0.606824070
     0.123312729  0.368147426  0.612906769
     0.118419643  0.875440980  0.606661440
     0.619620740  0.372687500  0.604033045
     0.620799885  0.867259289  0.612252463
     0.400800818  0.144503999  0.604400795
     0.375901940  0.632815103  0.607074120
     0.884218203  0.135374221  0.612931310
     0.907260989  0.655209776  0.612395008
     0.000000000  0.000000000  0.754927972
     0.000000000  0.500000000  0.754927972
     0.500000000  0.000000000  0.754927972
     0.499999989  0.500000000  0.754927972
     0.250000496  0.250000000  0.754939022
     0.250000511  0.749999974  0.754939022
     0.750000470  0.250000000  0.754939022
     0.750000458  0.749999974  0.754939022
     0.135790500  0.114209997  0.704782994
     0.135790502  0.614209984  0.704782994
     0.635790447  0.114209997  0.704782994
     0.635790488  0.614209984  0.704782994
     0.364209516  0.385789989  0.704782994
     0.364209505  0.885789963  0.704782994
     0.864209542  0.385789989  0.704782994
     0.864209531  0.885789963  0.704782994
     0.114217990  0.364218986  0.704780979
     0.114217992  0.864218986  0.704780979
     0.614218004  0.364218986  0.704780979
     0.614217992  0.864218986  0.704780979
     0.385782012  0.135781489  0.704782017
     0.385782001  0.635781489  0.704782017
     0.885781985  0.135781489  0.704782017
     0.885782027  0.635781489  0.704782017
     0.134667000  0.115332001  0.801256025
     0.134666989  0.615331988  0.801256025
     0.634666987  0.115332001  0.801256025
     0.634666976  0.615331988  0.801256025
     0.365333002  0.384667985  0.801256025
     0.365332990  0.884667959  0.801256025
     0.865332949  0.384667985  0.801256025
     0.865332938  0.884667959  0.801256025
     0.115328503  0.365337004  0.801264999
     0.115328505  0.865336978  0.801264999
     0.615328503  0.365337004  0.801264999
     0.615328492  0.865336978  0.801264999
     0.384671513  0.134662996  0.801264999
     0.384671501  0.634662970  0.801264999
     0.884671486  0.134662996  0.801264999
     0.884671528  0.634662970  0.801264999
     0.999932630  0.007259247  0.604987033
     0.007502209  0.503358620  0.605100092
     0.501684721  0.994466481  0.604207336
     0.497130303  0.499521283  0.603722009
     0.253790392  0.251554708  0.605742921
     0.243926434  0.756859504  0.603807964
     0.749856420  0.251543541  0.606449789
     0.749070346  0.758419148  0.602986816
     0.000000500  0.000000500  0.704828963
     0.000000500  0.500000475  0.704828963
     0.500000475  0.000000500  0.704828963
     0.500000464  0.500000475  0.704828963
     0.249999994  0.249999472  0.704824995
     0.250000010  0.749999498  0.704824995
     0.749999994  0.249999472  0.704824995
     0.749999983  0.749999498  0.704824995
     0.000000000  0.000000000  0.807317968
     0.000000000  0.500000000  0.807317968
     0.500000000  0.000000000  0.807317968
     0.499999989  0.500000000  0.807317968
     0.249999994  0.250000000  0.807317968
     0.250000010  0.749999974  0.807317968
     0.749999994  0.250000000  0.807317968
     0.749999983  0.749999974  0.807317968

  ion indices of the primitive-cell ions
   primitive index   ion index
                 1           1
                 2           2
                 3           3
                 4           4
                 5           5
                 6           6
                 7           7
                 8           8
                 9           9
                10          10
                11          11
                12          12
                13          13
                14          14
                15          15
                16          16
                17          17
                18          18
                19          19
                20          20
                21          21
                22          22
                23          23
                24          24
                25          25
                26          26
                27          27
                28          28
                29          29
                30          30
                31          31
                32          32
                33          33
                34          34
                35          35
                36          36
                37          37
                38          38
                39          39
                40          40
                41          41
                42          42
                43          43
                44          44
                45          45
                46          46
                47          47
                48          48
                49          49
                50          50
                51          51
                52          52
                53          53
                54          54
                55          55
                56          56
                57          57
                58          58
                59          59
                60          60
                61          61
                62          62
                63          63
                64          64
                65          65
                66          66
                67          67
                68          68
                69          69
                70          70
                71          71
                72          72
                73          73
                74          74
                75          75
                76          76
                77          77
                78          78
                79          79
                80          80
                81          81
                82          82
                83          83
                84          84
                85          85
                86          86
                87          87
                88          88
                89          89
                90          90
                91          91
                92          92
                93          93
                94          94
                95          95
                96          96
                97          97
                98          98
                99          99
               100         100
               101         101
               102         102
               103         103
               104         104
               105         105
               106         106
               107         107
               108         108
               109         109
               110         110
               111         111
               112         112
               113         113
               114         114
               115         115
               116         116
               117         117
               118         118
               119         119
               120         120
               121         121
               122         122
               123         123
               124         124
               125         125
               126         126
               127         127
               128         128
               129         129
               130         130
               131         131
               132         132
               133         133
               134         134
               135         135
               136         136
               137         137
               138         138
               139         139
               140         140
               141         141
               142         142
               143         143
               144         144
               145         145
               146         146
               147         147
               148         148
               149         149
               150         150
               151         151
               152         152
               153         153
               154         154
               155         155
               156         156
               157         157
               158         158
               159         159
               160         160
               161         161
               162         162
               163         163
               164         164
               165         165
               166         166
               167         167
               168         168
               169         169
               170         170
               171         171
               172         172
               173         173
               174         174
               175         175
               176         176
               177         177
               178         178
               179         179
               180         180
               181         181
               182         182
               183         183
               184         184
               185         185
               186         186
               187         187
               188         188
               189         189
               190         190
               191         191
               192         192
               193         193
               194         194
               195         195
               196         196
               197         197
               198         198
               199         199
               200         200
               201         201
               202         202
               203         203
               204         204
               205         205
               206         206
               207         207
               208         208
               209         209
               210         210
               211         211
               212         212
               213         213
               214         214
               215         215
               216         216
               217         217
               218         218
               219         219
               220         220
               221         221
               222         222
               223         223
               224         224
               225         225
               226         226
               227         227
               228         228
               229         229
               230         230
               231         231
               232         232
               233         233
               234         234
               235         235
               236         236
               237         237
               238         238
               239         239
               240         240
               241         241
               242         242
               243         243
               244         244
               245         245
               246         246
               247         247
               248         248
               249         249
               250         250
               251         251
               252         252
               253         253
               254         254
               255         255
               256         256
               257         257
               258         258
               259         259
               260         260
               261         261
               262         262
               263         263
               264         264
               265         265
               266         266
               267         267
               268         268
               269         269
               270         270
               271         271
               272         272
               273         273
               274         274
               275         275
               276         276
               277         277
               278         278
               279         279
               280         280
               281         281
               282         282
               283         283
               284         284
               285         285
               286         286
               287         287
               288         288
               289         289
               290         290
               291         291
               292         292
               293         293
               294         294
               295         295
               296         296
               297         297
               298         298
               299         299
               300         300
               301         301
               302         302
               303         303
               304         304
               305         305
               306         306
               307         307
               308         308
               309         309
               310         310
               311         311
               312         312
               313         313
               314         314
               315         315
               316         316
               317         317
               318         318
               319         319
               320         320
               321         321
               322         322
               323         323
               324         324
               325         325

----------------------------------------------------------------------------------------

 
 
 KPOINTS: Automatic Mesh                          

Automatic generation of k-mesh.
 Grid dimensions read from file:
 generate k-points for:    3    3    1

 Generating k-lattice:

  Cartesian coordinates                     Fractional coordinates (reciprocal lattice)
     0.018456177  0.000005026 -0.000000000     0.333333333  0.000000000  0.000000000
     0.000000000  0.018454135  0.000000000     0.000000000  0.333333333  0.000000000
     0.000000000 -0.000000000  0.016003201     0.000000000  0.000000000  1.000000000

  Length of vectors
     0.018456178  0.018454135  0.016003201

  Shift w.r.t. Gamma in fractional coordinates (k-lattice)
     0.000000000  0.000000000  0.000000000

 
 Subroutine IBZKPT returns following result:
 ===========================================
 
 Found      5 irreducible k-points:
 
 Following reciprocal coordinates:
            Coordinates               Weight
  0.000000  0.000000  0.000000      1.000000
  0.333333  0.000000  0.000000      2.000000
  0.000000  0.333333  0.000000      2.000000
  0.333333  0.333333  0.000000      2.000000
 -0.333333  0.333333  0.000000      2.000000
 
 Following cartesian coordinates:
            Coordinates               Weight
  0.000000  0.000000  0.000000      1.000000
  0.018456  0.000005  0.000000      2.000000
  0.000000  0.018454  0.000000      2.000000
  0.018456  0.018459  0.000000      2.000000
 -0.018456  0.018449  0.000000      2.000000
 


--------------------------------------------------------------------------------------------------------




 Dimension of arrays:
   k-points           NKPTS =      5   k-points in BZ     NKDIM =      5   number of bands    NBANDS=    732
   number of dos      NEDOS =    301   number of ions     NIONS =    325
   non local maximal  LDIM  =      5   non local SUM 2l+1 LMDIM =     13
   total plane-waves  NPLWV = ******
   max r-space proj   IRMAX =   3336   max aug-charges    IRDMAX=  19845
   dimension x,y,z NGX =   100 NGY =  100 NGZ =  350
   dimension x,y,z NGXF=   200 NGYF=  200 NGZF=  700
   support grid    NGXF=   200 NGYF=  200 NGZF=  700
   ions per type =             143  39  47  72  24
   NGX,Y,Z   is equivalent  to a cutoff of   9.20,  9.20,  9.31 a.u.
   NGXF,Y,Z  is equivalent  to a cutoff of  18.41, 18.41, 18.62 a.u.

 SYSTEM =  PSC                                     
 POSCAR =   H  C  N  I Pb                          

 Startparameter for this run:
   NWRITE =      2    write-flag & timer
   PREC   = normal    normal or accurate (medium, high low for compatibility)
   ISTART =      0    job   : 0-new  1-cont  2-samecut
   ICHARG =      1    charge: 1-file 2-atom 10-const
   ISPIN  =      1    spin polarized calculation?
   LNONCOLLINEAR =      F non collinear calculations
   LSORBIT =      F    spin-orbit coupling
   INIWAV =      1    electr: 0-lowe 1-rand  2-diag
   LASPH  =      F    aspherical Exc in radial PAW
 Electronic Relaxation 1
   ENCUT  =  500.0 eV  36.75 Ry    6.06 a.u.  32.93 32.93113.93*2*pi/ulx,y,z
   ENINI  =  500.0     initial cutoff
   ENAUG  =  644.9 eV  augmentation charge cutoff
   NELM   =    600;   NELMIN=  2; NELMDL=  0     # of ELM steps 
   EDIFF  = 0.1E-03   stopping-criterion for ELM
   LREAL  =      T    real-space projection
   NLSPLINE    = F    spline interpolate recip. space projectors
   LCOMPAT=      F    compatible to vasp.4.4
   GGA_COMPAT  = F    GGA compatible to vasp.4.4-vasp.4.6
   LMAXPAW     = -100 max onsite density
   LMAXMIX     =    2 max onsite mixed and CHGCAR
   VOSKOWN=      0    Vosko Wilk Nusair interpolation
   ROPT   =   -0.00050  -0.00050  -0.00050  -0.00050
   ROPT   =   -0.00050
 Ionic relaxation
   EDIFFG = 0.1E-02   stopping-criterion for IOM
   NSW    =      0    number of steps for IOM
   NBLOCK =      1;   KBLOCK =      1    inner block; outer block 
   IBRION =     -1    ionic relax: 0-MD 1-quasi-New 2-CG
   NFREE  =      0    steps in history (QN), initial steepest desc. (CG)
   ISIF   =      2    stress and relaxation
   IWAVPR =     10    prediction:  0-non 1-charg 2-wave 3-comb
   ISYM   =      0    0-nonsym 1-usesym 2-fastsym
   LCORR  =      T    Harris-Foulkes like correction to forces

   POTIM  = 0.5000    time-step for ionic-motion
   TEIN   =    0.0    initial temperature
   TEBEG  =    0.0;   TEEND  =   0.0 temperature during run
   SMASS  =  -3.00    Nose mass-parameter (am)
   estimated Nose-frequenzy (Omega)   =  0.10E-29 period in steps = 0.13E+47 mass=  -0.745E-26a.u.
   SCALEE = 1.0000    scale energy and forces
   NPACO  =    256;   APACO  = 16.0  distance and # of slots for P.C.
   PSTRESS=    0.0 pullay stress

  Mass of Ions in am
   POMASS =   1.00 12.01 14.00126.90207.20
  Ionic Valenz
   ZVAL   =   1.00  4.00  5.00  7.00  4.00
  Atomic Wigner-Seitz radii
   RWIGS  =  -1.00 -1.00 -1.00 -1.00 -1.00
  virtual crystal weights 
   VCA    =   1.00  1.00  1.00  1.00  1.00
   NELECT =    1134.0000    total number of electrons
   NUPDOWN=      -1.0000    fix difference up-down

 DOS related values:
   EMIN   =  10.00;   EMAX   =-10.00  energy-range for DOS
   EFERMI =   0.00
   ISMEAR =     0;   SIGMA  =   0.05  broadening in eV -4-tet -1-fermi 0-gaus

 Electronic relaxation 2 (details)
   IALGO  =     38    algorithm
   LDIAG  =      T    sub-space diagonalisation (order eigenvalues)
   LSUBROT=      F    optimize rotation matrix (better conditioning)
   TURBO    =      0    0=normal 1=particle mesh
   IRESTART =      0    0=no restart 2=restart with 2 vectors
   NREBOOT  =      0    no. of reboots
   NMIN     =      0    reboot dimension
   EREF     =   0.00    reference energy to select bands
   IMIX   =      4    mixing-type and parameters
     AMIX     =   0.40;   BMIX     =  0.01
     AMIX_MAG =   1.60;   BMIX_MAG =  0.01
     AMIN     =   0.01
     WC   =   100.;   INIMIX=   1;  MIXPRE=   1;  MAXMIX= -45

 Intra band minimization:
   WEIMIN = 0.0000     energy-eigenvalue tresh-hold
   EBREAK =  0.34E-07  absolut break condition
   DEPER  =   0.30     relativ break condition  

   TIME   =   0.40     timestep for ELM

  volume/ion in A,a.u.               =      62.72       423.28
  Fermi-wavevector in a.u.,A,eV,Ry     =   0.624944  1.180972  5.313816  0.390554
  Thomas-Fermi vector in A             =   1.685677
 
 Write flags
   LWAVE        =      F    write WAVECAR
   LDOWNSAMPLE  =      F    k-point downsampling of WAVECAR
   LCHARG       =      T    write CHGCAR
   LVTOT        =      T    write LOCPOT, total local potential
   LVHAR        =      F    write LOCPOT, Hartree potential only
   LELF         =      F    write electronic localiz. function (ELF)
   LORBIT       =      0    0 simple, 1 ext, 2 COOP (PROOUT), +10 PAW based schemes


 Dipole corrections
   LMONO  =      F    monopole corrections only (constant potential shift)
   LDIPOL =      T    correct potential (dipole corrections)
   IDIPOL =      3    1-x, 2-y, 3-z, 4-all directions 
   EPSILON=  1.0000000 bulk dielectric constant

 Exchange correlation treatment:
   GGA     =    --    GGA type
   LEXCH   =     8    internal setting for exchange type
   VOSKOWN=      0    Vosko Wilk Nusair interpolation
   LHFCALC =     F    Hartree Fock is set to
   LHFONE  =     F    Hartree Fock one center treatment
   AEXX    =    0.0000 exact exchange contribution

 Linear response parameters
   LEPSILON=     F    determine dielectric tensor
   LRPA    =     F    only Hartree local field effects (RPA)
   LNABLA  =     F    use nabla operator in PAW spheres
   LVEL    =     F    velocity operator in full k-point grid
   LINTERFAST=   F  fast interpolation
   KINTER  =     0    interpolate to denser k-point grid
   CSHIFT  =0.1000    complex shift for real part using Kramers Kronig
   OMEGAMAX=  -1.0    maximum frequency
   DEG_THRESHOLD= 0.2000000E-02 threshold for treating states as degnerate
   RTIME   =   -0.100 relaxation time in fs
  (WPLASMAI=    0.000 imaginary part of plasma frequency in eV, 0.658/RTIME)
   DFIELD  = 0.0000000 0.0000000 0.0000000 field for delta impulse in time
 
 Orbital magnetization related:
   ORBITALMAG=     F  switch on orbital magnetization
   LCHIMAG   =     F  perturbation theory with respect to B field
   DQ        =  0.001000  dq finite difference perturbation B field
   LLRAUG    =     F  two centre corrections for induced B field



--------------------------------------------------------------------------------------------------------


 Static calculation
 charge density and potential will be updated during run
 non-spin polarized calculation
 Variant of blocked Davidson
 Davidson routine will perform the subspace rotation
 perform sub-space diagonalisation
    after iterative eigenvector-optimisation
 modified Broyden-mixing scheme, WC =      100.0
 initial mixing is a Kerker type mixing with AMIX =  0.4000 and BMIX =      0.0100
 Hartree-type preconditioning will be used
 using additional bands           165
 real space projection scheme for non local part
[...]
     13.54561      0.00000     45.35368         0.003661     -0.007046      0.012470
     13.54315      9.03140     45.35368        -0.010165      0.001781      0.009308
     14.39711      9.23197     32.22574         0.177592     -0.198634      0.228501
     15.85083      9.06889     33.26354         0.031113      0.030677     -0.068830
     13.75492     11.31463     33.39477         0.051021     -0.005240      0.039179
     13.85235     11.36197     35.14962        -0.013106     -0.144910     -0.071870
     12.35955      8.15030     34.51797         0.116383      0.231910     -0.051950
     12.12273      9.83525     35.01800         0.003641     -0.014787      0.028081
     14.45206      7.72557     35.52226         0.007396      0.376104     -0.047126
     15.66712      9.02935     35.58907        -0.015886     -0.080850     -0.000943
     15.53428      6.81120     33.72929        -0.111210      0.016216     -0.051321
     13.79118      6.82141     33.43481         0.147524      0.012709     -0.141380
     14.06552      6.87965     31.04272         0.122870      0.062219      0.090909
     15.73236      7.44026     31.12788         0.028257      0.023473      0.014676
     16.21621     11.14288     33.18158         0.030626      0.035682     -0.023727
     16.43508     10.96077     34.92692        -0.152543      0.036637      0.027085
     15.76387     12.47214     34.25589         0.006836      0.043695      0.034214
     10.83099      9.35900     33.03269        -0.036031      0.151336     -0.040867
     12.22353      8.83150     32.10168         0.094377     -0.016004     -0.063043
     12.07022     10.55844     32.55474        -0.081576     -0.175990      0.103910
     12.89367      9.03344     36.94663        -0.232179     -0.038155      0.048021
     14.01701     10.43356     36.98315        -0.037272     -0.152506     -0.101356
     14.48595      8.90495     37.70361        -0.094458     -0.031820     -0.116163
     14.88136      4.66295     32.11771         0.040949      0.013041     -0.074036
     15.25808      4.95909     30.41761        -0.077453      0.149546      0.180148
     16.74170      2.94924     31.14002        -0.064576     -0.092332     -0.018648
     17.54105      7.03170     32.29518         0.115676     -0.155307     -0.011002
      1.09000      2.41553     31.39659         0.006024     -0.133401      0.038775
      1.86728      6.49748     32.54956         0.002907     -0.080623     -0.054745
      2.71493      4.19952     32.05154        -0.108849     -0.061183      0.055612
     18.00333      4.16705     35.05111        -0.157077     -0.041517     -0.233776
      0.57922     13.99165     35.10148        -0.266463     -0.144787     -0.101153
      9.44223      4.91270     35.06529         0.382640      0.009428     -0.027313
      8.89521     13.75178     34.80333        -0.133959     -0.052544      0.126194
      4.27537      9.21902     34.80157        -0.043599     -0.052743     -0.099885
      4.83993     17.99353     34.74440        -0.018269      0.059086     -0.091335
     13.94987     17.82685     35.03252        -0.001777      0.055628     -0.024983
      0.13735      4.40220     40.68802         0.112926     -0.058719     -0.451307
      0.28755     13.77063     40.80639        -0.009370      0.746697     -0.334884
      9.14148      4.63799     40.51328         0.000134      0.199180     -0.451833
      8.89527     13.65346     40.56944         0.146735     -0.198444     -0.268588
      4.55269      8.98301     40.59496         0.446863      0.657249     -0.243650
      4.52251     17.96416     40.50292         0.349667      0.151098     -0.363615
     13.38185      9.27406     40.59115         0.124080      0.195955     -0.101276
     13.54521     18.03970     40.59589         0.546045      0.530390     -0.168970
      9.02897      4.51561     46.44552         0.012706      0.002077      0.035615
      9.02651     13.54701     46.44552         0.024505     -0.009005      0.049390
     18.05937      4.51561     46.44552         0.012340      0.003782      0.052068
     18.05691     13.54701     46.44552         0.017139      0.001972      0.019759
      4.51521      0.00002     46.44421        -0.002835     -0.004156      0.058451
      4.51275      9.03142     46.44421        -0.004919     -0.003444      0.039849
     13.54561      0.00002     46.44421        -0.002620     -0.005290      0.037159
     13.54315      9.03142     46.44421        -0.020877     -0.017271      0.033691
     16.96530      5.02328     31.67870        -0.285465      0.531625      0.146872
     17.43789      3.72742     31.44966         0.384252     -0.073323      0.140478
     17.88494      6.01334     32.08361        -0.213371     -0.179440     -0.110139
      0.73655      3.42259     31.60629        -0.177543     -0.018521     -0.234768
      1.18415      5.71062     32.21906        -0.144504      0.092255      0.090782
      1.64665      4.41542     31.96852         0.147919      0.233045      0.035706
     14.80637      8.76011     33.14175        -0.328025      0.059888     -0.168271
     14.32323     10.93626     34.25328        -0.071926     -0.050938      0.009506
     12.54780      9.20106     34.23050         0.164992     -0.036548     -0.074828
     14.58685      8.82314     35.59678         0.080040     -0.063503      0.121669
     14.75251      7.22323     33.06886         0.047838      0.210509     -0.000566
     15.00693      6.76796     31.61311        -0.168976     -0.253491     -0.132348
     15.77464     11.37923     34.15632        -0.109100     -0.117216     -0.106078
     11.91016      9.52121     32.89303        -0.119564     -0.129661     -0.007202
     13.93175      9.34456     36.85870         0.363261      0.134460     -0.003023
     15.47920      5.30666     31.44615         0.214203      0.108505      0.100054
      1.05831      4.51540     35.63869        -0.271125      0.377815      0.415044
      0.65014     12.80116     35.65396        -0.256052      0.294446      0.110647
      9.87548      3.73028     35.42767         0.119958      0.076219     -0.152813
      9.89478     13.02255     35.23891         0.199886     -0.115959      0.151381
      8.21864      5.34222     35.21353        -0.068762      0.168864     -0.038497
      7.64128     13.58387     35.16853         0.527852      0.411992     -0.538976
     16.81136      4.55485     35.45363         0.008865     -0.318887     -0.157677
     17.60962     14.81092     35.20193         0.126420     -0.177346      0.181534
      4.63498      8.08043     35.34303        -0.149377     -0.135658     -0.066331
      3.61271      0.26264     35.03198        -0.844118      0.051804      0.160447
     12.65949     17.81874     35.24655        -0.437655     -0.443690      0.035304
      5.89163      0.65450     35.03899         0.370584      0.197410      0.200570
      4.89258     10.35637     34.99754        -0.119085      0.871198     -0.309605
     14.75099      0.75054     35.34454         0.591664      0.261547      0.034590
      1.03123      3.52743     41.07679        -0.296587      0.224404      0.342453
      0.89589     12.66547     41.13135         0.103426     -0.179577      0.030834
      9.83209      3.58935     40.88342        -0.083750      0.082991      0.341099
      9.63947     12.89455     41.35630        -0.108324      0.077716     -1.135874
      3.89975      8.09873     41.30193        -0.551927     -0.549271     -0.679373
      3.56278     17.27765     41.05853        -0.782962     -0.672645     -0.598473
     12.58446      8.37945     41.12661         0.361022      0.205835     -0.058083
     12.71731     17.22411     41.19398        -0.335626     -0.453315     -0.732441
      8.36531      5.36062     41.29197         0.151394     -0.051904     -0.421160
      8.02805     14.55453     40.96446         0.194367     -0.240806     -0.155467
     17.43123      5.11499     41.46487        -0.545421      0.494926      0.466216
     17.19904     14.18705     41.28547         0.164932     -0.004869     -0.125822
      5.38518      0.65810     41.14161         0.999866      0.694545     -0.871123
      5.39762      9.87981     41.07281        -0.360915     -0.297291     -0.254797
     14.30898      0.87911     41.19444        -0.380178     -0.434826     -0.317952
     14.48571      9.74185     41.13525        -0.016718      0.070976     -0.033042
      0.82731      3.68697     47.03596         0.018752     -0.024379     -0.101233
      0.82485     12.71837     47.03596         0.018480     -0.020509     -0.070600
      9.85771      3.68697     47.03596         0.020127     -0.022819     -0.089753
      9.85525     12.71837     47.03596         0.010350     -0.010947     -0.085540
      3.68432      8.20234     47.03465        -0.009833     -0.012251     -0.071686
      3.68186     17.23373     47.03465        -0.006995     -0.006279     -0.069310
     12.71472      8.20234     47.03465         0.002028     -0.002817     -0.068569
     12.71226     17.23373     47.03465        -0.012474     -0.010593     -0.071961
      8.20068      5.34457     47.03603        -0.022801      0.019253     -0.094180
      8.19822     14.37597     47.03603        -0.028341      0.023970     -0.091701
     17.23108      5.34457     47.03603        -0.021274      0.017921     -0.105891
     17.22862     14.37597     47.03603        -0.022792      0.019273     -0.074164
      5.34365      0.82909     47.03465         0.009382      0.010598     -0.076217
      5.34119      9.86049     47.03465         0.014314      0.014232     -0.067359
     14.37405      0.82909     47.03465         0.013944      0.015456     -0.069138
     14.37159      9.86049     47.03465         0.027817      0.026418     -0.074818
     14.05855      9.42773     34.29636         0.220961     -0.315923      0.150401
      9.18807     17.67345     34.61506        -0.007126     -0.031193     -0.033481
      8.29050      8.88190     34.65278         0.140447      0.054873     -0.005418
      0.09076      0.21158     34.50316         0.006550      0.028460      0.017301
      0.65536      8.94969     34.67702        -0.152849     -0.046175      0.058643
      4.57175      4.41134     34.69016        -0.025827      0.001327      0.014700
      4.23857     13.98657     34.43174        -0.015559     -0.077247      0.053165
     13.36154      3.99182     34.71138        -0.003055      0.072697     -0.022405
     12.98577     14.39007     34.49650         0.158655     -0.198951      0.013050
     17.94907     17.82933     40.90559         0.036640      0.001553     -0.012886
      0.06017      9.05804     40.95662         0.009505     -0.003779      0.061732
      8.98261      0.07644     40.91381         0.002411     -0.000284      0.058025
      8.96001      9.07876     40.93192         0.038400     -0.016671     -0.087760
      4.71475      4.28276     40.96685         0.011390      0.022986     -0.009299
      4.46723     13.60941     40.86005        -0.027244     -0.005879      0.015549
     13.39473      4.63559     40.97211         0.002290      0.009842     -0.025999
     13.58643     13.48389     40.84394        -0.002766     -0.026513      0.066367
      2.57339      2.03685     38.05983        -0.022058     -0.012707     -0.025162
      2.59103     11.03277     38.08830         0.032514     -0.010380     -0.038291
     11.61605      1.95281     38.05171        -0.011191     -0.015456     -0.000305
     11.08051     11.44733     38.20065         0.104049     -0.014171     -0.141833
      6.62334      6.96706     38.21598        -0.026240     -0.042418      0.010376
      6.58188     16.00186     37.94062        -0.021329     -0.002182     -0.041755
     16.06296      6.52434     38.40028        -0.034235      0.168427     -0.184219
     15.63299     16.03858     37.91892        -0.044701     -0.019804     -0.022717
      2.22532      6.64977     38.29901         0.030780     -0.015314     -0.015112
      2.13445     15.81291     37.90876         0.001450     -0.013142      0.018233
     11.18901      6.73178     37.74451        -0.007985     -0.021634      0.004892
     11.20788     15.66513     38.25813        -0.094974      0.044665      0.015938
      7.23807      2.61015     37.76749        -0.048094     -0.004462      0.020889
      6.78598     11.43041     37.93454         0.064480      0.004479     -0.000570
     15.96902      2.44524     38.30054        -0.011817     -0.025721      0.016029
     16.38264     11.83492     38.26703        -0.026041     -0.098301     -0.206813
      0.00000      0.00000     47.17356         0.001021      0.003612      0.385287
     -0.00246      9.03140     47.17356        -0.004338     -0.002544      0.467892
      9.03040      0.00000     47.17356        -0.001388     -0.002629      0.444453
      9.02794      9.03140     47.17356        -0.003781      0.000652      0.461426
      4.51398      4.51570     47.17425        -0.001108     -0.005451      0.467805
      4.51152     13.54710     47.17425         0.002798      0.002413      0.352027
     13.54438      4.51570     47.17425         0.003193     -0.000557      0.448477
     13.54192     13.54710     47.17425         0.001077     -0.002984      0.361559
      2.45192      2.06295     44.04013         0.008271     -0.049612      0.001226
      2.44946     11.09435     44.04013         0.038624     -0.025144      0.005765
     11.48232      2.06295     44.04013        -0.023336     -0.003284     -0.081458
     11.47986     11.09435     44.04013        -0.005911      0.012349     -0.016744
      6.57602      6.96845     44.04013        -0.049004      0.008415     -0.012248
      6.57356     15.99985     44.04013         0.005933     -0.006892     -0.034850
     15.60642      6.96845     44.04013        -0.046690      0.057095     -0.053533
     15.60396     15.99985     44.04013        -0.049581      0.026405      0.010035
      2.06108      6.57881     44.04000        -0.001435     -0.052872     -0.010380
      2.05862     15.61021     44.04000         0.046123      0.055627     -0.019682
     11.09148      6.57881     44.04000         0.012486      0.017868     -0.011560
     11.08902     15.61021     44.04000        -0.016380     -0.010530     -0.022220
      6.96686      2.45259     44.04007         0.029751     -0.015803     -0.008968
      6.96440     11.48399     44.04007        -0.016336      0.016870     -0.037542
     15.99726      2.45259     44.04007         0.025008      0.020461     -0.024182
     15.99481     11.48399     44.04007         0.043028      0.029999     -0.081956
      2.43163      2.08322     50.06849         0.001956     -0.018139      0.019894
      2.42917     11.11462     50.06849         0.018039     -0.002940      0.022768
     11.46203      2.08322     50.06849         0.008678     -0.012725      0.021689
     11.45957     11.11462     50.06849         0.017078     -0.003090      0.022225
      6.59631      6.94818     50.06849        -0.010885      0.009363      0.022105
      6.59385     15.97958     50.06849        -0.015919      0.004655      0.021085
     15.62671      6.94818     50.06849        -0.010224      0.008341      0.020266
     15.62425     15.97958     50.06849        -0.010658      0.010861      0.022813
      2.08113      6.59901     50.06905        -0.011834     -0.010227      0.021455
      2.07867     15.63041     50.06905        -0.009013     -0.010506      0.021697
     11.11153      6.59901     50.06905        -0.008992     -0.011339      0.022613
     11.10907     15.63041     50.06905        -0.005186     -0.015939      0.021874
      6.94681      2.43239     50.06905         0.012461      0.005380      0.021607
      6.94435     11.46379     50.06905         0.001564      0.019236      0.022477
     15.97721      2.43239     50.06905         0.016810      0.003757      0.021562
     15.97475     11.46379     50.06905         0.003147      0.016231      0.021520
     18.05955      0.13112     37.80413        -0.006370     -0.015587     -0.058338
      0.13302      9.09207     37.81119         0.000959      0.036530     -0.071490
      9.05594     17.96285     37.75541         0.072135      0.001078     -0.054120
      8.97611      9.02275     37.72508        -0.012858      0.030729     -0.024049
      4.58242      4.54378     37.85136         0.046205     -0.007497      0.032281
      4.40178     13.67100     37.73045        -0.019152     -0.009291     -0.064262
     13.54177      4.54358     37.89553        -0.012106      0.011597     -0.034559
     13.52508     13.69917     37.67914         0.054540      0.007653      0.079963
      0.00001      0.00001     44.04300        -0.051153     -0.096883      0.152862
     -0.00245      9.03141     44.04300         0.116604     -0.011691      0.182307
      9.03041      0.00001     44.04300         0.008285      0.002478      0.095031
      9.02795      9.03141     44.04300         0.082865      0.004203      0.141174
      4.51397      4.51569     44.04275         0.019326      0.034871      0.152398
      4.51151     13.54709     44.04275        -0.093635     -0.024792      0.099475
     13.54437      4.51569     44.04275        -0.050928     -0.003549      0.232521
     13.54191     13.54709     44.04275        -0.058009      0.023640      0.013385
      0.00000      0.00000     50.44728        -0.000327      0.005837     -0.623045
     -0.00246      9.03140     50.44728        -0.000055     -0.006869     -0.643317
      9.03040      0.00000     50.44728         0.000462      0.008212     -0.637451
      9.02794      9.03140     50.44728        -0.000903     -0.008417     -0.644463
      4.51397      4.51570     50.44728         0.004148      0.005838     -0.642173
      4.51151     13.54710     50.44728         0.002685     -0.006593     -0.615384
     13.54437      4.51570     50.44728        -0.004891      0.004739     -0.637891
     13.54191     13.54710     50.44728        -0.002420     -0.005813     -0.618348
 -----------------------------------------------------------------------------------
    total drift:                                0.046288      0.106615      0.415706


--------------------------------------------------------------------------------------------------------



  FREE ENERGIE OF THE ION-ELECTRON SYSTEM (eV)
  ---------------------------------------------------
  free  energy   TOTEN  =     -1575.66345835 eV

  energy  without entropy=    -1575.66345835  energy(sigma->0) =    -1575.66345835
 


--------------------------------------------------------------------------------------------------------


    POTLOK:  cpu time    0.5017: real time    0.5016


--------------------------------------------------------------------------------------------------------


     LOOP+:  cpu time  305.6316: real time  306.2019
 vacuum level on the upper side and lower side of the slab         2.318         1.596
    4ORBIT:  cpu time    0.0000: real time    0.0000

 total amount of memory used by VASP MPI-rank0  8653585. kBytes
=======================================================================

   base      :      30000. kBytes
   nonlr-proj:      53623. kBytes
   fftplans  :     249280. kBytes
   grid      :     701440. kBytes
   one-center:       2636. kBytes
   wavefun   :    7616606. kBytes
 
  
  
 General timing and accounting informations for this job:
 ========================================================
  
                  Total CPU time used (sec):      518.407
                            User time (sec):      419.006
                          System time (sec):       99.401
                         Elapsed time (sec):      521.572
  
                   Maximum memory used (kb):    10313988.
                   Average memory used (kb):          N/A
  
                          Minor page faults:      3701014
                          Major page faults:           14
                 Voluntary context switches:        11331
