 vasp.6.2.1 16May21 (build Nov 15 2021 14:57:28) complex                         
 executed on             LinuxPGI date 2023.07.25  00:50:24
 running on    4 total cores
 distrk:  each k-point on    4 cores,    1 groups
 distr:  one band on NCORE=   1 cores,    4 groups


--------------------------------------------------------------------------------------------------------


 INCAR:
   SYSTEM = PSC
   ISTART = 1
   ICHARG = 1
   PREC = Normal
   ENCUT = 500
   GGA_COMPAT = F
   NELM = 600
   ISYM = 0
   LREAL = Auto
   ISMEAR = 0
   SIGMA = 0.05
   AMIN = 0.01
   BMIX = 0.01
   LVTOT = T
   LWAVE = F
   LDIPOL = T
   IDIPOL = 3
   LVDW = T
   IVDW = 12

 POTCAR:    PAW_PBE H 15Jun2001                   
 POTCAR:    PAW_PBE C 08Apr2002                   
 POTCAR:    PAW_PBE N 08Apr2002                   
 POTCAR:    PAW_PBE I 08Apr2002                   
 POTCAR:    PAW_PBE Pb 08Apr2002                  
 WARNING: For LVTOT=.TRUE., VASP.5.x writes the TOTAL local potential to the
     file LOCPOT. If you want only the Hartree contributions, use LVHAR=.TRUE.
     instead. 

 POTCAR:    PAW_PBE H 15Jun2001                   
   SHA256 =  030f79b5d3ab3cf0e668861823c8fb652ff669f3e15e46930bd03bfd63a607b6 H/POTCAR              
   COPYR  = (c) Copyright 15Jun2001 Georg Kresse                                                    
   COPYR  = This file is part of the software VASP. Any use, copying, and all other rights are regul
   COPYR  = If you do not have a valid VASP license, you may not use, copy or distribute this file. 
   VRHFIN =H: ultrasoft test                                                                        
   LEXCH  = PE                                                                                      
   EATOM  =    12.4884 eV,    0.9179 Ry                                                             
                                                                                                    
   TITEL  = PAW_PBE H 15Jun2001                                                                     
   LULTRA =        F    use ultrasoft PP ?                                                          
   IUNSCR =        0    unscreen: 0-lin 1-nonlin 2-no                                               
   RPACOR =    0.000    partial core radius                                                         
   POMASS =    1.000; ZVAL   =    1.000    mass and valenz                                          
   RCORE  =    1.100    outmost cutoff radius                                                       
   RWIGS  =    0.700; RWIGS  =    0.370    wigner-seitz radius (au A)                               
   ENMAX  =  250.000; ENMIN  =  200.000 eV                                                          
   RCLOC  =    0.701    cutoff for local pot                                                        
   LCOR   =        T    correct aug charges                                                         
   LPAW   =        T    paw PP                                                                      
   EAUG   =  400.000                                                                                
   RMAX   =    1.123    core radius for proj-oper                                                   
   RAUG   =    1.200    factor for augmentation sphere                                              
   RDEP   =    1.112    radius for radial grids                                                     
   RDEPT  =    0.926    core radius for aug-charge                                                  
                                                                                                    
   Atomic configuration                                                                             
    2 entries                                                                                       
     n  l   j            E        occ.                                                              
     1  0  0.50        -6.4927   1.0000                                                             
     2  1  0.50        -3.4015   0.0000                                                             
   Description                                                                                      
     l       E           TYP  RCUT    TYP  RCUT                                                     
     0     -6.4927494     23  1.100                                                                 
     0      6.8029130     23  1.100                                                                 
     1     -4.0817478     23  1.100                                                                 
  local pseudopotential read in
  atomic valenz-charges read in
  non local Contribution for L=            0  read in
    real space projection operators read in
  non local Contribution for L=            0  read in
    real space projection operators read in
  non local Contribution for L=            1  read in
    real space projection operators read in
    PAW grid and wavefunctions read in
 
   number of l-projection  operators is LMAX  =            3
   number of lm-projection operators is LMMAX =            5
 
 POTCAR:    PAW_PBE C 08Apr2002                   
   SHA256 =  253f7b50bb8d59471dbedb8285d89021f4a42ed1a2c5d38a03a736e69125dd95 C/POTCAR              
   COPYR  = (c) Copyright 08Apr2002 Georg Kresse                                                    
   COPYR  = This file is part of the software VASP. Any use, copying, and all other rights are regul
   COPYR  = If you do not have a valid VASP license, you may not use, copy or distribute this file. 
   VRHFIN =C: s2p2                                                                                  
   LEXCH  = PE                                                                                      
   EATOM  =   147.1560 eV,   10.8157 Ry                                                             
                                                                                                    
   TITEL  = PAW_PBE C 08Apr2002                                                                     
   LULTRA =        F    use ultrasoft PP ?                                                          
   IUNSCR =        1    unscreen: 0-lin 1-nonlin 2-no                                               
   RPACOR =    1.200    partial core radius                                                         
   POMASS =   12.011; ZVAL   =    4.000    mass and valenz                                          
   RCORE  =    1.500    outmost cutoff radius                                                       
   RWIGS  =    1.630; RWIGS  =    0.863    wigner-seitz radius (au A)                               
   ENMAX  =  400.000; ENMIN  =  300.000 eV                                                          
   ICORE  =        2    local potential                                                             
   LCOR   =        T    correct aug charges                                                         
   LPAW   =        T    paw PP                                                                      
   EAUG   =  644.873                                                                                
   DEXC   =    0.000                                                                                
   RMAX   =    1.529    core radius for proj-oper                                                   
   RAUG   =    1.300    factor for augmentation sphere                                              
   RDEP   =    1.501    radius for radial grids                                                     
   RDEPT  =    1.300    core radius for aug-charge                                                  
                                                                                                    
   Atomic configuration                                                                             
    4 entries                                                                                       
     n  l   j            E        occ.                                                              
     1  0  0.50      -273.3789   2.0000                                                             
     2  0  0.50       -13.7508   2.0000                                                             
     2  1  0.50        -5.2854   2.0000                                                             
     3  2  1.50        -5.4423   0.0000                                                             
   Description                                                                                      
     l       E           TYP  RCUT    TYP  RCUT                                                     
     0    -13.7508458     23  1.200                                                                 
     0     -8.2022199     23  1.200                                                                 
     1     -5.2854383     23  1.500                                                                 
     1     34.0145650     23  1.500                                                                 
     2     -5.4423304      7  1.500                                                                 
  local pseudopotential read in
  partial core-charges read in
  partial kinetic energy density read in
  atomic valenz-charges read in
  non local Contribution for L=            0  read in
    real space projection operators read in
  non local Contribution for L=            0  read in
    real space projection operators read in
  non local Contribution for L=            1  read in
    real space projection operators read in
  non local Contribution for L=            1  read in
    real space projection operators read in
    PAW grid and wavefunctions read in
 
   number of l-projection  operators is LMAX  =            4
   number of lm-projection operators is LMMAX =            8
 
 POTCAR:    PAW_PBE N 08Apr2002                   
   SHA256 =  e053789ff3a61a86a1b75d8a110fcc91f86041011e7b0817c7c99e4e8a6349d7 N/POTCAR              
   COPYR  = (c) Copyright 08Apr2002 Georg Kresse                                                    
   COPYR  = This file is part of the software VASP. Any use, copying, and all other rights are regul
   COPYR  = If you do not have a valid VASP license, you may not use, copy or distribute this file. 
   VRHFIN =N: s2p3                                                                                  
   LEXCH  = PE                                                                                      
   EATOM  =   264.5486 eV,   19.4438 Ry                                                             
                                                                                                    
   TITEL  = PAW_PBE N 08Apr2002                                                                     
   LULTRA =        F    use ultrasoft PP ?                                                          
   IUNSCR =        1    unscreen: 0-lin 1-nonlin 2-no                                               
   RPACOR =    1.200    partial core radius                                                         
   POMASS =   14.001; ZVAL   =    5.000    mass and valenz                                          
   RCORE  =    1.500    outmost cutoff radius                                                       
   RWIGS  =    1.400; RWIGS  =    0.741    wigner-seitz radius (au A)                               
   ENMAX  =  400.000; ENMIN  =  300.000 eV                                                          
   ICORE  =        2    local potential                                                             
   LCOR   =        T    correct aug charges                                                         
   LPAW   =        T    paw PP                                                                      
   EAUG   =  627.112                                                                                
   DEXC   =    0.000                                                                                
   RMAX   =    1.529    core radius for proj-oper                                                   
   RAUG   =    1.300    factor for augmentation sphere                                              
   RDEP   =    1.514    radius for radial grids                                                     
   RDEPT  =    1.338    core radius for aug-charge                                                  
                                                                                                    
   Atomic configuration                                                                             
    4 entries                                                                                       
     n  l   j            E        occ.                                                              
     1  0  0.50      -384.7179   2.0000                                                             
     2  0  0.50       -18.5828   2.0000                                                             
     2  1  0.50        -7.0898   3.0000                                                             
     3  2  1.50        -6.8029   0.0000                                                             
   Description                                                                                      
     l       E           TYP  RCUT    TYP  RCUT                                                     
     0    -18.5828119     23  1.200                                                                 
     0    -13.5018863     23  1.200                                                                 
     1     -7.0897853     23  1.500                                                                 
     1      9.5240782     23  1.500                                                                 
     2     -6.8029130      7  1.500                                                                 
  local pseudopotential read in
  partial core-charges read in
  partial kinetic energy density read in
  atomic valenz-charges read in
  non local Contribution for L=            0  read in
    real space projection operators read in
  non local Contribution for L=            0  read in
    real space projection operators read in
  non local Contribution for L=            1  read in
    real space projection operators read in
  non local Contribution for L=            1  read in
    real space projection operators read in
    PAW grid and wavefunctions read in
 
   number of l-projection  operators is LMAX  =            4
   number of lm-projection operators is LMMAX =            8
 
 POTCAR:    PAW_PBE I 08Apr2002                   
   SHA256 =  e40f3f59b681c1fc3e3091736183c4589116986673d2b852a5012aec72758799 I/POTCAR              
   COPYR  = (c) Copyright 08Apr2002 Georg Kresse                                                    
   COPYR  = This file is part of the software VASP. Any use, copying, and all other rights are regul
   COPYR  = If you do not have a valid VASP license, you may not use, copy or distribute this file. 
   VRHFIN =I : s2p5                                                                                 
   LEXCH  = PE                                                                                      
   EATOM  =   315.8678 eV,   23.2156 Ry                                                             
                                                                                                    
   TITEL  = PAW_PBE I 08Apr2002                                                                     
   LULTRA =        F    use ultrasoft PP ?                                                          
   IUNSCR =        1    unscreen: 0-lin 1-nonlin 2-no                                               
   RPACOR =    2.200    partial core radius                                                         
   POMASS =  126.904; ZVAL   =    7.000    mass and valenz                                          
   RCORE  =    2.300    outmost cutoff radius                                                       
   RWIGS  =    2.810; RWIGS  =    1.487    wigner-seitz radius (au A)                               
   ENMAX  =  175.647; ENMIN  =  131.735 eV                                                          
   ICORE  =        3    local potential                                                             
   LCOR   =        T    correct aug charges                                                         
   LPAW   =        T    paw PP                                                                      
   EAUG   =  370.139                                                                                
   DEXC   =    0.000                                                                                
   RMAX   =    2.359    core radius for proj-oper                                                   
   RAUG   =    1.300    factor for augmentation sphere                                              
   RDEP   =    2.392    radius for radial grids                                                     
   RDEPT  =    2.170    core radius for aug-charge                                                  
                                                                                                    
   Atomic configuration                                                                             
   13 entries                                                                                       
     n  l   j            E        occ.                                                              
     1  0  0.50    -32976.3739   2.0000                                                             
     2  0  0.50     -5094.5933   2.0000                                                             
     2  1  1.50     -4572.0131   6.0000                                                             
     3  0  0.50     -1028.2813   2.0000                                                             
     3  1  1.50      -859.0250   6.0000                                                             
     3  2  2.50      -605.7620  10.0000                                                             
     4  0  0.50      -180.5540   2.0000                                                             
     4  1  1.50      -127.5306   6.0000                                                             
     4  2  2.50       -50.2720  10.0000                                                             
     5  0  0.50       -17.4058   2.0000                                                             
     5  1  0.50        -7.0851   5.0000                                                             
     5  2  1.50        -7.0750   0.0000                                                             
     4  3  2.50        -7.0750   0.0000                                                             
   Description                                                                                      
     l       E           TYP  RCUT    TYP  RCUT                                                     
     0    -17.4058016     23  2.300                                                                 
     0    -18.7663842     23  2.300                                                                 
     1     -7.0850686     23  2.300                                                                 
     1     -4.2150896     23  2.300                                                                 
     2     -7.0750295     23  2.300                                                                 
     3     -1.3605826     23  2.300                                                                 
  local pseudopotential read in
  partial core-charges read in
  partial kinetic energy density read in
  atomic valenz-charges read in
  non local Contribution for L=            0  read in
    real space projection operators read in
  non local Contribution for L=            0  read in
    real space projection operators read in
  non local Contribution for L=            1  read in
    real space projection operators read in
  non local Contribution for L=            1  read in
    real space projection operators read in
  non local Contribution for L=            2  read in
    real space projection operators read in
    PAW grid and wavefunctions read in
 
   number of l-projection  operators is LMAX  =            5
   number of lm-projection operators is LMMAX =           13
 
 POTCAR:    PAW_PBE Pb 08Apr2002                  
   SHA256 =  797118a27cf1bcd06b9881c67a26cdde129e3cd1a551dd4a281f9681ce847303 Pb/POTCAR             
   COPYR  = (c) Copyright 08Apr2002 Georg Kresse                                                    
   COPYR  = This file is part of the software VASP. Any use, copying, and all other rights are regul
   COPYR  = If you do not have a valid VASP license, you may not use, copy or distribute this file. 
   VRHFIN =Pb:                                                                                      
   LEXCH  = PE                                                                                      
   EATOM  =    96.9868 eV,    7.1283 Ry                                                             
                                                                                                    
   TITEL  = PAW_PBE Pb 08Apr2002                                                                    
   LULTRA =        F    use ultrasoft PP ?                                                          
   IUNSCR =        1    unscreen: 0-lin 1-nonlin 2-no                                               
   RPACOR =    2.200    partial core radius                                                         
   POMASS =  207.200; ZVAL   =    4.000    mass and valenz                                          
   RCORE  =    3.100    outmost cutoff radius                                                       
   RWIGS  =    3.260; RWIGS  =    1.725    wigner-seitz radius (au A)                               
   ENMAX  =   97.973; ENMIN  =   73.480 eV                                                          
   ICORE  =        3    local potential                                                             
   LCOR   =        T    correct aug charges                                                         
   LPAW   =        T    paw PP                                                                      
   EAUG   =  234.873                                                                                
   DEXC   =    0.000                                                                                
   RMAX   =    3.158    core radius for proj-oper                                                   
   RAUG   =    1.300    factor for augmentation sphere                                              
   RDEP   =    3.202    radius for radial grids                                                     
   RDEPT  =    2.659    core radius for aug-charge                                                  
                                                                                                    
   Atomic configuration                                                                             
   17 entries                                                                                       
     n  l   j            E        occ.                                                              
     1  0  0.50    -88091.8466   2.0000                                                             
     2  0  0.50    -15753.4197   2.0000                                                             
     2  1  1.50    -13508.1797   6.0000                                                             
     3  0  0.50     -3781.7194   2.0000                                                             
     3  1  1.50     -3138.2529   6.0000                                                             
     3  2  2.50     -2483.2977  10.0000                                                             
     4  0  0.50      -856.2895   2.0000                                                             
     4  1  1.50      -645.4943   6.0000                                                             
     4  2  2.50      -401.8768  10.0000                                                             
     4  3  3.50      -132.9059  14.0000                                                             
     5  0  0.50      -144.0950   2.0000                                                             
     5  1  1.50       -85.7879   6.0000                                                             
     5  2  2.50       -21.1769  10.0000                                                             
     6  0  0.50       -12.0372   2.0000                                                             
     6  1  1.50        -3.4971   2.0000                                                             
     6  2  2.50        -1.3606   0.0000                                                             
     5  3  2.50        -2.7212   0.0000                                                             
   Description                                                                                      
     l       E           TYP  RCUT    TYP  RCUT                                                     
     0    -12.0371566     23  3.100                                                                 
     0    -13.3977392     23  3.100                                                                 
     1     -3.4971341     23  3.100                                                                 
     1     -5.4423304     23  3.100                                                                 
     2     -1.3605826     23  3.100                                                                 
     3     -1.3605826     23  3.100                                                                 
  local pseudopotential read in
  partial core-charges read in
  partial kinetic energy density read in
  atomic valenz-charges read in
  non local Contribution for L=            0  read in
    real space projection operators read in
  non local Contribution for L=            0  read in
    real space projection operators read in
  non local Contribution for L=            1  read in
    real space projection operators read in
  non local Contribution for L=            1  read in
    real space projection operators read in
  non local Contribution for L=            2  read in
    real space projection operators read in
    PAW grid and wavefunctions read in
 
   number of l-projection  operators is LMAX  =            5
   number of lm-projection operators is LMMAX =           13
 
 Optimization of the real space projectors (new method)

 maximal supplied QI-value         = 34.20
 optimisation between [QCUT,QGAM] = [ 11.29, 22.57] = [ 35.68,142.71] Ry 
 Optimized for a Real-space Cutoff    1.16 Angstroem

   l    n(q)    QCUT    max X(q) W(low)/X(q) W(high)/X(q)  e(spline) 
   0      8    11.287    19.460    0.40E-03    0.73E-03    0.16E-06
   0      8    11.287    12.209    0.38E-03    0.70E-03    0.15E-06
   1      7    11.287     4.655    0.22E-03    0.25E-04    0.22E-06
 Optimization of the real space projectors (new method)

 maximal supplied QI-value         = 25.13
 optimisation between [QCUT,QGAM] = [ 11.31, 22.87] = [ 35.82,146.48] Ry 
 Optimized for a Real-space Cutoff    1.00 Angstroem

   l    n(q)    QCUT    max X(q) W(low)/X(q) W(high)/X(q)  e(spline) 
   0      7    11.310   115.676    0.43E-03    0.13E-02    0.19E-06
   0      7    11.310    87.132    0.43E-03    0.13E-02    0.18E-06
   1      6    11.310     4.429    0.42E-03    0.74E-03    0.11E-06
   1      6    11.310     2.733    0.34E-03    0.55E-03    0.92E-07
 Optimization of the real space projectors (new method)

 maximal supplied QI-value         = 25.13
 optimisation between [QCUT,QGAM] = [ 11.31, 22.87] = [ 35.82,146.48] Ry 
 Optimized for a Real-space Cutoff    1.27 Angstroem

   l    n(q)    QCUT    max X(q) W(low)/X(q) W(high)/X(q)  e(spline) 
   0      9    11.310    79.467    0.75E-04    0.16E-03    0.36E-06
   0      9    11.310    66.151    0.74E-04    0.16E-03    0.36E-06
   1      8    11.310    17.416    0.35E-03    0.12E-03    0.95E-06
   1      8    11.310    12.382    0.37E-03    0.13E-03    0.98E-06
 Optimization of the real space projectors (new method)

 maximal supplied QI-value         = 16.25
 optimisation between [QCUT,QGAM] = [ 11.38, 22.75] = [ 36.24,144.96] Ry 
 Optimized for a Real-space Cutoff    1.31 Angstroem

   l    n(q)    QCUT    max X(q) W(low)/X(q) W(high)/X(q)  e(spline) 
   0      9    11.376   194.483    0.24E-03    0.23E-03    0.67E-07
   0      9    11.376   190.334    0.23E-03    0.22E-03    0.65E-07
   1      8    11.376   116.687    0.25E-03    0.63E-04    0.16E-06
   1      8    11.376    88.696    0.25E-03    0.61E-04    0.16E-06
   2      8    11.376     4.877    0.17E-03    0.14E-03    0.29E-07
 Optimization of the real space projectors (new method)

 maximal supplied QI-value         = 12.09
 optimisation between [QCUT,QGAM] = [ 11.37, 22.86] = [ 36.19,146.31] Ry 
 Optimized for a Real-space Cutoff    1.66 Angstroem

   l    n(q)    QCUT    max X(q) W(low)/X(q) W(high)/X(q)  e(spline) 
   0     11    11.369   135.111    0.12E-03    0.69E-04    0.19E-05
   0     11    11.369   146.850    0.11E-03    0.65E-04    0.18E-05
   1     11    11.369   148.016    0.17E-03    0.32E-03    0.89E-06
   1     11    11.369   122.989    0.17E-03    0.32E-03    0.91E-06
   2     10    11.369     8.916    0.12E-03    0.45E-04    0.33E-06
  PAW_PBE H 15Jun2001                   :
 energy of atom  1       EATOM=  -12.4884
 kinetic energy error for atom=    0.0020 (will be added to EATOM!!)
  PAW_PBE C 08Apr2002                   :
 energy of atom  2       EATOM= -147.1560
 kinetic energy error for atom=    0.0076 (will be added to EATOM!!)
  PAW_PBE N 08Apr2002                   :
 energy of atom  3       EATOM= -264.5486
 kinetic energy error for atom=    0.0138 (will be added to EATOM!!)
  PAW_PBE I 08Apr2002                   :
 energy of atom  4       EATOM= -315.8678
 kinetic energy error for atom=    0.0009 (will be added to EATOM!!)
  PAW_PBE Pb 08Apr2002                  :
 energy of atom  5       EATOM=  -96.9868
 kinetic energy error for atom=    0.0000 (will be added to EATOM!!)
 
 
 POSCAR:  H  C  N  I Pb
  positions in cartesian coordinates
  No initial velocities read in
 exchange correlation table for  LEXCH =        8
   RHO(1)=    0.500       N(1)  =     2000
   RHO(2)=  100.500       N(2)  =     4000
 


--------------------------------------------------------------------------------------------------------


 ion  position               nearest neighbor table
   1  0.443  0.326  0.569- 187 1.02
   2  0.420  0.828  0.569- 188 1.01
   3  0.965  0.322  0.579- 189 1.03
   4  0.948  0.813  0.576- 190 1.03
   5  0.325  0.954  0.573- 194 1.02
   6  0.342  0.563  0.568- 195 1.02
   7  0.800  0.079  0.575- 196 1.02
   8  0.019  0.137  0.562- 183 1.03
   9  0.065  0.652  0.567- 184 1.02
  10  0.560  0.174  0.554- 185 1.02
  11  0.512  0.651  0.563- 186 1.03
  12  0.362  0.021  0.556- 194 1.04
  13  0.285  0.629  0.556- 195 1.04
  14  0.872  0.023  0.565- 196 1.03
  15  0.972  0.186  0.582- 183 1.03
  16  0.997  0.686  0.584- 184 1.03
  17  0.561  0.256  0.568- 185 1.03
  18  0.438  0.693  0.576- 186 1.03
  19  0.287  0.437  0.574- 191 1.03
  20  0.191  0.931  0.571- 192 1.02
  21  0.673  0.030  0.572- 193 1.02
  22  0.367  0.284  0.557- 187 1.02
  23  0.486  0.874  0.554- 188 1.02
  24  0.020  0.363  0.559- 189 1.03
  25  0.994  0.862  0.556- 190 1.02
  26  0.198  0.424  0.564- 191 1.02
  27  0.137  0.991  0.555- 192 1.03
  28  0.665  0.940  0.561- 193 1.04
  29  0.435  0.184  0.545- 146 1.09
  30  0.553  0.765  0.548- 147 1.10
  31  0.055  0.248  0.544- 144 1.09
  32  0.073  0.764  0.548- 145 1.09
  33  0.188  0.543  0.551- 148 1.09
  34  0.243  0.058  0.544- 149 1.09
  35  0.790  0.929  0.555- 150 1.10
  36  0.482  0.335  0.668- 205 1.02
  37  0.440  0.814  0.673- 206 1.02
  38  0.968  0.280  0.679- 207 1.02
  39  0.923  0.734  0.673- 208 1.02
  40  0.312  0.053  0.671- 209 1.02
  41  0.299  0.550  0.676- 210 1.01
  42  0.792  0.062  0.675- 211 1.02
  43  0.762  0.596  0.664- 212 1.01
  44  0.084  0.164  0.645- 197 1.02
  45  0.108  0.716  0.651- 198 1.02
  46  0.583  0.174  0.649- 199 1.00
  47  0.566  0.671  0.652- 200 1.03
  48  0.183  0.415  0.647- 201 1.03
  49  0.171  0.922  0.650- 202 1.04
  50  0.709  0.402  0.662- 203 1.03
  51  0.678  0.917  0.651- 204 1.03
  52  0.065  0.177  0.672- 197 1.02
  53  0.051  0.678  0.671- 198 1.01
  54  0.596  0.257  0.662- 199 1.02
  55  0.530  0.702  0.677- 200 1.02
  56  0.201  0.445  0.674- 201 1.02
  57  0.207  0.954  0.675- 202 1.02
  58  0.679  0.489  0.671- 203 1.02
  59  0.692  0.958  0.675- 204 1.02
  60  0.399  0.295  0.660- 205 1.02
  61  0.427  0.844  0.647- 206 1.01
  62  0.936  0.325  0.656- 207 1.02
  63  0.904  0.803  0.654- 208 1.01
  64  0.333  0.074  0.644- 209 1.02
  65  0.333  0.579  0.651- 210 1.03
  66  0.833  0.078  0.650- 211 1.02
  67  0.839  0.579  0.648- 212 1.02
  68  0.006  0.256  0.633- 151 1.11
  69  0.019  0.798  0.639- 152 1.10
  70  0.457  0.192  0.645- 153 1.09
  71  0.503  0.757  0.632- 154 1.08
  72  0.246  0.995  0.630- 156 1.10
  73  0.262  0.496  0.631- 155 1.10
  74  0.767  0.987  0.633- 158 1.10
  75  0.812  0.453  0.645- 157 1.10
  76  0.449  0.301  0.769- 221 1.02
  77  0.449  0.801  0.769- 222 1.02
  78  0.949  0.301  0.769- 223 1.02
  79  0.949  0.801  0.769- 224 1.02
  80  0.301  0.051  0.769- 225 1.02
  81  0.301  0.551  0.769- 226 1.02
  82  0.801  0.051  0.769- 227 1.02
  83  0.801  0.551  0.769- 228 1.02
  84  0.079  0.171  0.743- 213 1.02
  85  0.079  0.671  0.743- 214 1.02
  86  0.579  0.171  0.743- 215 1.02
  87  0.579  0.671  0.743- 216 1.02
  88  0.171  0.421  0.743- 217 1.02
  89  0.171  0.921  0.743- 218 1.02
  90  0.671  0.421  0.743- 219 1.02
  91  0.671  0.921  0.743- 220 1.02
  92  0.051  0.199  0.769- 213 1.02
  93  0.051  0.699  0.769- 214 1.02
  94  0.551  0.199  0.769- 215 1.02
  95  0.551  0.699  0.769- 216 1.02
  96  0.199  0.449  0.769- 217 1.02
  97  0.199  0.949  0.769- 218 1.02
  98  0.699  0.449  0.769- 219 1.02
  99  0.699  0.949  0.769- 220 1.02
 100  0.421  0.329  0.743- 221 1.02
 101  0.421  0.829  0.743- 222 1.02
 102  0.921  0.329  0.743- 223 1.02
 103  0.921  0.829  0.743- 224 1.02
 104  0.329  0.079  0.743- 225 1.02
 105  0.329  0.579  0.743- 226 1.02
 106  0.829  0.079  0.743- 227 1.02
 107  0.829  0.579  0.743- 228 1.02
 108  0.000  0.250  0.726- 161 1.09
 109  0.000  0.750  0.726- 162 1.09
 110  0.500  0.250  0.726- 159 1.09
 111  0.500  0.750  0.726- 160 1.09
 112  0.250  0.000  0.726- 163 1.09
 113  0.250  0.500  0.726- 164 1.09
 114  0.750  0.000  0.726- 165 1.09
 115  0.750  0.500  0.726- 166 1.09
 116  0.775  0.555  0.520- 173 1.09
 117  0.721  0.476  0.525- 173 1.10
 118  0.872  0.501  0.542- 174 1.09
 119  0.856  0.481  0.569- 174 1.10
 120  0.743  0.640  0.559- 175 1.09
 121  0.807  0.599  0.578- 175 1.10
 122  0.668  0.549  0.570- 176 1.10
 123  0.676  0.457  0.561- 176 1.10
 124  0.616  0.554  0.538- 177 1.10
 125  0.671  0.635  0.536- 177 1.11
 126  0.607  0.644  0.505- 178 1.09
 127  0.687  0.601  0.495- 178 1.10
 128  0.792  0.391  0.531- 179 1.09
 129  0.777  0.370  0.558- 179 1.08
 130  0.867  0.367  0.547- 179 1.10
 131  0.864  0.695  0.556- 180 1.10
 132  0.845  0.648  0.532- 180 1.10
 133  0.908  0.608  0.551- 180 1.09
 134  0.758  0.528  0.600- 181 1.10
 135  0.777  0.437  0.590- 181 1.10
 136  0.688  0.462  0.600- 181 1.09
 137  0.534  0.530  0.504- 182 1.11
 138  0.576  0.547  0.478- 182 1.11
 139  0.695  0.476  0.468- 168 1.11
 140  0.562  0.420  0.523- 169 1.10
 141  0.761  0.355  0.471- 170 1.10
 142  0.630  0.299  0.527- 171 1.09
 143  0.729  0.268  0.501- 172 1.10
 144  0.021  0.250  0.559-  31 1.09 183 1.30 189 1.31
 145  0.032  0.757  0.560-  32 1.09 190 1.31 184 1.31
 146  0.463  0.229  0.554-  29 1.09 187 1.31 185 1.31
 147  0.502  0.763  0.557-  30 1.10 186 1.32 188 1.32
 148  0.240  0.526  0.559-  33 1.09 195 1.31 191 1.31
 149  0.249  0.010  0.555-  34 1.09 194 1.31 192 1.31
 150  0.769  0.980  0.562-  35 1.10 193 1.31 196 1.31
 151  0.010  0.245  0.650-  68 1.11 207 1.30 197 1.32
 152  0.006  0.761  0.652-  69 1.10 208 1.30 198 1.32
 153  0.490  0.234  0.654-  70 1.09 205 1.31 199 1.31
 154  0.496  0.758  0.649-  71 1.08 206 1.31 200 1.31
 155  0.258  0.497  0.649-  73 1.10 210 1.31 201 1.32
 156  0.252  0.998  0.647-  72 1.10 202 1.31 209 1.32
 157  0.775  0.489  0.654-  75 1.10 203 1.31 212 1.32
 158  0.756  0.997  0.650-  74 1.10 204 1.31 211 1.31
 159  0.500  0.250  0.743- 110 1.09 221 1.31 215 1.31
 160  0.500  0.750  0.743- 111 1.09 222 1.31 216 1.31
 161  1.000  0.250  0.743- 108 1.09 223 1.31 213 1.31
 162  1.000  0.750  0.743- 109 1.09 224 1.31 214 1.31
 163  0.250  0.000  0.743- 112 1.09 225 1.31 218 1.31
 164  0.250  0.500  0.743- 113 1.09 226 1.31 217 1.31
 165  0.750  0.000  0.743- 114 1.09 227 1.31 220 1.31
 166  0.750  0.500  0.743- 115 1.09 228 1.31 219 1.31
 167  0.624  0.457  0.496- 169 1.41 168 1.41 182 1.50
 168  0.680  0.437  0.481- 139 1.11 170 1.39 167 1.41
 169  0.605  0.405  0.512- 140 1.10 171 1.40 167 1.41
 170  0.717  0.370  0.483- 141 1.10 172 1.39 168 1.39
 171  0.643  0.338  0.514- 142 1.09 169 1.40 172 1.40
 172  0.700  0.320  0.499- 143 1.10 170 1.39 171 1.40
 173  0.731  0.533  0.531- 116 1.09 117 1.10 177 1.52 229 1.53
 174  0.831  0.477  0.553- 118 1.09 119 1.10 179 1.50 229 1.52
 175  0.792  0.605  0.561- 120 1.09 121 1.10 180 1.51 229 1.53
 176  0.707  0.503  0.568- 122 1.10 123 1.10 181 1.52 229 1.52
 177  0.662  0.580  0.529- 124 1.10 125 1.11 173 1.52 178 1.54
 178  0.638  0.592  0.505- 126 1.09 127 1.10 177 1.54 182 1.54
 179  0.815  0.398  0.547- 129 1.08 128 1.09 130 1.10 174 1.50
 180  0.856  0.639  0.549- 133 1.09 132 1.10 131 1.10 175 1.51
 181  0.735  0.482  0.590- 136 1.09 135 1.10 134 1.10 176 1.52
 182  0.588  0.532  0.495- 138 1.11 137 1.11 167 1.50 178 1.54
 183  0.005  0.188  0.568-   8 1.03  15 1.03 144 1.30
 184  0.033  0.696  0.572-   9 1.02  16 1.03 145 1.31
 185  0.534  0.221  0.558-  10 1.02  17 1.03 146 1.31
 186  0.482  0.698  0.565-  11 1.03  18 1.03 147 1.32
 187  0.423  0.285  0.560-   1 1.02  22 1.02 146 1.31
 188  0.464  0.825  0.559-   2 1.01  23 1.02 147 1.32
 189  0.999  0.315  0.565-  24 1.03   3 1.03 144 1.31
 190  0.986  0.812  0.564-  25 1.02   4 1.03 145 1.31
 191  0.244  0.457  0.565-  26 1.02  19 1.03 148 1.31
 192  0.189  0.973  0.560-  20 1.02  27 1.03 149 1.31
 193  0.697  0.986  0.564-  21 1.02  28 1.04 150 1.31
 194  0.315  0.994  0.562-   5 1.02  12 1.04 149 1.31
 195  0.293  0.575  0.561-   6 1.02  13 1.04 148 1.31
 196  0.817  0.031  0.568-   7 1.02  14 1.03 150 1.31
 197  0.055  0.191  0.657-  44 1.02  52 1.02 151 1.32
 198  0.058  0.714  0.659-  53 1.01  45 1.02 152 1.32
 199  0.561  0.221  0.655-  46 1.00  54 1.02 153 1.31
 200  0.532  0.708  0.660-  55 1.02  47 1.03 154 1.31
 201  0.212  0.449  0.657-  56 1.02  48 1.03 155 1.32
 202  0.207  0.957  0.658-  57 1.02  49 1.04 156 1.31
 203  0.716  0.459  0.663-  58 1.02  50 1.03 157 1.31
 204  0.706  0.955  0.660-  59 1.02  51 1.03 158 1.31
 205  0.455  0.293  0.660-  60 1.02  36 1.02 153 1.31
 206  0.452  0.808  0.657-  61 1.01  37 1.02 154 1.31
 207  0.969  0.285  0.663-  38 1.02  62 1.02 151 1.30
 208  0.941  0.767  0.661-  63 1.01  39 1.02 152 1.30
 209  0.302  0.044  0.655-  64 1.02  40 1.02 156 1.32
 210  0.299  0.544  0.660-  41 1.01  65 1.03 155 1.31
 211  0.796  0.049  0.659-  66 1.02  42 1.02 158 1.31
 212  0.793  0.559  0.656-  43 1.01  67 1.02 157 1.32
 213  0.046  0.204  0.753-  92 1.02  84 1.02 161 1.31
 214  0.046  0.704  0.753-  93 1.02  85 1.02 162 1.31
 215  0.546  0.204  0.753-  94 1.02  86 1.02 159 1.31
 216  0.546  0.704  0.753-  95 1.02  87 1.02 160 1.31
 217  0.204  0.454  0.753-  96 1.02  88 1.02 164 1.31
 218  0.204  0.954  0.753-  97 1.02  89 1.02 163 1.31
 219  0.704  0.454  0.753-  98 1.02  90 1.02 166 1.31
 220  0.704  0.954  0.753-  99 1.02  91 1.02 165 1.31
 221  0.454  0.296  0.753-  76 1.02 100 1.02 159 1.31
 222  0.454  0.796  0.753-  77 1.02 101 1.02 160 1.31
 223  0.954  0.296  0.753-  78 1.02 102 1.02 161 1.31
 224  0.954  0.796  0.753-  79 1.02 103 1.02 162 1.31
 225  0.296  0.046  0.753-  80 1.02 104 1.02 163 1.31
 226  0.296  0.546  0.753-  81 1.02 105 1.02 164 1.31
 227  0.796  0.046  0.753-  82 1.02 106 1.02 165 1.31
 228  0.796  0.546  0.753-  83 1.02 107 1.02 166 1.31
 229  0.766  0.529  0.553- 176 1.52 174 1.52 175 1.53 173 1.53
 230  0.506  0.020  0.552- 304 3.28
 231  0.476  0.500  0.555- 305 3.12
 232  1.000  0.002  0.550- 302 3.48
 233  0.040  0.504  0.553- 303 3.34
 234  0.230  0.240  0.552- 306 3.17
 235  0.249  0.769  0.554- 307 3.17
 236  0.736  0.202  0.555- 308 3.09
 237  0.706  0.792  0.552- 309 3.20
 238  0.002  0.982  0.654- 302 3.05 310 3.20
 239  0.007  0.495  0.655- 311 3.10 303 3.11
 240  0.502  0.012  0.654- 304 3.16 312 3.16
 241  0.515  0.488  0.655- 313 3.13 305 3.17
 242  0.260  0.245  0.655- 314 3.15 306 3.26
 243  0.251  0.755  0.655- 315 3.14 307 3.17
 244  0.754  0.263  0.655- 316 3.14 308 3.26
 245  0.744  0.755  0.654- 317 3.17 309 3.27
 246  0.135  0.107  0.608- 306 3.17 302 3.19
 247  0.148  0.607  0.610- 307 3.12 303 3.17
 248  0.648  0.105  0.611- 308 3.13 304 3.24
 249  0.617  0.633  0.612- 309 3.15 305 3.37
 250  0.360  0.384  0.606- 305 3.17 306 3.30
 251  0.372  0.883  0.608- 304 3.24 307 3.33
 252  0.893  0.364  0.612- 303 3.27 308 3.48
 253  0.873  0.870  0.607- 302 3.21 309 3.25
 254  0.125  0.364  0.610- 306 3.12 303 3.25
 255  0.125  0.871  0.607- 307 3.18 302 3.25
 256  0.585  0.333  0.602- 308 3.20 305 3.29
 257  0.617  0.873  0.611- 309 3.03 304 3.24
 258  0.386  0.134  0.606- 304 3.10 306 3.23
 259  0.384  0.628  0.612- 305 3.23 307 3.28
 260  0.886  0.135  0.612- 302 3.21 308 3.38
 261  0.905  0.641  0.613- 303 3.18 309 3.81
 262  0.000  0.000  0.755- 310 3.13 318 3.27
 263  0.000  0.500  0.755- 311 3.13 319 3.27
 264  0.500  0.000  0.755- 312 3.13 320 3.27
 265  0.500  0.500  0.755- 313 3.13 321 3.27
 266  0.250  0.250  0.755- 314 3.13 322 3.27
 267  0.250  0.750  0.755- 315 3.13 323 3.27
 268  0.750  0.250  0.755- 316 3.13 324 3.27
 269  0.750  0.750  0.755- 317 3.13 325 3.27
 270  0.136  0.114  0.705- 310 3.20 314 3.20
 271  0.136  0.614  0.705- 311 3.20 315 3.20
 272  0.636  0.114  0.705- 312 3.20 316 3.20
 273  0.636  0.614  0.705- 313 3.20 317 3.20
 274  0.364  0.386  0.705- 313 3.20 314 3.20
 275  0.364  0.886  0.705- 312 3.20 315 3.20
 276  0.864  0.386  0.705- 311 3.20 316 3.20
 277  0.864  0.886  0.705- 310 3.20 317 3.20
 278  0.114  0.364  0.705- 314 3.21 311 3.21
 279  0.114  0.864  0.705- 315 3.21 310 3.21
 280  0.614  0.364  0.705- 316 3.21 313 3.21
 281  0.614  0.864  0.705- 317 3.21 312 3.21
 282  0.386  0.136  0.705- 314 3.21 312 3.21
 283  0.386  0.636  0.705- 315 3.21 313 3.21
 284  0.886  0.136  0.705- 316 3.21 310 3.21
 285  0.886  0.636  0.705- 317 3.21 311 3.21
 286  0.135  0.115  0.801- 318 3.22 322 3.22
 287  0.135  0.615  0.801- 319 3.22 323 3.22
 288  0.635  0.115  0.801- 320 3.22 324 3.22
 289  0.635  0.615  0.801- 321 3.22 325 3.22
 290  0.365  0.385  0.801- 321 3.22 322 3.22
 291  0.365  0.885  0.801- 320 3.22 323 3.22
 292  0.865  0.385  0.801- 319 3.22 324 3.22
 293  0.865  0.885  0.801- 318 3.22 325 3.22
 294  0.115  0.365  0.801- 319 3.23 322 3.23
 295  0.115  0.865  0.801- 318 3.23 323 3.23
 296  0.615  0.365  0.801- 321 3.23 324 3.23
 297  0.615  0.865  0.801- 320 3.23 325 3.23
 298  0.385  0.135  0.801- 320 3.23 322 3.23
 299  0.385  0.635  0.801- 321 3.23 323 3.23
 300  0.885  0.135  0.801- 318 3.23 324 3.23
 301  0.885  0.635  0.801- 319 3.23 325 3.23
 302  0.996  0.997  0.605- 238 3.05 246 3.19 253 3.21 260 3.21 255 3.25 232 3.48
 303  0.009  0.501  0.606- 239 3.11 247 3.17 261 3.18 254 3.25 252 3.27 233 3.34
 304  0.500  0.007  0.604- 258 3.10 240 3.16 248 3.24 257 3.24 251 3.24 230 3.28
 305  0.498  0.493  0.605- 231 3.12 241 3.17 250 3.17 259 3.23 256 3.29 249 3.37
 306  0.244  0.243  0.603- 254 3.12 246 3.17 234 3.17 258 3.23 242 3.26 250 3.30
 307  0.248  0.746  0.604- 247 3.12 243 3.17 235 3.17 255 3.18 259 3.28 251 3.33
 308  0.741  0.249  0.603- 236 3.09 248 3.13 256 3.20 244 3.26 260 3.38 252 3.48
 309  0.734  0.757  0.602- 257 3.03 249 3.15 237 3.20 253 3.25 245 3.27 261 3.81
 310  0.000  0.000  0.705- 262 3.13 238 3.20 270 3.20 277 3.20 279 3.21 284 3.21
 311  0.000  0.500  0.705- 239 3.10 263 3.13 271 3.20 276 3.20 278 3.21 285 3.21
 312  0.500  0.000  0.705- 264 3.13 240 3.16 272 3.20 275 3.20 281 3.21 282 3.21
 313  0.500  0.500  0.705- 241 3.13 265 3.13 273 3.20 274 3.20 280 3.21 283 3.21
 314  0.250  0.250  0.705- 266 3.13 242 3.15 270 3.20 274 3.20 282 3.21 278 3.21
 315  0.250  0.750  0.705- 267 3.13 243 3.14 271 3.20 275 3.20 283 3.21 279 3.21
 316  0.750  0.250  0.705- 268 3.13 244 3.14 272 3.20 276 3.20 284 3.21 280 3.21
 317  0.750  0.750  0.705- 269 3.13 245 3.17 273 3.20 277 3.20 285 3.21 281 3.21
 318  0.000  0.000  0.807- 286 3.22 293 3.22 300 3.23 295 3.23 262 3.27
 319  0.000  0.500  0.807- 287 3.22 292 3.22 301 3.23 294 3.23 263 3.27
 320  0.500  0.000  0.807- 288 3.22 291 3.22 298 3.23 297 3.23 264 3.27
 321  0.500  0.500  0.807- 289 3.22 290 3.22 299 3.23 296 3.23 265 3.27
 322  0.250  0.250  0.807- 290 3.22 286 3.22 294 3.23 298 3.23 266 3.27
 323  0.250  0.750  0.807- 291 3.22 287 3.22 299 3.23 295 3.23 267 3.27
 324  0.750  0.250  0.807- 292 3.22 288 3.22 296 3.23 300 3.23 268 3.27
 325  0.750  0.750  0.807- 293 3.22 289 3.22 297 3.23 301 3.23 269 3.27
 

IMPORTANT INFORMATION: All symmetrisations will be switched off!
NOSYMM: (Re-)initialisation of all symmetry stuff for point group C_1.


----------------------------------------------------------------------------------------

                                     Primitive cell                                     

  volume of cell :   20385.2105

  direct lattice vectors                    reciprocal lattice vectors
    18.060800552  0.000000000  0.000000000     0.055368531  0.000015077 -0.000000000
    -0.004918649 18.062799454  0.000000000     0.000000000  0.055362404  0.000000000
     0.000000000  0.000000000 62.487499237     0.000000000 -0.000000000  0.016003201

  length of vectors
    18.060800552 18.062800123 62.487499237     0.055368533  0.055362404  0.016003201

  position of ions in fractional coordinates (direct lattice)
     0.442874954  0.326298171  0.569499344
     0.419646140  0.828061113  0.569259367
     0.965364811  0.321577555  0.578662004
     0.948412041  0.812579454  0.576337687
     0.325068649  0.953511042  0.572574117
     0.342347928  0.562923035  0.567859673
     0.800337464  0.079017986  0.575149888
     0.018560581  0.137380124  0.561685098
     0.064545809  0.651548995  0.567358962
     0.560371172  0.173651050  0.553565065
     0.511833700  0.650896204  0.562759165
     0.362434471  0.021082977  0.556103781
     0.285232136  0.629170425  0.555819789
     0.871726841  0.023123851  0.564895945
     0.972334351  0.185856137  0.581586967
     0.996537453  0.685954882  0.584161090
     0.560696217  0.256393696  0.568295795
     0.437889468  0.692993080  0.575839479
     0.287107970  0.437174403  0.573723699
     0.190575236  0.931086472  0.570787077
     0.672643085  0.029823225  0.571651630
     0.366867052  0.284336168  0.557139816
     0.485776652  0.873567506  0.554027377
     0.019794280  0.363442992  0.559123428
     0.994124881  0.861697790  0.556379227
     0.197875077  0.424347201  0.563903010
     0.137413673  0.990674397  0.555112494
     0.665111435  0.940377303  0.560872618
     0.435088304  0.184267546  0.545062877
     0.553232326  0.764560999  0.547999072
     0.055498862  0.248220902  0.544472854
     0.073102516  0.763607948  0.547735225
     0.187611516  0.543285088  0.551403378
     0.243380749  0.057744551  0.543994853
     0.789672154  0.928957266  0.554807624
     0.482189127  0.334751400  0.668246389
     0.440485299  0.814013968  0.673416369
     0.967730010  0.280240280  0.679120574
     0.922759579  0.734014994  0.672897955
     0.311520571  0.052948331  0.670517779
     0.299240386  0.550246623  0.675719259
     0.791584832  0.062069059  0.675275933
     0.762301323  0.595717272  0.664051153
     0.084174328  0.163826718  0.645161389
     0.108381748  0.716110871  0.651398415
     0.582859626  0.174054702  0.649446548
     0.565760176  0.671097133  0.652307227
     0.182911511  0.414587467  0.647393403
     0.170992827  0.921916025  0.650419154
     0.709293063  0.402234071  0.661788433
     0.678212097  0.916711452  0.650521042
     0.064702229  0.176868846  0.672239070
     0.051093385  0.677851807  0.670803053
     0.596444571  0.257493763  0.662228035
     0.530358321  0.701994824  0.676673063
     0.201113412  0.445187009  0.673534251
     0.206745921  0.954284360  0.674655508
     0.678584225  0.488569192  0.671064702
     0.691633411  0.958491512  0.675310791
     0.398717231  0.294820603  0.659615818
     0.426564983  0.843747733  0.647367519
     0.935733101  0.325251404  0.656463942
     0.903603534  0.803009395  0.654330581
     0.332577612  0.074335470  0.644036835
     0.332785091  0.579373057  0.650961621
     0.832823274  0.077510697  0.650468786
     0.838921622  0.578766200  0.647819208
     0.005981439  0.256243434  0.633101359
     0.019086505  0.798261984  0.638969171
     0.457012211  0.191563555  0.645217308
     0.503462829  0.757425390  0.632135163
     0.246437014  0.994518264  0.629510920
     0.262011913  0.496177024  0.631433423
     0.767126006  0.986986596  0.633139819
     0.812250302  0.452791462  0.644848094
     0.448745018  0.301283966  0.768889017
     0.448745007  0.801283913  0.768889017
     0.948744965  0.301283966  0.768889017
     0.948745007  0.801283913  0.768889017
     0.301275995  0.051294496  0.768872961
     0.301276011  0.551294499  0.768872961
     0.801275943  0.051294496  0.768872961
     0.801275984  0.551294499  0.768872961
     0.078771004  0.171180501  0.743441971
     0.078771006  0.671180448  0.743441971
     0.578771004  0.171180501  0.743441971
     0.578770992  0.671180448  0.743441971
     0.171199499  0.421174482  0.743421032
     0.171199501  0.921174508  0.743421032
     0.671199512  0.421174482  0.743421032
     0.671199501  0.921174508  0.743421032
     0.051256000  0.198714991  0.768889017
     0.051256002  0.698714925  0.768889017
     0.551256027  0.198714991  0.768889017
     0.551256016  0.698714925  0.768889017
     0.198723491  0.448703970  0.768872046
     0.198723493  0.948703970  0.768872046
     0.698723518  0.448703970  0.768872046
     0.698723507  0.948703970  0.768872046
     0.421231519  0.328817467  0.743441971
     0.421231508  0.828817440  0.743441971
     0.921231466  0.328817467  0.743441971
     0.921231508  0.828817440  0.743441971
     0.328800503  0.078824997  0.743421032
     0.328800492  0.578824964  0.743421032
     0.828800477  0.078824997  0.743421032
     0.828800519  0.578824964  0.743421032
     0.000003500  0.250001478  0.725821992
     0.000003500  0.750001452  0.725821992
     0.500003506  0.250001478  0.725821992
     0.500003495  0.750001452  0.725821992
     0.250000502  0.000000000  0.725803983
     0.250000517  0.500000000  0.725803983
     0.750000502  0.000000000  0.725803983
     0.750000490  0.500000000  0.725803983
     0.774930941  0.555048099  0.520356153
     0.721106841  0.475674937  0.525491885
     0.871511524  0.500925280  0.541563886
     0.856245673  0.481429728  0.568574965
     0.743461620  0.640195535  0.559486843
     0.806683037  0.598686721  0.577737381
     0.667616941  0.549111895  0.570091870
     0.676442169  0.457254927  0.560900456
     0.616353923  0.553513006  0.537796287
     0.671074714  0.635143957  0.535760418
     0.606524359  0.644159112  0.504663164
     0.686670291  0.600621756  0.495134403
     0.792453355  0.390943388  0.530633599
     0.777112254  0.369877290  0.557620869
     0.866830030  0.366812066  0.546943441
     0.864301213  0.694671466  0.555948660
     0.845330057  0.647542441  0.531774757
     0.907653912  0.607749657  0.550857676
     0.758361463  0.528331142  0.599803745
     0.776825429  0.437173453  0.590395491
     0.687775426  0.462024196  0.599608821
     0.534430465  0.529579966  0.503513581
     0.576084900  0.546985415  0.478357549
     0.694646327  0.475587873  0.468107391
     0.561602060  0.419641104  0.523489348
     0.760617639  0.355136910  0.471387740
     0.629723457  0.299492144  0.526531338
     0.729298156  0.267654945  0.501108986
     0.020565807  0.250071752  0.558712763
     0.032296739  0.757253164  0.560476787
     0.462724103  0.228501726  0.553950274
     0.501861098  0.762509967  0.557341456
     0.240017053  0.526262528  0.558626258
     0.249070293  0.010293545  0.554620941
     0.769070447  0.980019259  0.562144296
     0.009857772  0.244581029  0.650429471
     0.006012525  0.760675458  0.652229880
     0.489612963  0.233640922  0.653536050
     0.496140128  0.757774066  0.649345209
     0.258049478  0.497034195  0.648925814
     0.251683015  0.998283817  0.646985972
     0.775179324  0.488719243  0.654052571
     0.755985960  0.996577615  0.650180337
     0.499988984  0.249994984  0.743277021
     0.499989025  0.749994958  0.743277021
     0.999988984  0.249994984  0.743277021
     0.999989025  0.749994958  0.743277021
     0.250000502  0.000001000  0.743255960
     0.250000517  0.500001003  0.743255960
     0.750000502  0.000001000  0.743255960
     0.750000491  0.500001003  0.743255960
     0.623702180  0.456606360  0.495790204
     0.679536199  0.436724461  0.481114112
     0.604919444  0.405275140  0.511890440
     0.717362733  0.369737587  0.482999835
     0.643002200  0.338166171  0.513674396
     0.699873346  0.320464316  0.499361750
     0.731289431  0.533090010  0.530645503
     0.831497009  0.476542878  0.552594412
     0.792118585  0.604624720  0.560720366
     0.706880317  0.503081644  0.568490048
     0.661588401  0.579505368  0.528667385
     0.637546047  0.592489854  0.505268296
     0.814612178  0.397630033  0.546772508
     0.856465592  0.639420623  0.548855078
     0.735340303  0.481887431  0.590482300
     0.588445300  0.531816107  0.495150886
     0.004505271  0.187952298  0.567991657
     0.032789256  0.695854293  0.571724459
     0.533828195  0.221128183  0.557877146
     0.481787961  0.698229978  0.565430903
     0.422763525  0.285251231  0.559827610
     0.464247295  0.824596211  0.559498931
     0.998940982  0.315298932  0.565443479
     0.986385929  0.812216259  0.563961432
     0.244074109  0.456660003  0.564607801
     0.189335623  0.973072974  0.559781458
     0.697384109  0.986491455  0.564087067
     0.315203138  0.994084564  0.561611475
     0.293145353  0.574778970  0.560748631
     0.816584586  0.030540339  0.568234748
     0.055418774  0.191444048  0.656620102
     0.057577160  0.714077367  0.658545474
     0.560806495  0.220803900  0.655387738
     0.532326370  0.707839054  0.660387945
     0.211714954  0.449219275  0.657481541
     0.207446769  0.956512661  0.658410377
     0.716329873  0.458845247  0.662607566
     0.706052465  0.955351068  0.659620396
     0.455289355  0.292647450  0.660491054
     0.452358819  0.808227498  0.657469087
     0.968897436  0.285110103  0.662871291
     0.940588500  0.767345867  0.660853553
     0.301547559  0.044393889  0.654607919
     0.298917677  0.544332489  0.659570093
     0.795508728  0.048731623  0.659406181
     0.793316456  0.559338863  0.655561845
     0.045862501  0.204119496  0.752725994
     0.045862500  0.704119456  0.752725994
     0.545862507  0.204119496  0.752725994
     0.545862496  0.704119456  0.752725994
     0.204119002  0.454101003  0.752704994
     0.204118991  0.954100951  0.752704994
     0.704118976  0.454101003  0.752704994
     0.704118964  0.954100951  0.752704994
     0.454140018  0.295888490  0.752726971
     0.454140007  0.795888516  0.752726971
     0.954140018  0.295888490  0.752726971
     0.954140060  0.795888516  0.752726971
     0.295882492  0.045900498  0.752704994
     0.295882481  0.545900528  0.752704994
     0.795882439  0.045900498  0.752704994
     0.795882481  0.545900528  0.752704994
     0.765813256  0.529099929  0.552891286
     0.505714665  0.019976686  0.551599035
     0.475560568  0.500245668  0.555201013
     0.999981886  0.001846179  0.549836903
     0.039875115  0.503684593  0.552891896
     0.230420419  0.240325507  0.551983206
     0.248734342  0.769318072  0.553725803
     0.735662256  0.202335145  0.555305892
     0.705655177  0.792198168  0.552338929
     0.001991624  0.981927275  0.653967532
     0.006734848  0.495400264  0.655253617
     0.502387608  0.012179282  0.654381983
     0.515358214  0.487775378  0.655052833
     0.260247545  0.245319114  0.654512502
     0.250553852  0.755378740  0.654645402
     0.754422784  0.262858960  0.654697842
     0.744397970  0.754728113  0.654085476
     0.134554580  0.107424094  0.608071146
     0.147913225  0.607058852  0.610108968
     0.648488411  0.105405070  0.610574027
     0.617385916  0.633010454  0.612497507
     0.360093862  0.383897904  0.606226905
     0.371539178  0.882640633  0.607746068
     0.892635032  0.363958060  0.612296356
     0.872560790  0.870309729  0.607380456
     0.124943632  0.364220121  0.610337529
     0.125155316  0.871317901  0.606742816
     0.584951752  0.332644719  0.602466143
     0.616989468  0.873050616  0.611262458
     0.386374589  0.134482969  0.606119767
     0.383872008  0.628185219  0.611578012
     0.886406003  0.135146953  0.611923967
     0.904959197  0.640546587  0.613082707
     0.000000000  0.000000000  0.754927972
     0.000000000  0.500000000  0.754927972
     0.500000000  0.000000000  0.754927972
     0.499999989  0.500000000  0.754927972
     0.250000496  0.250000000  0.754939022
     0.250000511  0.749999974  0.754939022
     0.750000470  0.250000000  0.754939022
     0.750000458  0.749999974  0.754939022
     0.135790500  0.114209997  0.704782994
     0.135790502  0.614209984  0.704782994
     0.635790447  0.114209997  0.704782994
     0.635790488  0.614209984  0.704782994
     0.364209516  0.385789989  0.704782994
     0.364209505  0.885789963  0.704782994
     0.864209542  0.385789989  0.704782994
     0.864209531  0.885789963  0.704782994
     0.114217990  0.364218986  0.704780979
     0.114217992  0.864218986  0.704780979
     0.614218004  0.364218986  0.704780979
     0.614217992  0.864218986  0.704780979
     0.385782012  0.135781489  0.704782017
     0.385782001  0.635781489  0.704782017
     0.885781985  0.135781489  0.704782017
     0.885782027  0.635781489  0.704782017
     0.134667000  0.115332001  0.801256025
     0.134666989  0.615331988  0.801256025
     0.634666987  0.115332001  0.801256025
     0.634666976  0.615331988  0.801256025
     0.365333002  0.384667985  0.801256025
     0.365332990  0.884667959  0.801256025
     0.865332949  0.384667985  0.801256025
     0.865332938  0.884667959  0.801256025
     0.115328503  0.365337004  0.801264999
     0.115328505  0.865336978  0.801264999
     0.615328503  0.365337004  0.801264999
     0.615328492  0.865336978  0.801264999
     0.384671513  0.134662996  0.801264999
     0.384671501  0.634662970  0.801264999
     0.884671486  0.134662996  0.801264999
     0.884671528  0.634662970  0.801264999
     0.996461910  0.997260342  0.605445681
     0.008981382  0.500945712  0.605573881
     0.500484290  0.006889621  0.603892087
     0.497842569  0.492537625  0.604652493
     0.244496438  0.242626431  0.602547885
     0.248388527  0.746226891  0.604051482
     0.741388393  0.249117486  0.602772967
     0.733802170  0.757335792  0.601847733
     0.000000500  0.000000500  0.704828963
     0.000000500  0.500000475  0.704828963
     0.500000475  0.000000500  0.704828963
     0.500000464  0.500000475  0.704828963
     0.249999994  0.249999472  0.704824995
     0.250000010  0.749999498  0.704824995
     0.749999994  0.249999472  0.704824995
     0.749999983  0.749999498  0.704824995
     0.000000000  0.000000000  0.807317968
     0.000000000  0.500000000  0.807317968
     0.500000000  0.000000000  0.807317968
     0.499999989  0.500000000  0.807317968
     0.249999994  0.250000000  0.807317968
     0.250000010  0.749999974  0.807317968
     0.749999994  0.250000000  0.807317968
     0.749999983  0.749999974  0.807317968

  ion indices of the primitive-cell ions
   primitive index   ion index
                 1           1
                 2           2
                 3           3
                 4           4
                 5           5
                 6           6
                 7           7
                 8           8
                 9           9
                10          10
                11          11
                12          12
                13          13
                14          14
                15          15
                16          16
                17          17
                18          18
                19          19
                20          20
                21          21
                22          22
                23          23
                24          24
                25          25
                26          26
                27          27
                28          28
                29          29
                30          30
                31          31
                32          32
                33          33
                34          34
                35          35
                36          36
                37          37
                38          38
                39          39
                40          40
                41          41
                42          42
                43          43
                44          44
                45          45
                46          46
                47          47
                48          48
                49          49
                50          50
                51          51
                52          52
                53          53
                54          54
                55          55
                56          56
                57          57
                58          58
                59          59
                60          60
                61          61
                62          62
                63          63
                64          64
                65          65
                66          66
                67          67
                68          68
                69          69
                70          70
                71          71
                72          72
                73          73
                74          74
                75          75
                76          76
                77          77
                78          78
                79          79
                80          80
                81          81
                82          82
                83          83
                84          84
                85          85
                86          86
                87          87
                88          88
                89          89
                90          90
                91          91
                92          92
                93          93
                94          94
                95          95
                96          96
                97          97
                98          98
                99          99
               100         100
               101         101
               102         102
               103         103
               104         104
               105         105
               106         106
               107         107
               108         108
               109         109
               110         110
               111         111
               112         112
               113         113
               114         114
               115         115
               116         116
               117         117
               118         118
               119         119
               120         120
               121         121
               122         122
               123         123
               124         124
               125         125
               126         126
               127         127
               128         128
               129         129
               130         130
               131         131
               132         132
               133         133
               134         134
               135         135
               136         136
               137         137
               138         138
               139         139
               140         140
               141         141
               142         142
               143         143
               144         144
               145         145
               146         146
               147         147
               148         148
               149         149
               150         150
               151         151
               152         152
               153         153
               154         154
               155         155
               156         156
               157         157
               158         158
               159         159
               160         160
               161         161
               162         162
               163         163
               164         164
               165         165
               166         166
               167         167
               168         168
               169         169
               170         170
               171         171
               172         172
               173         173
               174         174
               175         175
               176         176
               177         177
               178         178
               179         179
               180         180
               181         181
               182         182
               183         183
               184         184
               185         185
               186         186
               187         187
               188         188
               189         189
               190         190
               191         191
               192         192
               193         193
               194         194
               195         195
               196         196
               197         197
               198         198
               199         199
               200         200
               201         201
               202         202
               203         203
               204         204
               205         205
               206         206
               207         207
               208         208
               209         209
               210         210
               211         211
               212         212
               213         213
               214         214
               215         215
               216         216
               217         217
               218         218
               219         219
               220         220
               221         221
               222         222
               223         223
               224         224
               225         225
               226         226
               227         227
               228         228
               229         229
               230         230
               231         231
               232         232
               233         233
               234         234
               235         235
               236         236
               237         237
               238         238
               239         239
               240         240
               241         241
               242         242
               243         243
               244         244
               245         245
               246         246
               247         247
               248         248
               249         249
               250         250
               251         251
               252         252
               253         253
               254         254
               255         255
               256         256
               257         257
               258         258
               259         259
               260         260
               261         261
               262         262
               263         263
               264         264
               265         265
               266         266
               267         267
               268         268
               269         269
               270         270
               271         271
               272         272
               273         273
               274         274
               275         275
               276         276
               277         277
               278         278
               279         279
               280         280
               281         281
               282         282
               283         283
               284         284
               285         285
               286         286
               287         287
               288         288
               289         289
               290         290
               291         291
               292         292
               293         293
               294         294
               295         295
               296         296
               297         297
               298         298
               299         299
               300         300
               301         301
               302         302
               303         303
               304         304
               305         305
               306         306
               307         307
               308         308
               309         309
               310         310
               311         311
               312         312
               313         313
               314         314
               315         315
               316         316
               317         317
               318         318
               319         319
               320         320
               321         321
               322         322
               323         323
               324         324
               325         325

----------------------------------------------------------------------------------------

 
 
 KPOINTS: Automatic Mesh                          

Automatic generation of k-mesh.
 Grid dimensions read from file:
 generate k-points for:    3    3    1

 Generating k-lattice:

  Cartesian coordinates                     Fractional coordinates (reciprocal lattice)
     0.018456177  0.000005026 -0.000000000     0.333333333  0.000000000  0.000000000
     0.000000000  0.018454135  0.000000000     0.000000000  0.333333333  0.000000000
     0.000000000 -0.000000000  0.016003201     0.000000000  0.000000000  1.000000000

  Length of vectors
     0.018456178  0.018454135  0.016003201

  Shift w.r.t. Gamma in fractional coordinates (k-lattice)
     0.000000000  0.000000000  0.000000000

 
 Subroutine IBZKPT returns following result:
 ===========================================
 
 Found      5 irreducible k-points:
 
 Following reciprocal coordinates:
            Coordinates               Weight
  0.000000  0.000000  0.000000      1.000000
  0.333333  0.000000  0.000000      2.000000
  0.000000  0.333333  0.000000      2.000000
  0.333333  0.333333  0.000000      2.000000
 -0.333333  0.333333  0.000000      2.000000
 
 Following cartesian coordinates:
            Coordinates               Weight
  0.000000  0.000000  0.000000      1.000000
  0.018456  0.000005  0.000000      2.000000
  0.000000  0.018454  0.000000      2.000000
  0.018456  0.018459  0.000000      2.000000
 -0.018456  0.018449  0.000000      2.000000
 


--------------------------------------------------------------------------------------------------------




 Dimension of arrays:
   k-points           NKPTS =      5   k-points in BZ     NKDIM =      5   number of bands    NBANDS=    732
   number of dos      NEDOS =    301   number of ions     NIONS =    325
   non local maximal  LDIM  =      5   non local SUM 2l+1 LMDIM =     13
   total plane-waves  NPLWV = ******
   max r-space proj   IRMAX =   3336   max aug-charges    IRDMAX=  19845
   dimension x,y,z NGX =   100 NGY =  100 NGZ =  350
   dimension x,y,z NGXF=   200 NGYF=  200 NGZF=  700
   support grid    NGXF=   200 NGYF=  200 NGZF=  700
   ions per type =             143  39  47  72  24
   NGX,Y,Z   is equivalent  to a cutoff of   9.20,  9.20,  9.31 a.u.
   NGXF,Y,Z  is equivalent  to a cutoff of  18.41, 18.41, 18.62 a.u.

 SYSTEM =  PSC                                     
 POSCAR =   H  C  N  I Pb                          

 Startparameter for this run:
   NWRITE =      2    write-flag & timer
   PREC   = normal    normal or accurate (medium, high low for compatibility)
   ISTART =      0    job   : 0-new  1-cont  2-samecut
   ICHARG =      1    charge: 1-file 2-atom 10-const
   ISPIN  =      1    spin polarized calculation?
   LNONCOLLINEAR =      F non collinear calculations
   LSORBIT =      F    spin-orbit coupling
   INIWAV =      1    electr: 0-lowe 1-rand  2-diag
   LASPH  =      F    aspherical Exc in radial PAW
 Electronic Relaxation 1
   ENCUT  =  500.0 eV  36.75 Ry    6.06 a.u.  32.93 32.93113.93*2*pi/ulx,y,z
   ENINI  =  500.0     initial cutoff
   ENAUG  =  644.9 eV  augmentation charge cutoff
   NELM   =    600;   NELMIN=  2; NELMDL=  0     # of ELM steps 
   EDIFF  = 0.1E-03   stopping-criterion for ELM
   LREAL  =      T    real-space projection
   NLSPLINE    = F    spline interpolate recip. space projectors
   LCOMPAT=      F    compatible to vasp.4.4
   GGA_COMPAT  = F    GGA compatible to vasp.4.4-vasp.4.6
   LMAXPAW     = -100 max onsite density
   LMAXMIX     =    2 max onsite mixed and CHGCAR
   VOSKOWN=      0    Vosko Wilk Nusair interpolation
   ROPT   =   -0.00050  -0.00050  -0.00050  -0.00050
   ROPT   =   -0.00050
 Ionic relaxation
   EDIFFG = 0.1E-02   stopping-criterion for IOM
   NSW    =      0    number of steps for IOM
   NBLOCK =      1;   KBLOCK =      1    inner block; outer block 
   IBRION =     -1    ionic relax: 0-MD 1-quasi-New 2-CG
   NFREE  =      0    steps in history (QN), initial steepest desc. (CG)
   ISIF   =      2    stress and relaxation
   IWAVPR =     10    prediction:  0-non 1-charg 2-wave 3-comb
   ISYM   =      0    0-nonsym 1-usesym 2-fastsym
   LCORR  =      T    Harris-Foulkes like correction to forces

   POTIM  = 0.5000    time-step for ionic-motion
   TEIN   =    0.0    initial temperature
   TEBEG  =    0.0;   TEEND  =   0.0 temperature during run
   SMASS  =  -3.00    Nose mass-parameter (am)
   estimated Nose-frequenzy (Omega)   =  0.10E-29 period in steps = 0.13E+47 mass=  -0.745E-26a.u.
   SCALEE = 1.0000    scale energy and forces
   NPACO  =    256;   APACO  = 16.0  distance and # of slots for P.C.
   PSTRESS=    0.0 pullay stress

  Mass of Ions in am
   POMASS =   1.00 12.01 14.00126.90207.20
  Ionic Valenz
   ZVAL   =   1.00  4.00  5.00  7.00  4.00
  Atomic Wigner-Seitz radii
   RWIGS  =  -1.00 -1.00 -1.00 -1.00 -1.00
  virtual crystal weights 
   VCA    =   1.00  1.00  1.00  1.00  1.00
   NELECT =    1134.0000    total number of electrons
   NUPDOWN=      -1.0000    fix difference up-down

 DOS related values:
   EMIN   =  10.00;   EMAX   =-10.00  energy-range for DOS
   EFERMI =   0.00
   ISMEAR =     0;   SIGMA  =   0.05  broadening in eV -4-tet -1-fermi 0-gaus

 Electronic relaxation 2 (details)
   IALGO  =     38    algorithm
   LDIAG  =      T    sub-space diagonalisation (order eigenvalues)
   LSUBROT=      F    optimize rotation matrix (better conditioning)
   TURBO    =      0    0=normal 1=particle mesh
   IRESTART =      0    0=no restart 2=restart with 2 vectors
   NREBOOT  =      0    no. of reboots
   NMIN     =      0    reboot dimension
   EREF     =   0.00    reference energy to select bands
   IMIX   =      4    mixing-type and parameters
     AMIX     =   0.40;   BMIX     =  0.01
     AMIX_MAG =   1.60;   BMIX_MAG =  0.01
     AMIN     =   0.01
     WC   =   100.;   INIMIX=   1;  MIXPRE=   1;  MAXMIX= -45

 Intra band minimization:
   WEIMIN = 0.0000     energy-eigenvalue tresh-hold
   EBREAK =  0.34E-07  absolut break condition
   DEPER  =   0.30     relativ break condition  

   TIME   =   0.40     timestep for ELM

  volume/ion in A,a.u.               =      62.72       423.28
  Fermi-wavevector in a.u.,A,eV,Ry     =   0.624944  1.180972  5.313816  0.390554
  Thomas-Fermi vector in A             =   1.685677
 
 Write flags
   LWAVE        =      F    write WAVECAR
   LDOWNSAMPLE  =      F    k-point downsampling of WAVECAR
   LCHARG       =      T    write CHGCAR
   LVTOT        =      T    write LOCPOT, total local potential
   LVHAR        =      F    write LOCPOT, Hartree potential only
   LELF         =      F    write electronic localiz. function (ELF)
   LORBIT       =      0    0 simple, 1 ext, 2 COOP (PROOUT), +10 PAW based schemes


 Dipole corrections
   LMONO  =      F    monopole corrections only (constant potential shift)
   LDIPOL =      T    correct potential (dipole corrections)
   IDIPOL =      3    1-x, 2-y, 3-z, 4-all directions 
   EPSILON=  1.0000000 bulk dielectric constant

 Exchange correlation treatment:
   GGA     =    --    GGA type
   LEXCH   =     8    internal setting for exchange type
   VOSKOWN=      0    Vosko Wilk Nusair interpolation
   LHFCALC =     F    Hartree Fock is set to
   LHFONE  =     F    Hartree Fock one center treatment
   AEXX    =    0.0000 exact exchange contribution

 Linear response parameters
   LEPSILON=     F    determine dielectric tensor
   LRPA    =     F    only Hartree local field effects (RPA)
   LNABLA  =     F    use nabla operator in PAW spheres
   LVEL    =     F    velocity operator in full k-point grid
   LINTERFAST=   F  fast interpolation
   KINTER  =     0    interpolate to denser k-point grid
   CSHIFT  =0.1000    complex shift for real part using Kramers Kronig
   OMEGAMAX=  -1.0    maximum frequency
   DEG_THRESHOLD= 0.2000000E-02 threshold for treating states as degnerate
   RTIME   =   -0.100 relaxation time in fs
  (WPLASMAI=    0.000 imaginary part of plasma frequency in eV, 0.658/RTIME)
   DFIELD  = 0.0000000 0.0000000 0.0000000 field for delta impulse in time
 
 Orbital magnetization related:
   ORBITALMAG=     F  switch on orbital magnetization
   LCHIMAG   =     F  perturbation theory with respect to B field
   DQ        =  0.001000  dq finite difference perturbation B field
   LLRAUG    =     F  two centre corrections for induced B field



--------------------------------------------------------------------------------------------------------


 Static calculation
 charge density and potential will be updated during run
 non-spin polarized calculation
 Variant of blocked Davidson
 Davidson routine will perform the subspace rotation
 perform sub-space diagonalisation
    after iterative eigenvector-optimisation
 modified Broyden-mixing scheme, WC =      100.0
 initial mixing is a Kerker type mixing with AMIX =  0.4000 and BMIX =      0.0100
 Hartree-type preconditioning will be used
 using additional bands           165
 real space projection scheme for non local part
[...]
     13.54561      0.00000     45.35368        -0.000165     -0.004299      0.015202
     13.54315      9.03140     45.35368         0.004894     -0.008889     -0.003236
     13.99314     10.02572     32.51575         0.161167      0.100624     -0.171768
     13.02143      8.59202     32.83667         0.009244      0.200183      0.194361
     15.73773      9.04811     33.84097         0.063439      0.003535     -0.167487
     15.46211      8.69597     35.52883         0.006874     -0.106557      0.003184
     13.42436     11.56372     34.96093        -0.100542      0.144129      0.095883
     14.56640     10.81396     36.10136        -0.048068     -0.130077     -0.133721
     12.05500      9.91850     35.62362        -0.002426      0.016511     -0.038673
     12.21484      8.25930     35.04927         0.184668     -0.011951      0.013699
     11.12912      9.99799     33.60555        -0.061528      0.060021     -0.116616
     12.11702     11.47248     33.47833        -0.022459     -0.288726     -0.073112
     10.95115     11.63532     31.53514        -0.133853      0.334281     -0.007374
     12.39886     10.84891     30.93971         0.094396      0.035875     -0.010972
     14.31042      7.06153     33.15797        -0.079061      0.046562     -0.157631
     14.03345      6.68102     34.84433        -0.282272     -0.172849      0.362957
     15.65384      6.62565     34.17713         0.086093     -0.042983      0.098903
     15.60655     12.54771     34.73984         0.012751     -0.079687     -0.080877
     15.26415     11.69643     33.22927        -0.013529      0.031771     -0.056463
     16.38997     10.97766     34.42172         0.129598      0.031833     -0.014492
     13.69402      9.54314     37.48024        -0.031539     -0.038893     -0.230774
     14.02794      7.89658     36.89234        -0.201809      0.104391     -0.073359
     12.41950      8.34545     37.46806        -0.129725     -0.116052      0.087776
      9.64964      9.56570     31.46330         0.217469      0.051491     -0.010581
     10.40186      9.88009     29.89137         0.095130      0.043401      0.174284
     12.54353      8.59045     29.25086        -0.146533     -0.281819      0.342589
     10.14092      7.57989     32.71154         0.100300     -0.073946     -0.135849
     13.73562      6.41477     29.45584        -0.143561      0.109109      0.138605
     11.37184      5.40967     32.90163        -0.037695      0.018762     -0.002346
     13.17039      4.83460     31.31305        -0.069460      0.210687     -0.034548
      0.37020      4.51700     34.91256         0.436936      0.566608     -0.522943
      0.57958     13.67811     35.02279        -0.025215     -0.250512      0.267424
      8.35604      4.12738     34.61497         0.206737     -0.224121     -0.035406
      9.06026     13.77306     34.82687        -0.137622     -0.027433     -0.130132
      4.33231      9.50577     34.90716        -0.176883     -0.207881      0.007874
      4.49836      0.18593     34.65688        -0.284324     -0.085932      0.024289
     13.88521     17.70189     35.12699         0.336873      0.104161     -0.045070
      0.17684      4.41782     40.64371         0.633662     -0.634197     -0.705187
      0.10485     13.73993     40.75621         0.486911      0.012107     -0.081802
      8.84165      4.22021     40.83783         0.009705     -0.251668     -0.084655
      8.95696     13.68752     40.57596        -0.037671     -0.005259      0.373611
      4.65814      8.97783     40.54975        -0.377967     -0.402961      0.057356
      4.54069     18.03180     40.42854         0.216177      0.207877     -0.066458
     13.99796      8.82764     40.87011         0.440127      0.445197     -0.099793
     13.64881     18.00098     40.62814         0.231416      0.211485     -0.083811
      9.02897      4.51561     46.44552         0.010776     -0.001384      0.001416
      9.02651     13.54701     46.44552         0.005448      0.011472      0.039632
     18.05937      4.51561     46.44552        -0.002638      0.020315      0.052729
     18.05691     13.54701     46.44552         0.008643      0.012875      0.012947
      4.51521      0.00002     46.44421         0.006447      0.005292      0.059788
      4.51275      9.03142     46.44421        -0.011094     -0.012182      0.036379
     13.54561      0.00002     46.44421        -0.006512     -0.008548      0.016561
     13.54315      9.03142     46.44421        -0.007329     -0.013102      0.013575
     11.26231      8.24759     30.98069         0.121815     -0.416321     -0.050902
     12.27082      7.88847     30.06362        -0.011995      0.513136     -0.140405
     10.92334      7.32040     31.98675         0.105229      0.108761     -0.082910
     12.95433      6.67850     30.18145         0.237708     -0.098631     -0.367122
     11.61147      6.10823     32.09823         0.017246     -0.001348      0.024566
     12.63870      5.78848     31.20387        -0.108168     -0.305174      0.212162
     13.20505      9.62910     33.15871         0.307300     -0.144538     -0.153841
     15.01516      8.60770     34.53024        -0.008215      0.363819      0.074743
     14.30332     10.92122     35.03801        -0.062308     -0.008407     -0.153367
     12.76435      9.08706     35.52352        -0.122586     -0.077636      0.294653
     11.94597     10.46749     33.03510        -0.046726      0.424416      0.219679
     11.51168     10.70203     31.57295        -0.015973     -0.352789     -0.024954
     14.71059      7.18231     34.16645         0.252276     -0.038208     -0.312647
     15.46531     11.54973     34.29658        -0.116981     -0.076395      0.056069
     13.27846      8.70424     36.89776         0.229076     -0.000443      0.071357
     10.62518      9.60609     30.94074        -0.249353     -0.002480     -0.003269
      0.08044      3.39494     35.49238        -0.463959     -0.761968      0.501200
      0.58878     12.56908     35.72563         0.019682     -0.124818     -0.202487
      9.64028      3.99419     34.86035         0.031697     -0.005932      0.061560
      8.69804     12.61199     35.33236         0.008107      0.138880      0.039665
      7.63404      5.15244     34.98223        -0.029359      0.298304      0.134217
      8.38062     14.89452     34.96169         0.591074     -0.310319     -0.232407
     18.04012      5.69518     35.33315        -0.233393      0.202397      0.093349
     17.81092     14.67090     35.24054        -0.232023     -0.016072      0.052660
      4.40593      8.24856     35.28093        -0.081152     -0.071639      0.083204
      3.41477     17.57642     34.97934        -0.240591      0.169236      0.001720
     12.59046     17.81880     35.24839        -0.796804     -0.856293     -0.123332
      5.68793     17.95595     35.09370         0.962975      0.425555     -0.326180
      5.29161     10.38212     35.03978        -0.109225      0.837676     -0.294667
     14.74802      0.55164     35.50757         0.210732     -0.182582     -0.096549
      0.99997      3.45802     41.03055        -0.497186      0.541599     -0.050697
      1.03638     12.89824     41.15086        -0.190011      0.353389     -0.467416
     10.12753      3.98834     40.95354        -0.186500      0.550638      0.247404
      9.61076     12.78555     41.26599         0.374063     -0.511008      0.047832
      3.82153      8.11416     41.08438        -0.031493     -0.005472     -0.129541
      3.74195     17.27730     41.14242        -0.541090     -0.526832     -0.515416
     12.93523      8.28803     41.40469        -0.142245     -0.461574     -0.014825
     12.74717     17.25631     41.21803        -0.215528     -0.373147     -0.574897
      8.22145      5.28603     41.27243         0.065871      0.191286      0.173227
      8.16599     14.59885     41.08360        -0.044108      0.008214      0.169753
     17.49766      5.14989     41.42117        -0.504563      0.497781      0.550382
     16.98401     13.86041     41.29509        -0.123130      0.081699     -0.070055
      5.44597      0.80188     40.90481        -0.107223     -0.118006     -0.099722
      5.39602      9.83217     41.21489         0.428307      0.441486     -0.582951
     14.36728      0.88023     41.20464        -0.116213     -0.078323      0.163783
     14.32518     10.10323     40.96442        -0.195410     -0.727832     -0.022112
      0.82731      3.68697     47.03596         0.026353     -0.035529     -0.090103
      0.82485     12.71837     47.03596         0.025804     -0.030100     -0.069459
      9.85771      3.68697     47.03596         0.020921     -0.025134     -0.068714
      9.85525     12.71837     47.03596         0.026160     -0.030298     -0.101126
      3.68432      8.20234     47.03465        -0.008207     -0.003756     -0.067353
      3.68186     17.23373     47.03465        -0.012826     -0.010368     -0.061816
     12.71472      8.20234     47.03465        -0.014610     -0.008259     -0.071150
     12.71226     17.23373     47.03465        -0.011924     -0.012187     -0.059821
      8.20068      5.34457     47.03603        -0.023351      0.023709     -0.068382
      8.19822     14.37597     47.03603        -0.018546      0.012726     -0.096609
     17.23108      5.34457     47.03603        -0.007600      0.004331     -0.087771
     17.22862     14.37597     47.03603        -0.015815      0.014085     -0.066822
      5.34365      0.82909     47.03465         0.001764      0.001635     -0.066177
      5.34119      9.86049     47.03465         0.018210      0.022006     -0.068682
     14.37405      0.82909     47.03465         0.022671      0.018917     -0.060001
     14.37159      9.86049     47.03465         0.020948      0.025571     -0.074183
     13.82860      9.55703     34.54879        -0.179664     -0.070544      0.101440
      9.13351      0.36083     34.46804         0.006839     -0.050886      0.009587
      8.58654      9.03584     34.69312         0.039674      0.014078      0.017654
     18.06046      0.03335     34.35793         0.012604      0.011289     -0.004051
      0.71770      9.09795     34.54883        -0.047291     -0.037872      0.042307
      4.16040      4.34095     34.49205         0.031512     -0.007391      0.052662
      4.48856     13.89604     34.60094         0.066753     -0.093758     -0.017930
     13.28565      3.65474     34.69968         0.048321      0.072990     -0.003854
     12.74080     14.30932     34.51428        -0.027048     -0.061703     -0.035947
      0.03114     17.73636     40.86480        -0.016652      0.011658      0.049207
      0.11920      8.94832     40.94516        -0.035338      0.030079      0.016729
      9.07346      0.21999     40.89069         0.001280      0.009500     -0.016836
      9.30538      8.81059     40.93261        -0.025407      0.007895      0.062237
      4.69907      4.43115     40.89885         0.010421      0.002775     -0.032208
      4.52149     13.64425     40.90715         0.084222     -0.007980      0.013771
     13.62419      4.74797     40.91043        -0.031388      0.032585     -0.002193
     13.44071     13.63250     40.87217         0.012889     -0.041677      0.030949
      2.42964      1.94038     37.99685         0.037005      0.034262     -0.017602
      2.66845     10.96518     38.12418         0.036005     -0.021676     -0.036237
     11.71170      1.90391     38.15324        -0.006335     -0.005389      0.018517
     11.14737     11.43394     38.27344        -0.046937     -0.130882     -0.200449
      6.50170      6.93427     37.88160         0.012953      0.051939      0.046308
      6.70595     15.94296     37.97653        -0.032838      0.019772     -0.070797
     16.11991      6.57410     38.26087        -0.050299      0.013106     -0.188425
     15.75487     15.72023     37.95369         0.004073      0.072064     -0.009671
      2.25479      6.57884     38.13847        -0.023660      0.007419     -0.035753
      2.25612     15.73844     37.91384        -0.017795     -0.029391      0.046528
     10.56306      6.00849     37.64660         0.065291      0.064952     -0.008458
     11.13903     15.76974     38.19626        -0.017239     -0.005321      0.019787
      6.97757      2.42914     37.87491        -0.010764     -0.008211     -0.049281
      6.92995     11.34678     38.21598         0.006336      0.057509     -0.039100
     16.00854      2.44113     38.23760         0.015266     -0.014516      0.048178
     16.34114     11.57006     38.31001        -0.136325      0.025693     -0.230821
      0.00000      0.00000     47.17356         0.001484      0.004997      0.309180
     -0.00246      9.03140     47.17356        -0.002359      0.003571      0.429865
      9.03040      0.00000     47.17356        -0.002431     -0.004417      0.392919
      9.02794      9.03140     47.17356         0.005360      0.004213      0.429003
      4.51398      4.51570     47.17425        -0.004175     -0.004105      0.446167
      4.51152     13.54710     47.17425         0.005757     -0.000664      0.414988
     13.54438      4.51570     47.17425         0.003029      0.001856      0.437242
     13.54192     13.54710     47.17425        -0.006428     -0.007734      0.395183
      2.45192      2.06295     44.04013        -0.010894     -0.040170     -0.022130
      2.44946     11.09435     44.04013         0.031264     -0.018734     -0.032704
     11.48232      2.06295     44.04013         0.065344     -0.030390     -0.060776
     11.47986     11.09435     44.04013         0.016224     -0.025912     -0.096894
      6.57602      6.96845     44.04013        -0.027426      0.075334     -0.002457
      6.57356     15.99985     44.04013        -0.009666      0.010053     -0.029759
     15.60642      6.96845     44.04013         0.059977     -0.013621      0.023213
     15.60396     15.99985     44.04013        -0.031224      0.015718      0.001562
      2.06108      6.57881     44.04000         0.027038     -0.000430     -0.027424
      2.05862     15.61021     44.04000         0.052233      0.040729      0.006742
     11.09148      6.57881     44.04000        -0.033231     -0.061422     -0.009073
     11.08902     15.61021     44.04000        -0.037425     -0.005660     -0.016574
      6.96686      2.45259     44.04007        -0.053735     -0.090134     -0.025285
      6.96440     11.48399     44.04007         0.043753      0.023329     -0.037141
     15.99726      2.45259     44.04007         0.039893      0.027487     -0.039600
     15.99481     11.48399     44.04007         0.005253      0.039821     -0.062057
      2.43163      2.08322     50.06849        -0.001165     -0.021371      0.022515
      2.42917     11.11462     50.06849         0.013527     -0.007581      0.023891
     11.46203      2.08322     50.06849         0.007471     -0.015046      0.026119
     11.45957     11.11462     50.06849         0.013006     -0.005692      0.021260
      6.59631      6.94818     50.06849        -0.010505      0.012241      0.024979
      6.59385     15.97958     50.06849        -0.010648      0.008563      0.021664
     15.62671      6.94818     50.06849        -0.008838      0.011385      0.023436
     15.62425     15.97958     50.06849        -0.006200      0.015248      0.024554
      2.08113      6.59901     50.06905        -0.013141     -0.008811      0.023551
      2.07867     15.63041     50.06905        -0.016498     -0.003983      0.023387
     11.11153      6.59901     50.06905        -0.010094     -0.009015      0.023767
     11.10907     15.63041     50.06905        -0.009525     -0.014083      0.023839
      6.94681      2.43239     50.06905         0.012325      0.004778      0.024803
      6.94435     11.46379     50.06905         0.007872      0.013163      0.022493
     15.97721      2.43239     50.06905         0.020614      0.000193      0.024132
     15.97475     11.46379     50.06905         0.005220      0.013219      0.023055
     17.99199     18.01331     37.83279        -0.001826      0.008920     -0.012701
      0.15975      9.04848     37.84080         0.009415     -0.021729     -0.029342
      9.03911      0.12445     37.73571         0.053877      0.074495      0.003994
      8.98901      8.89661     37.78322         0.001361     -0.007640      0.031973
      4.41461      4.38251     37.65171        -0.002432      0.021135      0.023025
      4.48243     13.47895     37.74567         0.010945     -0.014897     -0.021711
     13.38884      4.49976     37.66578        -0.028488     -0.070509     -0.039410
     13.24933     13.67960     37.60796         0.063098     -0.070955      0.086677
      0.00001      0.00001     44.04300        -0.053384     -0.134510      0.156751
     -0.00245      9.03141     44.04300        -0.019238     -0.073316      0.172813
      9.03041      0.00001     44.04300         0.027534      0.109257      0.112458
      9.02795      9.03141     44.04300        -0.082192     -0.068514      0.159990
      4.51397      4.51569     44.04275         0.072407      0.021271      0.045668
      4.51151     13.54709     44.04275        -0.096310      0.023256      0.134385
     13.54437      4.51569     44.04275        -0.023118      0.009253      0.181957
     13.54191     13.54709     44.04275         0.013976      0.155759      0.075144
      0.00000      0.00000     50.44728        -0.000449      0.004227     -0.604797
     -0.00246      9.03140     50.44728         0.000121     -0.005470     -0.634350
      9.03040      0.00000     50.44728         0.000188      0.008276     -0.627805
      9.02794      9.03140     50.44728        -0.001692     -0.008447     -0.632726
      4.51397      4.51570     50.44728         0.005525      0.005936     -0.642082
      4.51151     13.54710     50.44728         0.002053     -0.006875     -0.630619
     13.54437      4.51570     50.44728        -0.006865      0.004532     -0.640970
     13.54191     13.54710     50.44728        -0.002884     -0.005485     -0.626427
 -----------------------------------------------------------------------------------
    total drift:                                0.156055      0.140157      0.263805


--------------------------------------------------------------------------------------------------------



  FREE ENERGIE OF THE ION-ELECTRON SYSTEM (eV)
  ---------------------------------------------------
  free  energy   TOTEN  =     -1575.67752660 eV

  energy  without entropy=    -1575.67752660  energy(sigma->0) =    -1575.67752660
 


--------------------------------------------------------------------------------------------------------


    POTLOK:  cpu time    0.5037: real time    0.5037


--------------------------------------------------------------------------------------------------------


     LOOP+:  cpu time  306.4670: real time  306.8368
 vacuum level on the upper side and lower side of the slab         2.303         1.608
    4ORBIT:  cpu time    0.0000: real time    0.0000

 total amount of memory used by VASP MPI-rank0  8653579. kBytes
=======================================================================

   base      :      30000. kBytes
   nonlr-proj:      53617. kBytes
   fftplans  :     249280. kBytes
   grid      :     701440. kBytes
   one-center:       2636. kBytes
   wavefun   :    7616606. kBytes
 
  
  
 General timing and accounting informations for this job:
 ========================================================
  
                  Total CPU time used (sec):      520.864
                            User time (sec):      421.767
                          System time (sec):       99.097
                         Elapsed time (sec):      523.391
  
                   Maximum memory used (kb):    10307584.
                   Average memory used (kb):          N/A
  
                          Minor page faults:      3685444
                          Major page faults:           12
                 Voluntary context switches:        11046
