<?xml version="1.0" encoding="ISO-8859-1"?>
<modeling>
 <generator>
  <i name="program" type="string">vasp </i>
  <i name="version" type="string">6.2.1  </i>
  <i name="subversion" type="string">16May21 (build Nov 15 2021 14:57:28) complex                          parallel </i>
  <i name="platform" type="string">LinuxPGI </i>
  <i name="date" type="string">2023 07 25 </i>
  <i name="time" type="string">00:50:24 </i>
 </generator>
 <incar>
  <i type="string" name="SYSTEM">PSC</i>
  <i type="int" name="ISTART">     1</i>
  <i type="string" name="PREC">Normal</i>
  <i name="BMIX">      0.01000000</i>
  <i name="AMIN">      0.01000000</i>
  <i type="int" name="ICHARG">     1</i>
  <i type="int" name="NELM">   600</i>
  <i type="int" name="ISYM">     0</i>
  <i name="ENCUT">    500.00000000</i>
  <i type="string" name="LREAL">Auto</i>
  <i type="int" name="ISMEAR">     0</i>
  <i name="SIGMA">      0.05000000</i>
  <i type="logical" name="LWAVE"> F  </i>
  <i type="logical" name="LVTOT"> T  </i>
  <i type="logical" name="GGA_COMPAT"> F  </i>
  <i type="logical" name="LDIPOL"> T  </i>
  <i type="int" name="IDIPOL">     3</i>
  <i type="int" name="IVDW">    12</i>
 </incar>
 <primitive_cell>
  <structure name="primitive_cell" >
   <crystal>
    <varray name="basis" >
     <v>      18.06080055       0.00000000       0.00000000 </v>
     <v>      -0.00491865      18.06279945       0.00000000 </v>
     <v>       0.00000000       0.00000000      62.48749924 </v>
    </varray>
    <i name="volume">  20385.21054034 </i>
    <varray name="rec_basis" >
     <v>       0.05536853       0.00001508      -0.00000000 </v>
     <v>       0.00000000       0.05536240       0.00000000 </v>
     <v>       0.00000000      -0.00000000       0.01600320 </v>
    </varray>
   </crystal>
   <varray name="positions" >
    <v>       0.44287495       0.32629817       0.56949934 </v>
    <v>       0.41964614       0.82806111       0.56925937 </v>
    <v>       0.96536481       0.32157756       0.57866200 </v>
    <v>       0.94841204       0.81257945       0.57633769 </v>
    <v>       0.32506865       0.95351104       0.57257412 </v>
    <v>       0.34234793       0.56292303       0.56785967 </v>
    <v>       0.80033746       0.07901799       0.57514989 </v>
    <v>       0.01856058       0.13738012       0.56168510 </v>
    <v>       0.06454581       0.65154899       0.56735896 </v>
    <v>       0.56037117       0.17365105       0.55356507 </v>
    <v>       0.51183370       0.65089620       0.56275917 </v>
    <v>       0.36243447       0.02108298       0.55610378 </v>
    <v>       0.28523214       0.62917042       0.55581979 </v>
    <v>       0.87172684       0.02312385       0.56489595 </v>
    <v>       0.97233435       0.18585614       0.58158697 </v>
    <v>       0.99653745       0.68595488       0.58416109 </v>
    <v>       0.56069622       0.25639370       0.56829580 </v>
    <v>       0.43788947       0.69299308       0.57583948 </v>
    <v>       0.28710797       0.43717440       0.57372370 </v>
    <v>       0.19057524       0.93108647       0.57078708 </v>
    <v>       0.67264309       0.02982322       0.57165163 </v>
    <v>       0.36686705       0.28433617       0.55713982 </v>
    <v>       0.48577665       0.87356751       0.55402738 </v>
    <v>       0.01979428       0.36344299       0.55912343 </v>
    <v>       0.99412488       0.86169779       0.55637923 </v>
    <v>       0.19787508       0.42434720       0.56390301 </v>
    <v>       0.13741367       0.99067440       0.55511249 </v>
    <v>       0.66511143       0.94037730       0.56087262 </v>
    <v>       0.43508830       0.18426755       0.54506288 </v>
    <v>       0.55323233       0.76456100       0.54799907 </v>
    <v>       0.05549886       0.24822090       0.54447285 </v>
    <v>       0.07310252       0.76360795       0.54773523 </v>
    <v>       0.18761152       0.54328509       0.55140338 </v>
    <v>       0.24338075       0.05774455       0.54399485 </v>
    <v>       0.78967215       0.92895727       0.55480762 </v>
    <v>       0.48218913       0.33475140       0.66824639 </v>
    <v>       0.44048530       0.81401397       0.67341637 </v>
    <v>       0.96773001       0.28024028       0.67912057 </v>
    <v>       0.92275958       0.73401499       0.67289795 </v>
    <v>       0.31152057       0.05294833       0.67051778 </v>
    <v>       0.29924039       0.55024662       0.67571926 </v>
    <v>       0.79158483       0.06206906       0.67527593 </v>
    <v>       0.76230132       0.59571727       0.66405115 </v>
    <v>       0.08417433       0.16382672       0.64516139 </v>
    <v>       0.10838175       0.71611087       0.65139842 </v>
    <v>       0.58285963       0.17405470       0.64944655 </v>
    <v>       0.56576018       0.67109713       0.65230723 </v>
    <v>       0.18291151       0.41458747       0.64739340 </v>
    <v>       0.17099283       0.92191603       0.65041915 </v>
    <v>       0.70929306       0.40223407       0.66178843 </v>
    <v>       0.67821210       0.91671145       0.65052104 </v>
    <v>       0.06470223       0.17686885       0.67223907 </v>
    <v>       0.05109339       0.67785181       0.67080305 </v>
    <v>       0.59644457       0.25749376       0.66222803 </v>
    <v>       0.53035832       0.70199482       0.67667306 </v>
    <v>       0.20111341       0.44518701       0.67353425 </v>
    <v>       0.20674592       0.95428436       0.67465551 </v>
    <v>       0.67858422       0.48856919       0.67106470 </v>
    <v>       0.69163341       0.95849151       0.67531079 </v>
    <v>       0.39871723       0.29482060       0.65961582 </v>
    <v>       0.42656498       0.84374773       0.64736752 </v>
    <v>       0.93573310       0.32525140       0.65646394 </v>
    <v>       0.90360353       0.80300940       0.65433058 </v>
    <v>       0.33257761       0.07433547       0.64403684 </v>
    <v>       0.33278509       0.57937306       0.65096162 </v>
    <v>       0.83282327       0.07751070       0.65046879 </v>
    <v>       0.83892162       0.57876620       0.64781921 </v>
    <v>       0.00598144       0.25624343       0.63310136 </v>
    <v>       0.01908651       0.79826198       0.63896917 </v>
    <v>       0.45701221       0.19156356       0.64521731 </v>
    <v>       0.50346283       0.75742539       0.63213516 </v>
    <v>       0.24643701       0.99451826       0.62951092 </v>
    <v>       0.26201191       0.49617702       0.63143342 </v>
    <v>       0.76712601       0.98698660       0.63313982 </v>
    <v>       0.81225030       0.45279146       0.64484809 </v>
    <v>       0.44874502       0.30128397       0.76888902 </v>
    <v>       0.44874501       0.80128391       0.76888902 </v>
    <v>       0.94874497       0.30128397       0.76888902 </v>
    <v>       0.94874501       0.80128391       0.76888902 </v>
    <v>       0.30127600       0.05129450       0.76887296 </v>
    <v>       0.30127601       0.55129450       0.76887296 </v>
    <v>       0.80127594       0.05129450       0.76887296 </v>
    <v>       0.80127598       0.55129450       0.76887296 </v>
    <v>       0.07877100       0.17118050       0.74344197 </v>
    <v>       0.07877101       0.67118045       0.74344197 </v>
    <v>       0.57877100       0.17118050       0.74344197 </v>
    <v>       0.57877099       0.67118045       0.74344197 </v>
    <v>       0.17119950       0.42117448       0.74342103 </v>
    <v>       0.17119950       0.92117451       0.74342103 </v>
    <v>       0.67119951       0.42117448       0.74342103 </v>
    <v>       0.67119950       0.92117451       0.74342103 </v>
    <v>       0.05125600       0.19871499       0.76888902 </v>
    <v>       0.05125600       0.69871493       0.76888902 </v>
    <v>       0.55125603       0.19871499       0.76888902 </v>
    <v>       0.55125602       0.69871493       0.76888902 </v>
    <v>       0.19872349       0.44870397       0.76887205 </v>
    <v>       0.19872349       0.94870397       0.76887205 </v>
    <v>       0.69872352       0.44870397       0.76887205 </v>
    <v>       0.69872351       0.94870397       0.76887205 </v>
    <v>       0.42123152       0.32881747       0.74344197 </v>
    <v>       0.42123151       0.82881744       0.74344197 </v>
    <v>       0.92123147       0.32881747       0.74344197 </v>
    <v>       0.92123151       0.82881744       0.74344197 </v>
    <v>       0.32880050       0.07882500       0.74342103 </v>
    <v>       0.32880049       0.57882496       0.74342103 </v>
    <v>       0.82880048       0.07882500       0.74342103 </v>
    <v>       0.82880052       0.57882496       0.74342103 </v>
    <v>       0.00000350       0.25000148       0.72582199 </v>
    <v>       0.00000350       0.75000145       0.72582199 </v>
    <v>       0.50000351       0.25000148       0.72582199 </v>
    <v>       0.50000350       0.75000145       0.72582199 </v>
    <v>       0.25000050       0.00000000       0.72580398 </v>
    <v>       0.25000052       0.50000000       0.72580398 </v>
    <v>       0.75000050       0.00000000       0.72580398 </v>
    <v>       0.75000049       0.50000000       0.72580398 </v>
    <v>       0.77493094       0.55504810       0.52035615 </v>
    <v>       0.72110684       0.47567494       0.52549188 </v>
    <v>       0.87151152       0.50092528       0.54156389 </v>
    <v>       0.85624567       0.48142973       0.56857496 </v>
    <v>       0.74346162       0.64019554       0.55948684 </v>
    <v>       0.80668304       0.59868672       0.57773738 </v>
    <v>       0.66761694       0.54911190       0.57009187 </v>
    <v>       0.67644217       0.45725493       0.56090046 </v>
    <v>       0.61635392       0.55351301       0.53779629 </v>
    <v>       0.67107471       0.63514396       0.53576042 </v>
    <v>       0.60652436       0.64415911       0.50466316 </v>
    <v>       0.68667029       0.60062176       0.49513440 </v>
    <v>       0.79245336       0.39094339       0.53063360 </v>
    <v>       0.77711225       0.36987729       0.55762087 </v>
    <v>       0.86683003       0.36681207       0.54694344 </v>
    <v>       0.86430121       0.69467147       0.55594866 </v>
    <v>       0.84533006       0.64754244       0.53177476 </v>
    <v>       0.90765391       0.60774966       0.55085768 </v>
    <v>       0.75836146       0.52833114       0.59980374 </v>
    <v>       0.77682543       0.43717345       0.59039549 </v>
    <v>       0.68777543       0.46202420       0.59960882 </v>
    <v>       0.53443047       0.52957997       0.50351358 </v>
    <v>       0.57608490       0.54698541       0.47835755 </v>
    <v>       0.69464633       0.47558787       0.46810739 </v>
    <v>       0.56160206       0.41964110       0.52348935 </v>
    <v>       0.76061764       0.35513691       0.47138774 </v>
    <v>       0.62972346       0.29949214       0.52653134 </v>
    <v>       0.72929816       0.26765494       0.50110899 </v>
    <v>       0.02056581       0.25007175       0.55871276 </v>
    <v>       0.03229674       0.75725316       0.56047679 </v>
    <v>       0.46272410       0.22850173       0.55395027 </v>
    <v>       0.50186110       0.76250997       0.55734146 </v>
    <v>       0.24001705       0.52626253       0.55862626 </v>
    <v>       0.24907029       0.01029354       0.55462094 </v>
    <v>       0.76907045       0.98001926       0.56214430 </v>
    <v>       0.00985777       0.24458103       0.65042947 </v>
    <v>       0.00601252       0.76067546       0.65222988 </v>
    <v>       0.48961296       0.23364092       0.65353605 </v>
    <v>       0.49614013       0.75777407       0.64934521 </v>
    <v>       0.25804948       0.49703419       0.64892581 </v>
    <v>       0.25168302       0.99828382       0.64698597 </v>
    <v>       0.77517932       0.48871924       0.65405257 </v>
    <v>       0.75598596       0.99657761       0.65018034 </v>
    <v>       0.49998898       0.24999498       0.74327702 </v>
    <v>       0.49998903       0.74999496       0.74327702 </v>
    <v>       0.99998898       0.24999498       0.74327702 </v>
    <v>       0.99998903       0.74999496       0.74327702 </v>
    <v>       0.25000050       0.00000100       0.74325596 </v>
    <v>       0.25000052       0.50000100       0.74325596 </v>
    <v>       0.75000050       0.00000100       0.74325596 </v>
    <v>       0.75000049       0.50000100       0.74325596 </v>
    <v>       0.62370218       0.45660636       0.49579020 </v>
    <v>       0.67953620       0.43672446       0.48111411 </v>
    <v>       0.60491944       0.40527514       0.51189044 </v>
    <v>       0.71736273       0.36973759       0.48299983 </v>
    <v>       0.64300220       0.33816617       0.51367440 </v>
    <v>       0.69987335       0.32046432       0.49936175 </v>
    <v>       0.73128943       0.53309001       0.53064550 </v>
    <v>       0.83149701       0.47654288       0.55259441 </v>
    <v>       0.79211858       0.60462472       0.56072037 </v>
    <v>       0.70688032       0.50308164       0.56849005 </v>
    <v>       0.66158840       0.57950537       0.52866739 </v>
    <v>       0.63754605       0.59248985       0.50526830 </v>
    <v>       0.81461218       0.39763003       0.54677251 </v>
    <v>       0.85646559       0.63942062       0.54885508 </v>
    <v>       0.73534030       0.48188743       0.59048230 </v>
    <v>       0.58844530       0.53181611       0.49515089 </v>
    <v>       0.00450527       0.18795230       0.56799166 </v>
    <v>       0.03278926       0.69585429       0.57172446 </v>
    <v>       0.53382820       0.22112818       0.55787715 </v>
    <v>       0.48178796       0.69822998       0.56543090 </v>
    <v>       0.42276352       0.28525123       0.55982761 </v>
    <v>       0.46424730       0.82459621       0.55949893 </v>
    <v>       0.99894098       0.31529893       0.56544348 </v>
    <v>       0.98638593       0.81221626       0.56396143 </v>
    <v>       0.24407411       0.45666000       0.56460780 </v>
    <v>       0.18933562       0.97307297       0.55978146 </v>
    <v>       0.69738411       0.98649146       0.56408707 </v>
    <v>       0.31520314       0.99408456       0.56161147 </v>
    <v>       0.29314535       0.57477897       0.56074863 </v>
    <v>       0.81658459       0.03054034       0.56823475 </v>
    <v>       0.05541877       0.19144405       0.65662010 </v>
    <v>       0.05757716       0.71407737       0.65854547 </v>
    <v>       0.56080649       0.22080390       0.65538774 </v>
    <v>       0.53232637       0.70783905       0.66038795 </v>
    <v>       0.21171495       0.44921928       0.65748154 </v>
    <v>       0.20744677       0.95651266       0.65841038 </v>
    <v>       0.71632987       0.45884525       0.66260757 </v>
    <v>       0.70605246       0.95535107       0.65962040 </v>
    <v>       0.45528936       0.29264745       0.66049105 </v>
    <v>       0.45235882       0.80822750       0.65746909 </v>
    <v>       0.96889744       0.28511010       0.66287129 </v>
    <v>       0.94058850       0.76734587       0.66085355 </v>
    <v>       0.30154756       0.04439389       0.65460792 </v>
    <v>       0.29891768       0.54433249       0.65957009 </v>
    <v>       0.79550873       0.04873162       0.65940618 </v>
    <v>       0.79331646       0.55933886       0.65556185 </v>
    <v>       0.04586250       0.20411950       0.75272599 </v>
    <v>       0.04586250       0.70411946       0.75272599 </v>
    <v>       0.54586251       0.20411950       0.75272599 </v>
    <v>       0.54586250       0.70411946       0.75272599 </v>
    <v>       0.20411900       0.45410100       0.75270499 </v>
    <v>       0.20411899       0.95410095       0.75270499 </v>
    <v>       0.70411898       0.45410100       0.75270499 </v>
    <v>       0.70411896       0.95410095       0.75270499 </v>
    <v>       0.45414002       0.29588849       0.75272697 </v>
    <v>       0.45414001       0.79588852       0.75272697 </v>
    <v>       0.95414002       0.29588849       0.75272697 </v>
    <v>       0.95414006       0.79588852       0.75272697 </v>
    <v>       0.29588249       0.04590050       0.75270499 </v>
    <v>       0.29588248       0.54590053       0.75270499 </v>
    <v>       0.79588244       0.04590050       0.75270499 </v>
    <v>       0.79588248       0.54590053       0.75270499 </v>
    <v>       0.76581326       0.52909993       0.55289129 </v>
    <v>       0.50571467       0.01997669       0.55159904 </v>
    <v>       0.47556057       0.50024567       0.55520101 </v>
    <v>       0.99998189       0.00184618       0.54983690 </v>
    <v>       0.03987511       0.50368459       0.55289190 </v>
    <v>       0.23042042       0.24032551       0.55198321 </v>
    <v>       0.24873434       0.76931807       0.55372580 </v>
    <v>       0.73566226       0.20233514       0.55530589 </v>
    <v>       0.70565518       0.79219817       0.55233893 </v>
    <v>       0.00199162       0.98192728       0.65396753 </v>
    <v>       0.00673485       0.49540026       0.65525362 </v>
    <v>       0.50238761       0.01217928       0.65438198 </v>
    <v>       0.51535821       0.48777538       0.65505283 </v>
    <v>       0.26024754       0.24531911       0.65451250 </v>
    <v>       0.25055385       0.75537874       0.65464540 </v>
    <v>       0.75442278       0.26285896       0.65469784 </v>
    <v>       0.74439797       0.75472811       0.65408548 </v>
    <v>       0.13455458       0.10742409       0.60807115 </v>
    <v>       0.14791323       0.60705885       0.61010897 </v>
    <v>       0.64848841       0.10540507       0.61057403 </v>
    <v>       0.61738592       0.63301045       0.61249751 </v>
    <v>       0.36009386       0.38389790       0.60622690 </v>
    <v>       0.37153918       0.88264063       0.60774607 </v>
    <v>       0.89263503       0.36395806       0.61229636 </v>
    <v>       0.87256079       0.87030973       0.60738046 </v>
    <v>       0.12494363       0.36422012       0.61033753 </v>
    <v>       0.12515532       0.87131790       0.60674282 </v>
    <v>       0.58495175       0.33264472       0.60246614 </v>
    <v>       0.61698947       0.87305062       0.61126246 </v>
    <v>       0.38637459       0.13448297       0.60611977 </v>
    <v>       0.38387201       0.62818522       0.61157801 </v>
    <v>       0.88640600       0.13514695       0.61192397 </v>
    <v>       0.90495920       0.64054659       0.61308271 </v>
    <v>       0.00000000       0.00000000       0.75492797 </v>
    <v>       0.00000000       0.50000000       0.75492797 </v>
    <v>       0.50000000       0.00000000       0.75492797 </v>
    <v>       0.49999999       0.50000000       0.75492797 </v>
    <v>       0.25000050       0.25000000       0.75493902 </v>
    <v>       0.25000051       0.74999997       0.75493902 </v>
    <v>       0.75000047       0.25000000       0.75493902 </v>
    <v>       0.75000046       0.74999997       0.75493902 </v>
    <v>       0.13579050       0.11421000       0.70478299 </v>
    <v>       0.13579050       0.61420998       0.70478299 </v>
    <v>       0.63579045       0.11421000       0.70478299 </v>
    <v>       0.63579049       0.61420998       0.70478299 </v>
    <v>       0.36420952       0.38578999       0.70478299 </v>
    <v>       0.36420950       0.88578996       0.70478299 </v>
    <v>       0.86420954       0.38578999       0.70478299 </v>
    <v>       0.86420953       0.88578996       0.70478299 </v>
    <v>       0.11421799       0.36421899       0.70478098 </v>
    <v>       0.11421799       0.86421899       0.70478098 </v>
    <v>       0.61421800       0.36421899       0.70478098 </v>
    <v>       0.61421799       0.86421899       0.70478098 </v>
    <v>       0.38578201       0.13578149       0.70478202 </v>
    <v>       0.38578200       0.63578149       0.70478202 </v>
    <v>       0.88578199       0.13578149       0.70478202 </v>
    <v>       0.88578203       0.63578149       0.70478202 </v>
    <v>       0.13466700       0.11533200       0.80125603 </v>
    <v>       0.13466699       0.61533199       0.80125603 </v>
    <v>       0.63466699       0.11533200       0.80125603 </v>
    <v>       0.63466698       0.61533199       0.80125603 </v>
    <v>       0.36533300       0.38466799       0.80125603 </v>
    <v>       0.36533299       0.88466796       0.80125603 </v>
    <v>       0.86533295       0.38466799       0.80125603 </v>
    <v>       0.86533294       0.88466796       0.80125603 </v>
    <v>       0.11532850       0.36533700       0.80126500 </v>
    <v>       0.11532850       0.86533698       0.80126500 </v>
    <v>       0.61532850       0.36533700       0.80126500 </v>
    <v>       0.61532849       0.86533698       0.80126500 </v>
    <v>       0.38467151       0.13466300       0.80126500 </v>
    <v>       0.38467150       0.63466297       0.80126500 </v>
    <v>       0.88467149       0.13466300       0.80126500 </v>
    <v>       0.88467153       0.63466297       0.80126500 </v>
    <v>       0.99646191       0.99726034       0.60544568 </v>
    <v>       0.00898138       0.50094571       0.60557388 </v>
    <v>       0.50048429       0.00688962       0.60389209 </v>
    <v>       0.49784257       0.49253763       0.60465249 </v>
    <v>       0.24449644       0.24262643       0.60254789 </v>
    <v>       0.24838853       0.74622689       0.60405148 </v>
    <v>       0.74138839       0.24911749       0.60277297 </v>
    <v>       0.73380217       0.75733579       0.60184773 </v>
    <v>       0.00000050       0.00000050       0.70482896 </v>
    <v>       0.00000050       0.50000048       0.70482896 </v>
    <v>       0.50000048       0.00000050       0.70482896 </v>
    <v>       0.50000046       0.50000048       0.70482896 </v>
    <v>       0.24999999       0.24999947       0.70482499 </v>
    <v>       0.25000001       0.74999950       0.70482499 </v>
    <v>       0.74999999       0.24999947       0.70482499 </v>
    <v>       0.74999998       0.74999950       0.70482499 </v>
    <v>       0.00000000       0.00000000       0.80731797 </v>
    <v>       0.00000000       0.50000000       0.80731797 </v>
    <v>       0.50000000       0.00000000       0.80731797 </v>
    <v>       0.49999999       0.50000000       0.80731797 </v>
    <v>       0.24999999       0.25000000       0.80731797 </v>
    <v>       0.25000001       0.74999997       0.80731797 </v>
    <v>       0.74999999       0.25000000       0.80731797 </v>
    <v>       0.74999998       0.74999997       0.80731797 </v>
   </varray>
  </structure>
  <varray name="primitive_index" >
   <v type="int" >        1 </v>
   <v type="int" >        2 </v>
   <v type="int" >        3 </v>
   <v type="int" >        4 </v>
   <v type="int" >        5 </v>
   <v type="int" >        6 </v>
   <v type="int" >        7 </v>
   <v type="int" >        8 </v>
   <v type="int" >        9 </v>
   <v type="int" >       10 </v>
   <v type="int" >       11 </v>
   <v type="int" >       12 </v>
   <v type="int" >       13 </v>
   <v type="int" >       14 </v>
   <v type="int" >       15 </v>
   <v type="int" >       16 </v>
   <v type="int" >       17 </v>
   <v type="int" >       18 </v>
   <v type="int" >       19 </v>
   <v type="int" >       20 </v>
   <v type="int" >       21 </v>
   <v type="int" >       22 </v>
   <v type="int" >       23 </v>
   <v type="int" >       24 </v>
   <v type="int" >       25 </v>
   <v type="int" >       26 </v>
   <v type="int" >       27 </v>
   <v type="int" >       28 </v>
   <v type="int" >       29 </v>
   <v type="int" >       30 </v>
   <v type="int" >       31 </v>
   <v type="int" >       32 </v>
   <v type="int" >       33 </v>
   <v type="int" >       34 </v>
   <v type="int" >       35 </v>
   <v type="int" >       36 </v>
   <v type="int" >       37 </v>
   <v type="int" >       38 </v>
   <v type="int" >       39 </v>
   <v type="int" >       40 </v>
   <v type="int" >       41 </v>
   <v type="int" >       42 </v>
   <v type="int" >       43 </v>
   <v type="int" >       44 </v>
   <v type="int" >       45 </v>
   <v type="int" >       46 </v>
   <v type="int" >       47 </v>
   <v type="int" >       48 </v>
   <v type="int" >       49 </v>
   <v type="int" >       50 </v>
   <v type="int" >       51 </v>
   <v type="int" >       52 </v>
   <v type="int" >       53 </v>
   <v type="int" >       54 </v>
   <v type="int" >       55 </v>
   <v type="int" >       56 </v>
   <v type="int" >       57 </v>
   <v type="int" >       58 </v>
   <v type="int" >       59 </v>
   <v type="int" >       60 </v>
   <v type="int" >       61 </v>
   <v type="int" >       62 </v>
   <v type="int" >       63 </v>
   <v type="int" >       64 </v>
   <v type="int" >       65 </v>
   <v type="int" >       66 </v>
   <v type="int" >       67 </v>
   <v type="int" >       68 </v>
   <v type="int" >       69 </v>
   <v type="int" >       70 </v>
   <v type="int" >       71 </v>
   <v type="int" >       72 </v>
   <v type="int" >       73 </v>
   <v type="int" >       74 </v>
   <v type="int" >       75 </v>
   <v type="int" >       76 </v>
   <v type="int" >       77 </v>
   <v type="int" >       78 </v>
   <v type="int" >       79 </v>
   <v type="int" >       80 </v>
   <v type="int" >       81 </v>
   <v type="int" >       82 </v>
   <v type="int" >       83 </v>
   <v type="int" >       84 </v>
   <v type="int" >       85 </v>
   <v type="int" >       86 </v>
   <v type="int" >       87 </v>
   <v type="int" >       88 </v>
   <v type="int" >       89 </v>
   <v type="int" >       90 </v>
   <v type="int" >       91 </v>
   <v type="int" >       92 </v>
   <v type="int" >       93 </v>
   <v type="int" >       94 </v>
   <v type="int" >       95 </v>
   <v type="int" >       96 </v>
   <v type="int" >       97 </v>
   <v type="int" >       98 </v>
   <v type="int" >       99 </v>
   <v type="int" >      100 </v>
   <v type="int" >      101 </v>
   <v type="int" >      102 </v>
   <v type="int" >      103 </v>
   <v type="int" >      104 </v>
   <v type="int" >      105 </v>
   <v type="int" >      106 </v>
   <v type="int" >      107 </v>
   <v type="int" >      108 </v>
   <v type="int" >      109 </v>
   <v type="int" >      110 </v>
   <v type="int" >      111 </v>
   <v type="int" >      112 </v>
   <v type="int" >      113 </v>
   <v type="int" >      114 </v>
   <v type="int" >      115 </v>
   <v type="int" >      116 </v>
   <v type="int" >      117 </v>
   <v type="int" >      118 </v>
   <v type="int" >      119 </v>
   <v type="int" >      120 </v>
   <v type="int" >      121 </v>
   <v type="int" >      122 </v>
   <v type="int" >      123 </v>
   <v type="int" >      124 </v>
   <v type="int" >      125 </v>
   <v type="int" >      126 </v>
   <v type="int" >      127 </v>
   <v type="int" >      128 </v>
   <v type="int" >      129 </v>
   <v type="int" >      130 </v>
   <v type="int" >      131 </v>
   <v type="int" >      132 </v>
   <v type="int" >      133 </v>
   <v type="int" >      134 </v>
   <v type="int" >      135 </v>
   <v type="int" >      136 </v>
   <v type="int" >      137 </v>
   <v type="int" >      138 </v>
   <v type="int" >      139 </v>
   <v type="int" >      140 </v>
   <v type="int" >      141 </v>
   <v type="int" >      142 </v>
   <v type="int" >      143 </v>
   <v type="int" >      144 </v>
   <v type="int" >      145 </v>
   <v type="int" >      146 </v>
   <v type="int" >      147 </v>
   <v type="int" >      148 </v>
   <v type="int" >      149 </v>
   <v type="int" >      150 </v>
   <v type="int" >      151 </v>
   <v type="int" >      152 </v>
   <v type="int" >      153 </v>
   <v type="int" >      154 </v>
   <v type="int" >      155 </v>
   <v type="int" >      156 </v>
   <v type="int" >      157 </v>
   <v type="int" >      158 </v>
   <v type="int" >      159 </v>
   <v type="int" >      160 </v>
   <v type="int" >      161 </v>
   <v type="int" >      162 </v>
   <v type="int" >      163 </v>
   <v type="int" >      164 </v>
   <v type="int" >      165 </v>
   <v type="int" >      166 </v>
   <v type="int" >      167 </v>
   <v type="int" >      168 </v>
   <v type="int" >      169 </v>
   <v type="int" >      170 </v>
   <v type="int" >      171 </v>
   <v type="int" >      172 </v>
   <v type="int" >      173 </v>
   <v type="int" >      174 </v>
   <v type="int" >      175 </v>
   <v type="int" >      176 </v>
   <v type="int" >      177 </v>
   <v type="int" >      178 </v>
   <v type="int" >      179 </v>
   <v type="int" >      180 </v>
   <v type="int" >      181 </v>
   <v type="int" >      182 </v>
   <v type="int" >      183 </v>
   <v type="int" >      184 </v>
   <v type="int" >      185 </v>
   <v type="int" >      186 </v>
   <v type="int" >      187 </v>
   <v type="int" >      188 </v>
   <v type="int" >      189 </v>
   <v type="int" >      190 </v>
   <v type="int" >      191 </v>
   <v type="int" >      192 </v>
   <v type="int" >      193 </v>
   <v type="int" >      194 </v>
   <v type="int" >      195 </v>
   <v type="int" >      196 </v>
   <v type="int" >      197 </v>
   <v type="int" >      198 </v>
   <v type="int" >      199 </v>
   <v type="int" >      200 </v>
   <v type="int" >      201 </v>
   <v type="int" >      202 </v>
   <v type="int" >      203 </v>
   <v type="int" >      204 </v>
   <v type="int" >      205 </v>
   <v type="int" >      206 </v>
   <v type="int" >      207 </v>
   <v type="int" >      208 </v>
   <v type="int" >      209 </v>
   <v type="int" >      210 </v>
   <v type="int" >      211 </v>
   <v type="int" >      212 </v>
   <v type="int" >      213 </v>
   <v type="int" >      214 </v>
   <v type="int" >      215 </v>
   <v type="int" >      216 </v>
   <v type="int" >      217 </v>
   <v type="int" >      218 </v>
   <v type="int" >      219 </v>
   <v type="int" >      220 </v>
   <v type="int" >      221 </v>
   <v type="int" >      222 </v>
   <v type="int" >      223 </v>
   <v type="int" >      224 </v>
   <v type="int" >      225 </v>
   <v type="int" >      226 </v>
   <v type="int" >      227 </v>
   <v type="int" >      228 </v>
   <v type="int" >      229 </v>
   <v type="int" >      230 </v>
   <v type="int" >      231 </v>
   <v type="int" >      232 </v>
   <v type="int" >      233 </v>
   <v type="int" >      234 </v>
   <v type="int" >      235 </v>
   <v type="int" >      236 </v>
   <v type="int" >      237 </v>
   <v type="int" >      238 </v>
   <v type="int" >      239 </v>
   <v type="int" >      240 </v>
   <v type="int" >      241 </v>
   <v type="int" >      242 </v>
   <v type="int" >      243 </v>
   <v type="int" >      244 </v>
   <v type="int" >      245 </v>
   <v type="int" >      246 </v>
   <v type="int" >      247 </v>
   <v type="int" >      248 </v>
   <v type="int" >      249 </v>
   <v type="int" >      250 </v>
   <v type="int" >      251 </v>
   <v type="int" >      252 </v>
   <v type="int" >      253 </v>
   <v type="int" >      254 </v>
   <v type="int" >      255 </v>
   <v type="int" >      256 </v>
   <v type="int" >      257 </v>
   <v type="int" >      258 </v>
   <v type="int" >      259 </v>
   <v type="int" >      260 </v>
   <v type="int" >      261 </v>
   <v type="int" >      262 </v>
   <v type="int" >      263 </v>
   <v type="int" >      264 </v>
   <v type="int" >      265 </v>
   <v type="int" >      266 </v>
   <v type="int" >      267 </v>
   <v type="int" >      268 </v>
   <v type="int" >      269 </v>
   <v type="int" >      270 </v>
   <v type="int" >      271 </v>
   <v type="int" >      272 </v>
   <v type="int" >      273 </v>
   <v type="int" >      274 </v>
   <v type="int" >      275 </v>
   <v type="int" >      276 </v>
   <v type="int" >      277 </v>
   <v type="int" >      278 </v>
   <v type="int" >      279 </v>
   <v type="int" >      280 </v>
   <v type="int" >      281 </v>
   <v type="int" >      282 </v>
   <v type="int" >      283 </v>
   <v type="int" >      284 </v>
   <v type="int" >      285 </v>
   <v type="int" >      286 </v>
   <v type="int" >      287 </v>
   <v type="int" >      288 </v>
   <v type="int" >      289 </v>
   <v type="int" >      290 </v>
   <v type="int" >      291 </v>
   <v type="int" >      292 </v>
   <v type="int" >      293 </v>
   <v type="int" >      294 </v>
   <v type="int" >      295 </v>
   <v type="int" >      296 </v>
   <v type="int" >      297 </v>
   <v type="int" >      298 </v>
   <v type="int" >      299 </v>
   <v type="int" >      300 </v>
   <v type="int" >      301 </v>
   <v type="int" >      302 </v>
   <v type="int" >      303 </v>
   <v type="int" >      304 </v>
   <v type="int" >      305 </v>
   <v type="int" >      306 </v>
   <v type="int" >      307 </v>
   <v type="int" >      308 </v>
   <v type="int" >      309 </v>
   <v type="int" >      310 </v>
   <v type="int" >      311 </v>
   <v type="int" >      312 </v>
   <v type="int" >      313 </v>
   <v type="int" >      314 </v>
   <v type="int" >      315 </v>
   <v type="int" >      316 </v>
   <v type="int" >      317 </v>
   <v type="int" >      318 </v>
   <v type="int" >      319 </v>
   <v type="int" >      320 </v>
   <v type="int" >      321 </v>
   <v type="int" >      322 </v>
   <v type="int" >      323 </v>
   <v type="int" >      324 </v>
   <v type="int" >      325 </v>
  </varray>
 </primitive_cell>
 <kpoints>
  <generation param="Gamma">
   <v type="int" name="divisions">       3        3        1 </v>
   <v name="usershift">      0.00000000       0.00000000       0.00000000 </v>
   <v name="genvec1">      0.33333333       0.00000000       0.00000000 </v>
   <v name="genvec2">      0.00000000       0.33333333       0.00000000 </v>
   <v name="genvec3">      0.00000000       0.00000000       1.00000000 </v>
   <v name="shift">      0.00000000       0.00000000       0.00000000 </v>
  </generation>
  <varray name="kpointlist" >
   <v>       0.00000000       0.00000000       0.00000000 </v>
   <v>       0.33333333       0.00000000       0.00000000 </v>
   <v>       0.00000000       0.33333333       0.00000000 </v>
   <v>       0.33333333       0.33333333       0.00000000 </v>
   <v>      -0.33333333       0.33333333       0.00000000 </v>
  </varray>
  <varray name="weights" >
   <v>       0.11111111 </v>
   <v>       0.22222222 </v>
   <v>       0.22222222 </v>
   <v>       0.22222222 </v>
   <v>       0.22222222 </v>
  </varray>
 </kpoints>
 <parameters>
  <separator name="general" >
   <i type="string" name="SYSTEM">PSC</i>
   <i type="logical" name="LCOMPAT"> F  </i>
  </separator>
  <separator name="electronic" >
   <i type="string" name="PREC">normal</i>
   <i name="ENMAX">    500.00000000</i>
   <i name="ENAUG">    644.87300000</i>
   <i name="EDIFF">      0.00010000</i>
   <i type="int" name="IALGO">    38</i>
   <i type="int" name="IWAVPR">    10</i>
   <i type="int" name="NBANDS">   732</i>
   <i type="int" name="NBANDSLOW">    -1</i>
   <i type="int" name="NBANDSHIGH">    -1</i>
   <i name="NELECT">   1134.00000000</i>
   <i type="int" name="TURBO">     0</i>
   <i type="int" name="IRESTART">     0</i>
   <i type="int" name="NREBOOT">     0</i>
   <i type="int" name="NMIN">     0</i>
   <i name="EREF">      0.00000000</i>
   <separator name="electronic smearing" >
    <i type="int" name="ISMEAR">     0</i>
    <i name="SIGMA">      0.05000000</i>
    <i name="KSPACING">      0.50000000</i>
    <i type="logical" name="KGAMMA"> T  </i>
    <i type="logical" name="KBLOWUP"> T  </i>
   </separator>
   <separator name="electronic projectors" >
    <i type="logical" name="LREAL"> T  </i>
    <v name="ROPT">     -0.00050000     -0.00050000     -0.00050000     -0.00050000     -0.00050000</v>
    <i type="int" name="LMAXPAW">  -100</i>
    <i type="int" name="LMAXMIX">     2</i>
    <i type="logical" name="NLSPLINE"> F  </i>
   </separator>
   <separator name="electronic startup" >
    <i type="int" name="ISTART">     0</i>
    <i type="int" name="ICHARG">     1</i>
    <i type="int" name="INIWAV">     1</i>
   </separator>
   <separator name="electronic spin" >
    <i type="int" name="ISPIN">     1</i>
    <i type="logical" name="LNONCOLLINEAR"> F  </i>
    <v name="MAGMOM">      1.00000000      1.00000000      1.00000000      1.00000000      1.00000000      1.00000000      1.00000000      1.00000000      1.00000000      1.00000000      1.00000000      1.00000000      1.00000000      1.00000000      1.00000000      1.00000000      1.00000000      1.00000000      1.00000000      1.00000000
      1.00000000      1.00000000      1.00000000      1.00000000      1.00000000      1.00000000      1.00000000      1.00000000      1.00000000      1.00000000      1.00000000      1.00000000      1.00000000      1.00000000      1.00000000      1.00000000      1.00000000      1.00000000      1.00000000      1.00000000
      1.00000000      1.00000000      1.00000000      1.00000000      1.00000000      1.00000000      1.00000000      1.00000000      1.00000000      1.00000000      1.00000000      1.00000000      1.00000000      1.00000000      1.00000000      1.00000000      1.00000000      1.00000000      1.00000000      1.00000000
      1.00000000      1.00000000      1.00000000      1.00000000      1.00000000      1.00000000      1.00000000      1.00000000      1.00000000      1.00000000      1.00000000      1.00000000      1.00000000      1.00000000      1.00000000      1.00000000      1.00000000      1.00000000      1.00000000      1.00000000
      1.00000000      1.00000000      1.00000000      1.00000000      1.00000000      1.00000000      1.00000000      1.00000000      1.00000000      1.00000000      1.00000000      1.00000000      1.00000000      1.00000000      1.00000000      1.00000000      1.00000000      1.00000000      1.00000000      1.00000000
      1.00000000      1.00000000      1.00000000      1.00000000      1.00000000      1.00000000      1.00000000      1.00000000      1.00000000      1.00000000      1.00000000      1.00000000      1.00000000      1.00000000      1.00000000      1.00000000      1.00000000      1.00000000      1.00000000      1.00000000
      1.00000000      1.00000000      1.00000000      1.00000000      1.00000000      1.00000000      1.00000000      1.00000000      1.00000000      1.00000000      1.00000000      1.00000000      1.00000000      1.00000000      1.00000000      1.00000000      1.00000000      1.00000000      1.00000000      1.00000000
      1.00000000      1.00000000      1.00000000      1.00000000      1.00000000      1.00000000      1.00000000      1.00000000      1.00000000      1.00000000      1.00000000      1.00000000      1.00000000      1.00000000      1.00000000      1.00000000      1.00000000      1.00000000      1.00000000      1.00000000
      1.00000000      1.00000000      1.00000000      1.00000000      1.00000000      1.00000000      1.00000000      1.00000000      1.00000000      1.00000000      1.00000000      1.00000000      1.00000000      1.00000000      1.00000000      1.00000000      1.00000000      1.00000000      1.00000000      1.00000000
      1.00000000      1.00000000      1.00000000      1.00000000      1.00000000      1.00000000      1.00000000      1.00000000      1.00000000      1.00000000      1.00000000      1.00000000      1.00000000      1.00000000      1.00000000      1.00000000      1.00000000      1.00000000      1.00000000      1.00000000
      1.00000000      1.00000000      1.00000000      1.00000000      1.00000000      1.00000000      1.00000000      1.00000000      1.00000000      1.00000000      1.00000000      1.00000000      1.00000000      1.00000000      1.00000000      1.00000000      1.00000000      1.00000000      1.00000000      1.00000000
      1.00000000      1.00000000      1.00000000      1.00000000      1.00000000      1.00000000      1.00000000      1.00000000      1.00000000      1.00000000      1.00000000      1.00000000      1.00000000      1.00000000      1.00000000      1.00000000      1.00000000      1.00000000      1.00000000      1.00000000
      1.00000000      1.00000000      1.00000000      1.00000000      1.00000000      1.00000000      1.00000000      1.00000000      1.00000000      1.00000000      1.00000000      1.00000000      1.00000000      1.00000000      1.00000000      1.00000000      1.00000000      1.00000000      1.00000000      1.00000000
      1.00000000      1.00000000      1.00000000      1.00000000      1.00000000      1.00000000      1.00000000      1.00000000      1.00000000      1.00000000      1.00000000      1.00000000      1.00000000      1.00000000      1.00000000      1.00000000      1.00000000      1.00000000      1.00000000      1.00000000
      1.00000000      1.00000000      1.00000000      1.00000000      1.00000000      1.00000000      1.00000000      1.00000000      1.00000000      1.00000000      1.00000000      1.00000000      1.00000000      1.00000000      1.00000000      1.00000000      1.00000000      1.00000000      1.00000000      1.00000000
      1.00000000      1.00000000      1.00000000      1.00000000      1.00000000      1.00000000      1.00000000      1.00000000      1.00000000      1.00000000      1.00000000      1.00000000      1.00000000      1.00000000      1.00000000      1.00000000      1.00000000      1.00000000      1.00000000      1.00000000
      1.00000000      1.00000000      1.00000000      1.00000000      1.00000000</v>
    <i name="NUPDOWN">     -1.00000000</i>
    <i type="logical" name="LSORBIT"> F  </i>
    <v name="SAXIS">      0.00000000      0.00000000      1.00000000</v>
    <i type="logical" name="LSPIRAL"> F  </i>
    <v name="QSPIRAL">      0.00000000      0.00000000      0.00000000</v>
    <i type="logical" name="LZEROZ"> F  </i>
   </separator>
   <separator name="electronic exchange-correlation" >
    <i type="logical" name="LASPH"> F  </i>
    <i type="logical" name="LMETAGGA"> F  </i>
   </separator>
   <separator name="electronic convergence" >
    <i type="int" name="NELM">   600</i>
    <i type="int" name="NELMDL">     0</i>
    <i type="int" name="NELMIN">     2</i>
    <i name="ENINI">    500.00000000</i>
    <separator name="electronic convergence detail" >
     <i type="logical" name="LDIAG"> T  </i>
     <i type="logical" name="LSUBROT"> F  </i>
     <i name="WEIMIN">      0.00000000</i>
     <i name="EBREAK">      0.00000003</i>
     <i name="DEPER">      0.30000000</i>
     <i type="int" name="NRMM">     4</i>
     <i name="TIME">      0.40000000</i>
    </separator>
   </separator>
   <separator name="electronic mixer" >
    <i name="AMIX">      0.40000000</i>
    <i name="BMIX">      0.01000000</i>
    <i name="AMIN">      0.01000000</i>
    <i name="AMIX_MAG">      1.60000000</i>
    <i name="BMIX_MAG">      0.01000000</i>
    <separator name="electronic mixer details" >
     <i type="int" name="IMIX">     4</i>
     <i type="logical" name="MIXFIRST"> F  </i>
     <i type="int" name="MAXMIX">   -45</i>
     <i name="WC">    100.00000000</i>
     <i type="int" name="INIMIX">     1</i>
     <i type="int" name="MIXPRE">     1</i>
     <i type="int" name="MREMOVE">     5</i>
    </separator>
   </separator>
   <separator name="electronic dipolcorrection" >
    <i type="logical" name="LDIPOL"> T  </i>
    <i type="logical" name="LMONO"> F  </i>
    <i type="int" name="IDIPOL">     3</i>
    <i name="EPSILON">      1.00000000</i>
    <v name="DIPOL">   -100.00000000   -100.00000000   -100.00000000</v>
    <i name="EFIELD">      0.00000000</i>
   </separator>
  </separator>
  <separator name="grids" >
   <i type="int" name="NGX">   100</i>
   <i type="int" name="NGY">   100</i>
   <i type="int" name="NGZ">   350</i>
   <i type="int" name="NGXF">   200</i>
   <i type="int" name="NGYF">   200</i>
   <i type="int" name="NGZF">   700</i>
   <i type="logical" name="ADDGRID"> F  </i>
  </separator>
  <separator name="ionic" >
   <i type="int" name="NSW">     0</i>
   <i type="int" name="IBRION">    -1</i>
   <i type="int" name="MDALGO">     0</i>
   <i type="int" name="ISIF">     2</i>
   <i name="PSTRESS">      0.00000000</i>
   <i name="EDIFFG">      0.00100000</i>
   <i type="int" name="NFREE">     0</i>
   <i name="POTIM">      0.50000000</i>
   <i name="SMASS">     -3.00000000</i>
   <i name="SCALEE">      1.00000000</i>
  </separator>
  <separator name="ionic md" >
   <i name="TEBEG">      0.00010000</i>
   <i name="TEEND">      0.00010000</i>
   <i type="int" name="NBLOCK">     1</i>
   <i type="int" name="KBLOCK">     1</i>
   <i type="int" name="NPACO">   256</i>
   <i name="APACO">     16.00000000</i>
  </separator>
  <separator name="symmetry" >
   <i type="int" name="ISYM">     0</i>
   <i name="SYMPREC">      0.00001000</i>
  </separator>
  <separator name="dos" >
   <i type="int" name="LORBIT">     0</i>
   <v name="RWIGS">     -1.00000000     -1.00000000     -1.00000000     -1.00000000     -1.00000000</v>
   <i type="int" name="NEDOS">   301</i>
   <i name="EMIN">     10.00000000</i>
   <i name="EMAX">    -10.00000000</i>
   <i name="EFERMI">      0.00000000</i>
  </separator>
  <separator name="writing" >
   <i type="int" name="NWRITE">     2</i>
   <i type="logical" name="LWAVE"> F  </i>
   <i type="logical" name="LDOWNSAMPLE"> F  </i>
   <i type="logical" name="LCHARG"> T  </i>
   <i type="logical" name="LPARD"> F  </i>
   <i type="logical" name="LVTOT"> T  </i>
   <i type="logical" name="LVHAR"> F  </i>
   <i type="logical" name="LELF"> F  </i>
   <i type="logical" name="LOPTICS"> F  </i>
   <v name="STM">      0.00000000      0.00000000      0.00000000      0.00000000      0.00000000      0.00000000      0.00000000</v>
  </separator>
  <separator name="performance" >
   <i type="int" name="NPAR">     4</i>
   <i type="int" name="NSIM">     4</i>
   <i type="int" name="NBLK">    -1</i>
   <i type="logical" name="LPLANE"> T  </i>
   <i type="logical" name="LSCALAPACK"> T  </i>
   <i type="logical" name="LSCAAWARE"> F  </i>
   <i type="logical" name="LSCALU"> F  </i>
   <i type="logical" name="LASYNC"> F  </i>
   <i type="logical" name="LORBITALREAL"> F  </i>
  </separator>
  <separator name="miscellaneous" >
   <i type="int" name="IDIOT">     3</i>
   <i type="int" name="PHON_NSTRUCT">    -1</i>
   <i type="logical" name="LMUSIC"> F  </i>
   <v name="POMASS">      1.00000000     12.01100000     14.00100000    126.90400000    207.20000000</v>
   <v name="DARWINR">      0.00000000      0.00000000      0.00000000      0.00000000      0.00000000</v>
   <v name="DARWINV">      1.00000000      1.00000000      1.00000000      1.00000000      1.00000000</v>
   <i type="logical" name="LCORR"> T  </i>
  </separator>
  <i type="logical" name="GGA_COMPAT"> F  </i>
  <i type="logical" name="LBERRY"> F  </i>
  <i type="int" name="ICORELEVEL">     0</i>
  <i type="logical" name="LDAU"> F  </i>
  <i type="int" name="I_CONSTRAINED_M">     0</i>
  <separator name="electronic exchange-correlation" >
   <i type="string" name="GGA">--</i>
   <i type="int" name="VOSKOWN">     0</i>
   <i type="logical" name="LHFCALC"> F  </i>
   <i type="string" name="PRECFOCK"></i>
   <i type="logical" name="LSYMGRAD"> F  </i>
   <i type="logical" name="LHFONE"> F  </i>
   <i type="logical" name="LRHFCALC"> F  </i>
   <i type="logical" name="LTHOMAS"> F  </i>
   <i type="logical" name="LMODELHF"> F  </i>
   <i type="logical" name="LFOCKACE"> F  </i>
   <i name="ENCUT4O">     -1.00000000</i>
   <i type="int" name="EXXOEP">     0</i>
   <i type="int" name="FOURORBIT">     0</i>
   <i name="AEXX">      0.00000000</i>
   <i name="HFALPHA">      0.00000000</i>
   <i name="MCALPHA">      0.00000000</i>
   <i name="ALDAX">      1.00000000</i>
   <i name="AGGAX">      1.00000000</i>
   <i name="ALDAC">      1.00000000</i>
   <i name="AGGAC">      1.00000000</i>
   <i type="int" name="NKREDX">     1</i>
   <i type="int" name="NKREDY">     1</i>
   <i type="int" name="NKREDZ">     1</i>
   <i type="logical" name="SHIFTRED"> F  </i>
   <i type="logical" name="ODDONLY"> F  </i>
   <i type="logical" name="EVENONLY"> F  </i>
   <i type="int" name="LMAXFOCK">     0</i>
   <i type="int" name="NMAXFOCKAE">     0</i>
   <i type="logical" name="LFOCKAEDFT"> F  </i>
   <i name="HFSCREEN">      0.00000000</i>
   <i name="HFSCREENC">      0.00000000</i>
   <i type="int" name="NBANDSGWLOW">     0</i>
  </separator>
  <separator name="vdW DFT" >
   <i type="logical" name="LUSE_VDW"> F  </i>
   <i name="Zab_VDW">     -0.84910000</i>
   <i name="PARAM1">      0.12340000</i>
   <i name="PARAM2">      1.00000000</i>
   <i name="PARAM3">      0.00000000</i>
  </separator>
  <separator name="model GW" >
   <i type="int" name="MODEL_GW">     0</i>
   <i name="MODEL_EPS0">     37.63423484</i>
   <i name="MODEL_ALPHA">      1.00000000</i>
  </separator>
  <separator name="linear response parameters" >
   <i type="logical" name="LEPSILON"> F  </i>
   <i type="logical" name="LRPA"> F  </i>
   <i type="logical" name="LNABLA"> F  </i>
   <i type="logical" name="LVEL"> F  </i>
   <i type="int" name="KINTER">     0</i>
   <i name="CSHIFT">      0.10000000</i>
   <i name="OMEGAMAX">     -1.00000000</i>
   <i name="DEG_THRESHOLD">      0.00200000</i>
   <i name="RTIME">     -0.10000000</i>
   <i name="WPLASMAI">      0.00000000</i>
   <v name="DFIELD">      0.00000000      0.00000000      0.00000000</v>
   <v name="WPLASMA">      0.00000000      0.00000000      0.00000000      0.00000000      0.00000000      0.00000000      0.00000000      0.00000000      0.00000000</v>
  </separator>
  <separator name="orbital magnetization" >
   <i type="logical" name="NUCIND"> F  </i>
   <v name="MAGPOS">      0.00000000      0.00000000      0.00000000</v>
   <i type="logical" name="LNICSALL"> T  </i>
   <i type="logical" name="ORBITALMAG"> F  </i>
   <i type="logical" name="LMAGBLOCH"> F  </i>
   <i type="logical" name="LCHIMAG"> F  </i>
   <i type="logical" name="LGAUGE"> T  </i>
   <i type="int" name="MAGATOM">     0</i>
   <v name="MAGDIPOL">      0.00000000      0.00000000      0.00000000</v>
   <v name="AVECCONST">      0.00000000      0.00000000      0.00000000</v>
  </separator>
  <separator name="response functions" >
   <i type="logical" name="LFINITE_TEMPERATURE"> F  </i>
   <i type="logical" name="LADDER"> F  </i>
   <i type="logical" name="LRPAFORCE"> F  </i>
   <i type="logical" name="LFXC"> F  </i>
   <i type="logical" name="LHARTREE"> T  </i>
   <i type="int" name="IBSE">     0</i>
   <v type="int" name="KPOINT">    -1     0     0     0</v>
   <i type="logical" name="LTCTC"> F  </i>
   <i type="logical" name="LTCTE"> F  </i>
   <i type="logical" name="LTETE"> F  </i>
   <i type="logical" name="LTRIPLET"> F  </i>
   <i type="logical" name="LFXCEPS"> F  </i>
   <i type="logical" name="LFXHEG"> F  </i>
   <i type="int" name="NATURALO">     2</i>
   <i type="logical" name="LHOLEGF"> F  </i>
   <i type="logical" name="L2ORDER"> F  </i>
   <i type="logical" name="LDMP1"> F  </i>
   <i type="logical" name="LMP2LT"> F  </i>
   <i type="logical" name="LSMP2LT"> F  </i>
   <i type="logical" name="LGWLF"> F  </i>
   <i name="ENCUTGW">     -2.00000000</i>
   <i name="ENCUTGWSOFT">     -2.00000000</i>
   <i name="ENCUTLF">     -1.00000000</i>
   <i type="logical" name="LESF_SPLINES"> F  </i>
   <i type="int" name="LMAXMP2">    -1</i>
   <i name="SCISSOR">      0.00000000</i>
   <i type="int" name="NOMEGA">     0</i>
   <i type="int" name="NOMEGAR">     0</i>
   <i type="int" name="NBANDSGW">    -1</i>
   <i type="int" name="NBANDSO">    -1</i>
   <i type="int" name="NBANDSV">    -1</i>
   <i type="int" name="NELM">   600</i>
   <i type="int" name="NELMHF">     1</i>
   <i type="int" name="DIM">     3</i>
   <i type="int" name="IESPILON">     4</i>
   <i type="int" name="ANTIRES">     0</i>
   <i name="OMEGAMAX">    -30.00000000</i>
   <i name="OMEGAMIN">    -30.00000000</i>
   <i name="OMEGATL">   -200.00000000</i>
   <i type="int" name="OMEGAGRID">     0</i>
   <i name="CSHIFT">     -0.10000000</i>
   <i type="logical" name="LSELFENERGY"> F  </i>
   <i type="logical" name="LSPECTRAL"> F  </i>
   <i type="logical" name="LSPECTRALGW"> F  </i>
   <i type="logical" name="LSINGLES"> F  </i>
   <i type="logical" name="LFERMIGW"> F  </i>
   <i type="logical" name="ODDONLYGW"> F  </i>
   <i type="logical" name="EVENONLYGW"> F  </i>
   <i type="int" name="NKREDLFX">     1</i>
   <i type="int" name="NKREDLFY">     1</i>
   <i type="int" name="NKREDLFZ">     1</i>
   <i type="int" name="MAXMEM">  2800</i>
   <i type="int" name="TELESCOPE">     0</i>
   <i type="int" name="NTAUPAR">    -1</i>
   <i type="int" name="NOMEGAPAR">    -1</i>
   <i name="DAMP_NEWTON">      0.80000001</i>
   <i name="LAMBDA">      1.00000000</i>
  </separator>
  <separator name="External order field" >
   <i name="OFIELD_KAPPA">      0.00000000</i>
   <v name="OFIELD_K">      0.00000000      0.00000000      0.00000000</v>
   <i name="OFIELD_Q6_NEAR">      0.00000000</i>
   <i name="OFIELD_Q6_FAR">      0.00000000</i>
   <i name="OFIELD_A">      0.00000000</i>
  </separator>
 </parameters>
 <atominfo>
  <atoms>     325 </atoms>
  <types>       5 </types>
  <array name="atoms" >
   <dimension dim="1">ion</dimension>
   <field type="string">element</field>
   <field type="int">atomtype</field>
   <set>
    <rc><c>H </c><c>   1</c></rc>
    <rc><c>H </c><c>   1</c></rc>
    <rc><c>H </c><c>   1</c></rc>
    <rc><c>H </c><c>   1</c></rc>
    <rc><c>H </c><c>   1</c></rc>
    <rc><c>H </c><c>   1</c></rc>
    <rc><c>H </c><c>   1</c></rc>
    <rc><c>H </c><c>   1</c></rc>
    <rc><c>H </c><c>   1</c></rc>
    <rc><c>H </c><c>   1</c></rc>
    <rc><c>H </c><c>   1</c></rc>
    <rc><c>H </c><c>   1</c></rc>
    <rc><c>H </c><c>   1</c></rc>
    <rc><c>H </c><c>   1</c></rc>
    <rc><c>H </c><c>   1</c></rc>
    <rc><c>H </c><c>   1</c></rc>
    <rc><c>H </c><c>   1</c></rc>
    <rc><c>H </c><c>   1</c></rc>
    <rc><c>H </c><c>   1</c></rc>
    <rc><c>H </c><c>   1</c></rc>
    <rc><c>H </c><c>   1</c></rc>
    <rc><c>H </c><c>   1</c></rc>
    <rc><c>H </c><c>   1</c></rc>
    <rc><c>H </c><c>   1</c></rc>
    <rc><c>H </c><c>   1</c></rc>
    <rc><c>H </c><c>   1</c></rc>
    <rc><c>H </c><c>   1</c></rc>
    <rc><c>H </c><c>   1</c></rc>
    <rc><c>H </c><c>   1</c></rc>
    <rc><c>H </c><c>   1</c></rc>
    <rc><c>H </c><c>   1</c></rc>
    <rc><c>H </c><c>   1</c></rc>
    <rc><c>H </c><c>   1</c></rc>
    <rc><c>H </c><c>   1</c></rc>
    <rc><c>H </c><c>   1</c></rc>
    <rc><c>H </c><c>   1</c></rc>
    <rc><c>H </c><c>   1</c></rc>
    <rc><c>H </c><c>   1</c></rc>
    <rc><c>H </c><c>   1</c></rc>
    <rc><c>H </c><c>   1</c></rc>
    <rc><c>H </c><c>   1</c></rc>
    <rc><c>H </c><c>   1</c></rc>
    <rc><c>H </c><c>   1</c></rc>
    <rc><c>H </c><c>   1</c></rc>
    <rc><c>H </c><c>   1</c></rc>
    <rc><c>H </c><c>   1</c></rc>
    <rc><c>H </c><c>   1</c></rc>
    <rc><c>H </c><c>   1</c></rc>
    <rc><c>H </c><c>   1</c></rc>
    <rc><c>H </c><c>   1</c></rc>
    <rc><c>H </c><c>   1</c></rc>
    <rc><c>H </c><c>   1</c></rc>
    <rc><c>H </c><c>   1</c></rc>
    <rc><c>H </c><c>   1</c></rc>
    <rc><c>H </c><c>   1</c></rc>
    <rc><c>H </c><c>   1</c></rc>
    <rc><c>H </c><c>   1</c></rc>
    <rc><c>H </c><c>   1</c></rc>
    <rc><c>H </c><c>   1</c></rc>
    <rc><c>H </c><c>   1</c></rc>
    <rc><c>H </c><c>   1</c></rc>
    <rc><c>H </c><c>   1</c></rc>
    <rc><c>H </c><c>   1</c></rc>
    <rc><c>H </c><c>   1</c></rc>
    <rc><c>H </c><c>   1</c></rc>
    <rc><c>H </c><c>   1</c></rc>
    <rc><c>H </c><c>   1</c></rc>
    <rc><c>H </c><c>   1</c></rc>
    <rc><c>H </c><c>   1</c></rc>
    <rc><c>H </c><c>   1</c></rc>
    <rc><c>H </c><c>   1</c></rc>
    <rc><c>H </c><c>   1</c></rc>
    <rc><c>H </c><c>   1</c></rc>
    <rc><c>H </c><c>   1</c></rc>
    <rc><c>H </c><c>   1</c></rc>
    <rc><c>H </c><c>   1</c></rc>
    <rc><c>H </c><c>   1</c></rc>
    <rc><c>H </c><c>   1</c></rc>
    <rc><c>H </c><c>   1</c></rc>
    <rc><c>H </c><c>   1</c></rc>
    <rc><c>H </c><c>   1</c></rc>
    <rc><c>H </c><c>   1</c></rc>
    <rc><c>H </c><c>   1</c></rc>
    <rc><c>H </c><c>   1</c></rc>
    <rc><c>H </c><c>   1</c></rc>
    <rc><c>H </c><c>   1</c></rc>
    <rc><c>H </c><c>   1</c></rc>
    <rc><c>H </c><c>   1</c></rc>
    <rc><c>H </c><c>   1</c></rc>
    <rc><c>H </c><c>   1</c></rc>
    <rc><c>H </c><c>   1</c></rc>
    <rc><c>H </c><c>   1</c></rc>
    <rc><c>H </c><c>   1</c></rc>
    <rc><c>H </c><c>   1</c></rc>
    <rc><c>H </c><c>   1</c></rc>
    <rc><c>H </c><c>   1</c></rc>
    <rc><c>H </c><c>   1</c></rc>
    <rc><c>H </c><c>   1</c></rc>
    <rc><c>H </c><c>   1</c></rc>
    <rc><c>H </c><c>   1</c></rc>
    <rc><c>H </c><c>   1</c></rc>
    <rc><c>H </c><c>   1</c></rc>
    <rc><c>H </c><c>   1</c></rc>
    <rc><c>H </c><c>   1</c></rc>
    <rc><c>H </c><c>   1</c></rc>
    <rc><c>H </c><c>   1</c></rc>
    <rc><c>H </c><c>   1</c></rc>
    <rc><c>H </c><c>   1</c></rc>
    <rc><c>H </c><c>   1</c></rc>
    <rc><c>H </c><c>   1</c></rc>
    <rc><c>H </c><c>   1</c></rc>
    <rc><c>H </c><c>   1</c></rc>
    <rc><c>H </c><c>   1</c></rc>
    <rc><c>H </c><c>   1</c></rc>
    <rc><c>H </c><c>   1</c></rc>
    <rc><c>H </c><c>   1</c></rc>
    <rc><c>H </c><c>   1</c></rc>
    <rc><c>H </c><c>   1</c></rc>
    <rc><c>H </c><c>   1</c></rc>
    <rc><c>H </c><c>   1</c></rc>
    <rc><c>H </c><c>   1</c></rc>
    <rc><c>H </c><c>   1</c></rc>
    <rc><c>H </c><c>   1</c></rc>
    <rc><c>H </c><c>   1</c></rc>
    <rc><c>H </c><c>   1</c></rc>
    <rc><c>H </c><c>   1</c></rc>
    <rc><c>H </c><c>   1</c></rc>
    <rc><c>H </c><c>   1</c></rc>
    <rc><c>H </c><c>   1</c></rc>
    <rc><c>H </c><c>   1</c></rc>
    <rc><c>H </c><c>   1</c></rc>
    <rc><c>H </c><c>   1</c></rc>
    <rc><c>H </c><c>   1</c></rc>
    <rc><c>H </c><c>   1</c></rc>
    <rc><c>H </c><c>   1</c></rc>
    <rc><c>H </c><c>   1</c></rc>
    <rc><c>H </c><c>   1</c></rc>
    <rc><c>H </c><c>   1</c></rc>
    <rc><c>H </c><c>   1</c></rc>
    <rc><c>H </c><c>   1</c></rc>
    <rc><c>H </c><c>   1</c></rc>
    <rc><c>H </c><c>   1</c></rc>
    <rc><c>H </c><c>   1</c></rc>
    <rc><c>C </c><c>   2</c></rc>
    <rc><c>C </c><c>   2</c></rc>
    <rc><c>C </c><c>   2</c></rc>
    <rc><c>C </c><c>   2</c></rc>
    <rc><c>C </c><c>   2</c></rc>
    <rc><c>C </c><c>   2</c></rc>
    <rc><c>C </c><c>   2</c></rc>
    <rc><c>C </c><c>   2</c></rc>
    <rc><c>C </c><c>   2</c></rc>
    <rc><c>C </c><c>   2</c></rc>
    <rc><c>C </c><c>   2</c></rc>
    <rc><c>C </c><c>   2</c></rc>
    <rc><c>C </c><c>   2</c></rc>
    <rc><c>C </c><c>   2</c></rc>
    <rc><c>C </c><c>   2</c></rc>
    <rc><c>C </c><c>   2</c></rc>
    <rc><c>C </c><c>   2</c></rc>
    <rc><c>C </c><c>   2</c></rc>
    <rc><c>C </c><c>   2</c></rc>
    <rc><c>C </c><c>   2</c></rc>
    <rc><c>C </c><c>   2</c></rc>
    <rc><c>C </c><c>   2</c></rc>
    <rc><c>C </c><c>   2</c></rc>
    <rc><c>C </c><c>   2</c></rc>
    <rc><c>C </c><c>   2</c></rc>
    <rc><c>C </c><c>   2</c></rc>
    <rc><c>C </c><c>   2</c></rc>
    <rc><c>C </c><c>   2</c></rc>
    <rc><c>C </c><c>   2</c></rc>
    <rc><c>C </c><c>   2</c></rc>
    <rc><c>C </c><c>   2</c></rc>
    <rc><c>C </c><c>   2</c></rc>
    <rc><c>C </c><c>   2</c></rc>
    <rc><c>C </c><c>   2</c></rc>
    <rc><c>C </c><c>   2</c></rc>
    <rc><c>C </c><c>   2</c></rc>
    <rc><c>C </c><c>   2</c></rc>
    <rc><c>C </c><c>   2</c></rc>
    <rc><c>C </c><c>   2</c></rc>
    <rc><c>N </c><c>   3</c></rc>
    <rc><c>N </c><c>   3</c></rc>
    <rc><c>N </c><c>   3</c></rc>
    <rc><c>N </c><c>   3</c></rc>
    <rc><c>N </c><c>   3</c></rc>
    <rc><c>N </c><c>   3</c></rc>
    <rc><c>N </c><c>   3</c></rc>
    <rc><c>N </c><c>   3</c></rc>
    <rc><c>N </c><c>   3</c></rc>
    <rc><c>N </c><c>   3</c></rc>
    <rc><c>N </c><c>   3</c></rc>
    <rc><c>N </c><c>   3</c></rc>
    <rc><c>N </c><c>   3</c></rc>
    <rc><c>N </c><c>   3</c></rc>
    <rc><c>N </c><c>   3</c></rc>
    <rc><c>N </c><c>   3</c></rc>
    <rc><c>N </c><c>   3</c></rc>
    <rc><c>N </c><c>   3</c></rc>
    <rc><c>N </c><c>   3</c></rc>
    <rc><c>N </c><c>   3</c></rc>
    <rc><c>N </c><c>   3</c></rc>
    <rc><c>N </c><c>   3</c></rc>
    <rc><c>N </c><c>   3</c></rc>
    <rc><c>N </c><c>   3</c></rc>
    <rc><c>N </c><c>   3</c></rc>
    <rc><c>N </c><c>   3</c></rc>
    <rc><c>N </c><c>   3</c></rc>
    <rc><c>N </c><c>   3</c></rc>
    <rc><c>N </c><c>   3</c></rc>
    <rc><c>N </c><c>   3</c></rc>
    <rc><c>N </c><c>   3</c></rc>
    <rc><c>N </c><c>   3</c></rc>
    <rc><c>N </c><c>   3</c></rc>
    <rc><c>N </c><c>   3</c></rc>
    <rc><c>N </c><c>   3</c></rc>
    <rc><c>N </c><c>   3</c></rc>
    <rc><c>N </c><c>   3</c></rc>
    <rc><c>N </c><c>   3</c></rc>
    <rc><c>N </c><c>   3</c></rc>
    <rc><c>N </c><c>   3</c></rc>
    <rc><c>N </c><c>   3</c></rc>
    <rc><c>N </c><c>   3</c></rc>
    <rc><c>N </c><c>   3</c></rc>
    <rc><c>N </c><c>   3</c></rc>
    <rc><c>N </c><c>   3</c></rc>
    <rc><c>N </c><c>   3</c></rc>
    <rc><c>N </c><c>   3</c></rc>
    <rc><c>I </c><c>   4</c></rc>
    <rc><c>I </c><c>   4</c></rc>
    <rc><c>I </c><c>   4</c></rc>
    <rc><c>I </c><c>   4</c></rc>
    <rc><c>I </c><c>   4</c></rc>
    <rc><c>I </c><c>   4</c></rc>
    <rc><c>I </c><c>   4</c></rc>
    <rc><c>I </c><c>   4</c></rc>
    <rc><c>I </c><c>   4</c></rc>
    <rc><c>I </c><c>   4</c></rc>
    <rc><c>I </c><c>   4</c></rc>
    <rc><c>I </c><c>   4</c></rc>
    <rc><c>I </c><c>   4</c></rc>
    <rc><c>I </c><c>   4</c></rc>
    <rc><c>I </c><c>   4</c></rc>
    <rc><c>I </c><c>   4</c></rc>
    <rc><c>I </c><c>   4</c></rc>
    <rc><c>I </c><c>   4</c></rc>
    <rc><c>I </c><c>   4</c></rc>
    <rc><c>I </c><c>   4</c></rc>
    <rc><c>I </c><c>   4</c></rc>
    <rc><c>I </c><c>   4</c></rc>
    <rc><c>I </c><c>   4</c></rc>
    <rc><c>I </c><c>   4</c></rc>
    <rc><c>I </c><c>   4</c></rc>
    <rc><c>I </c><c>   4</c></rc>
    <rc><c>I </c><c>   4</c></rc>
    <rc><c>I </c><c>   4</c></rc>
    <rc><c>I </c><c>   4</c></rc>
    <rc><c>I </c><c>   4</c></rc>
    <rc><c>I </c><c>   4</c></rc>
    <rc><c>I </c><c>   4</c></rc>
    <rc><c>I </c><c>   4</c></rc>
    <rc><c>I </c><c>   4</c></rc>
    <rc><c>I </c><c>   4</c></rc>
    <rc><c>I </c><c>   4</c></rc>
    <rc><c>I </c><c>   4</c></rc>
    <rc><c>I </c><c>   4</c></rc>
    <rc><c>I </c><c>   4</c></rc>
    <rc><c>I </c><c>   4</c></rc>
    <rc><c>I </c><c>   4</c></rc>
    <rc><c>I </c><c>   4</c></rc>
    <rc><c>I </c><c>   4</c></rc>
    <rc><c>I </c><c>   4</c></rc>
    <rc><c>I </c><c>   4</c></rc>
    <rc><c>I </c><c>   4</c></rc>
    <rc><c>I </c><c>   4</c></rc>
    <rc><c>I </c><c>   4</c></rc>
    <rc><c>I </c><c>   4</c></rc>
    <rc><c>I </c><c>   4</c></rc>
    <rc><c>I </c><c>   4</c></rc>
    <rc><c>I </c><c>   4</c></rc>
    <rc><c>I </c><c>   4</c></rc>
    <rc><c>I </c><c>   4</c></rc>
    <rc><c>I </c><c>   4</c></rc>
    <rc><c>I </c><c>   4</c></rc>
    <rc><c>I </c><c>   4</c></rc>
    <rc><c>I </c><c>   4</c></rc>
    <rc><c>I </c><c>   4</c></rc>
    <rc><c>I </c><c>   4</c></rc>
    <rc><c>I </c><c>   4</c></rc>
    <rc><c>I </c><c>   4</c></rc>
    <rc><c>I </c><c>   4</c></rc>
    <rc><c>I </c><c>   4</c></rc>
    <rc><c>I </c><c>   4</c></rc>
    <rc><c>I </c><c>   4</c></rc>
    <rc><c>I </c><c>   4</c></rc>
    <rc><c>I </c><c>   4</c></rc>
    <rc><c>I </c><c>   4</c></rc>
    <rc><c>I </c><c>   4</c></rc>
    <rc><c>I </c><c>   4</c></rc>
    <rc><c>I </c><c>   4</c></rc>
    <rc><c>Pb</c><c>   5</c></rc>
    <rc><c>Pb</c><c>   5</c></rc>
    <rc><c>Pb</c><c>   5</c></rc>
    <rc><c>Pb</c><c>   5</c></rc>
    <rc><c>Pb</c><c>   5</c></rc>
    <rc><c>Pb</c><c>   5</c></rc>
    <rc><c>Pb</c><c>   5</c></rc>
    <rc><c>Pb</c><c>   5</c></rc>
    <rc><c>Pb</c><c>   5</c></rc>
    <rc><c>Pb</c><c>   5</c></rc>
    <rc><c>Pb</c><c>   5</c></rc>
    <rc><c>Pb</c><c>   5</c></rc>
    <rc><c>Pb</c><c>   5</c></rc>
    <rc><c>Pb</c><c>   5</c></rc>
    <rc><c>Pb</c><c>   5</c></rc>
    <rc><c>Pb</c><c>   5</c></rc>
    <rc><c>Pb</c><c>   5</c></rc>
    <rc><c>Pb</c><c>   5</c></rc>
    <rc><c>Pb</c><c>   5</c></rc>
    <rc><c>Pb</c><c>   5</c></rc>
    <rc><c>Pb</c><c>   5</c></rc>
    <rc><c>Pb</c><c>   5</c></rc>
    <rc><c>Pb</c><c>   5</c></rc>
    <rc><c>Pb</c><c>   5</c></rc>
   </set>
  </array>
  <array name="atomtypes" >
   <dimension dim="1">type</dimension>
   <field type="int">atomspertype</field>
   <field type="string">element</field>
   <field>mass</field>
   <field>valence</field>
   <field type="string">pseudopotential</field>
   <set>
    <rc><c> 143</c><c>H </c><c>      1.00000000</c><c>      1.00000000</c><c>  PAW_PBE H 15Jun2001                   </c></rc>
    <rc><c>  39</c><c>C </c><c>     12.01100000</c><c>      4.00000000</c><c>  PAW_PBE C 08Apr2002                   </c></rc>
    <rc><c>  47</c><c>N </c><c>     14.00100000</c><c>      5.00000000</c><c>  PAW_PBE N 08Apr2002                   </c></rc>
    <rc><c>  72</c><c>I </c><c>    126.90400000</c><c>      7.00000000</c><c>  PAW_PBE I 08Apr2002                   </c></rc>
    <rc><c>  24</c><c>Pb</c><c>    207.20000000</c><c>      4.00000000</c><c>  PAW_PBE Pb 08Apr2002                  </c></rc>
   </set>
  </array>
 </atominfo>
 <structure name="initialpos" >
  <crystal>
   <varray name="basis" >
    <v>      18.06080055       0.00000000       0.00000000 </v>
    <v>      -0.00491865      18.06279945       0.00000000 </v>
    <v>       0.00000000       0.00000000      62.48749924 </v>
   </varray>
   <i name="volume">  20385.21054034 </i>
   <varray name="rec_basis" >
    <v>       0.05536853       0.00001508      -0.00000000 </v>
    <v>       0.00000000       0.05536240       0.00000000 </v>
    <v>       0.00000000      -0.00000000       0.01600320 </v>
   </varray>
  </crystal>
  <varray name="positions" >
   <v>       0.44287495       0.32629817       0.56949934 </v>
   <v>       0.41964614       0.82806111       0.56925937 </v>
   <v>       0.96536481       0.32157756       0.57866200 </v>
   <v>       0.94841204       0.81257945       0.57633769 </v>
   <v>       0.32506865       0.95351104       0.57257412 </v>
   <v>       0.34234793       0.56292303       0.56785967 </v>
   <v>       0.80033746       0.07901799       0.57514989 </v>
   <v>       0.01856058       0.13738012       0.56168510 </v>
   <v>       0.06454581       0.65154899       0.56735896 </v>
   <v>       0.56037117       0.17365105       0.55356507 </v>
   <v>       0.51183370       0.65089620       0.56275917 </v>
   <v>       0.36243447       0.02108298       0.55610378 </v>
   <v>       0.28523214       0.62917042       0.55581979 </v>
   <v>       0.87172684       0.02312385       0.56489595 </v>
   <v>       0.97233435       0.18585614       0.58158697 </v>
   <v>       0.99653745       0.68595488       0.58416109 </v>
   <v>       0.56069622       0.25639370       0.56829580 </v>
   <v>       0.43788947       0.69299308       0.57583948 </v>
   <v>       0.28710797       0.43717440       0.57372370 </v>
   <v>       0.19057524       0.93108647       0.57078708 </v>
   <v>       0.67264309       0.02982322       0.57165163 </v>
   <v>       0.36686705       0.28433617       0.55713982 </v>
   <v>       0.48577665       0.87356751       0.55402738 </v>
   <v>       0.01979428       0.36344299       0.55912343 </v>
   <v>       0.99412488       0.86169779       0.55637923 </v>
   <v>       0.19787508       0.42434720       0.56390301 </v>
   <v>       0.13741367       0.99067440       0.55511249 </v>
   <v>       0.66511143       0.94037730       0.56087262 </v>
   <v>       0.43508830       0.18426755       0.54506288 </v>
   <v>       0.55323233       0.76456100       0.54799907 </v>
   <v>       0.05549886       0.24822090       0.54447285 </v>
   <v>       0.07310252       0.76360795       0.54773523 </v>
   <v>       0.18761152       0.54328509       0.55140338 </v>
   <v>       0.24338075       0.05774455       0.54399485 </v>
   <v>       0.78967215       0.92895727       0.55480762 </v>
   <v>       0.48218913       0.33475140       0.66824639 </v>
   <v>       0.44048530       0.81401397       0.67341637 </v>
   <v>       0.96773001       0.28024028       0.67912057 </v>
   <v>       0.92275958       0.73401499       0.67289795 </v>
   <v>       0.31152057       0.05294833       0.67051778 </v>
   <v>       0.29924039       0.55024662       0.67571926 </v>
   <v>       0.79158483       0.06206906       0.67527593 </v>
   <v>       0.76230132       0.59571727       0.66405115 </v>
   <v>       0.08417433       0.16382672       0.64516139 </v>
   <v>       0.10838175       0.71611087       0.65139842 </v>
   <v>       0.58285963       0.17405470       0.64944655 </v>
   <v>       0.56576018       0.67109713       0.65230723 </v>
   <v>       0.18291151       0.41458747       0.64739340 </v>
   <v>       0.17099283       0.92191603       0.65041915 </v>
   <v>       0.70929306       0.40223407       0.66178843 </v>
   <v>       0.67821210       0.91671145       0.65052104 </v>
   <v>       0.06470223       0.17686885       0.67223907 </v>
   <v>       0.05109339       0.67785181       0.67080305 </v>
   <v>       0.59644457       0.25749376       0.66222803 </v>
   <v>       0.53035832       0.70199482       0.67667306 </v>
   <v>       0.20111341       0.44518701       0.67353425 </v>
   <v>       0.20674592       0.95428436       0.67465551 </v>
   <v>       0.67858422       0.48856919       0.67106470 </v>
   <v>       0.69163341       0.95849151       0.67531079 </v>
   <v>       0.39871723       0.29482060       0.65961582 </v>
   <v>       0.42656498       0.84374773       0.64736752 </v>
   <v>       0.93573310       0.32525140       0.65646394 </v>
   <v>       0.90360353       0.80300940       0.65433058 </v>
   <v>       0.33257761       0.07433547       0.64403684 </v>
   <v>       0.33278509       0.57937306       0.65096162 </v>
   <v>       0.83282327       0.07751070       0.65046879 </v>
   <v>       0.83892162       0.57876620       0.64781921 </v>
   <v>       0.00598144       0.25624343       0.63310136 </v>
   <v>       0.01908651       0.79826198       0.63896917 </v>
   <v>       0.45701221       0.19156356       0.64521731 </v>
   <v>       0.50346283       0.75742539       0.63213516 </v>
   <v>       0.24643701       0.99451826       0.62951092 </v>
   <v>       0.26201191       0.49617702       0.63143342 </v>
   <v>       0.76712601       0.98698660       0.63313982 </v>
   <v>       0.81225030       0.45279146       0.64484809 </v>
   <v>       0.44874502       0.30128397       0.76888902 </v>
   <v>       0.44874501       0.80128391       0.76888902 </v>
   <v>       0.94874497       0.30128397       0.76888902 </v>
   <v>       0.94874501       0.80128391       0.76888902 </v>
   <v>       0.30127600       0.05129450       0.76887296 </v>
   <v>       0.30127601       0.55129450       0.76887296 </v>
   <v>       0.80127594       0.05129450       0.76887296 </v>
   <v>       0.80127598       0.55129450       0.76887296 </v>
   <v>       0.07877100       0.17118050       0.74344197 </v>
   <v>       0.07877101       0.67118045       0.74344197 </v>
   <v>       0.57877100       0.17118050       0.74344197 </v>
   <v>       0.57877099       0.67118045       0.74344197 </v>
   <v>       0.17119950       0.42117448       0.74342103 </v>
   <v>       0.17119950       0.92117451       0.74342103 </v>
   <v>       0.67119951       0.42117448       0.74342103 </v>
   <v>       0.67119950       0.92117451       0.74342103 </v>
   <v>       0.05125600       0.19871499       0.76888902 </v>
   <v>       0.05125600       0.69871493       0.76888902 </v>
   <v>       0.55125603       0.19871499       0.76888902 </v>
   <v>       0.55125602       0.69871493       0.76888902 </v>
   <v>       0.19872349       0.44870397       0.76887205 </v>
   <v>       0.19872349       0.94870397       0.76887205 </v>
   <v>       0.69872352       0.44870397       0.76887205 </v>
   <v>       0.69872351       0.94870397       0.76887205 </v>
   <v>       0.42123152       0.32881747       0.74344197 </v>
   <v>       0.42123151       0.82881744       0.74344197 </v>
   <v>       0.92123147       0.32881747       0.74344197 </v>
   <v>       0.92123151       0.82881744       0.74344197 </v>
   <v>       0.32880050       0.07882500       0.74342103 </v>
   <v>       0.32880049       0.57882496       0.74342103 </v>
   <v>       0.82880048       0.07882500       0.74342103 </v>
   <v>       0.82880052       0.57882496       0.74342103 </v>
   <v>       0.00000350       0.25000148       0.72582199 </v>
   <v>       0.00000350       0.75000145       0.72582199 </v>
   <v>       0.50000351       0.25000148       0.72582199 </v>
   <v>       0.50000350       0.75000145       0.72582199 </v>
   <v>       0.25000050       0.00000000       0.72580398 </v>
   <v>       0.25000052       0.50000000       0.72580398 </v>
   <v>       0.75000050       0.00000000       0.72580398 </v>
   <v>       0.75000049       0.50000000       0.72580398 </v>
   <v>       0.77493094       0.55504810       0.52035615 </v>
   <v>       0.72110684       0.47567494       0.52549188 </v>
   <v>       0.87151152       0.50092528       0.54156389 </v>
   <v>       0.85624567       0.48142973       0.56857496 </v>
   <v>       0.74346162       0.64019554       0.55948684 </v>
   <v>       0.80668304       0.59868672       0.57773738 </v>
   <v>       0.66761694       0.54911190       0.57009187 </v>
   <v>       0.67644217       0.45725493       0.56090046 </v>
   <v>       0.61635392       0.55351301       0.53779629 </v>
   <v>       0.67107471       0.63514396       0.53576042 </v>
   <v>       0.60652436       0.64415911       0.50466316 </v>
   <v>       0.68667029       0.60062176       0.49513440 </v>
   <v>       0.79245336       0.39094339       0.53063360 </v>
   <v>       0.77711225       0.36987729       0.55762087 </v>
   <v>       0.86683003       0.36681207       0.54694344 </v>
   <v>       0.86430121       0.69467147       0.55594866 </v>
   <v>       0.84533006       0.64754244       0.53177476 </v>
   <v>       0.90765391       0.60774966       0.55085768 </v>
   <v>       0.75836146       0.52833114       0.59980374 </v>
   <v>       0.77682543       0.43717345       0.59039549 </v>
   <v>       0.68777543       0.46202420       0.59960882 </v>
   <v>       0.53443047       0.52957997       0.50351358 </v>
   <v>       0.57608490       0.54698541       0.47835755 </v>
   <v>       0.69464633       0.47558787       0.46810739 </v>
   <v>       0.56160206       0.41964110       0.52348935 </v>
   <v>       0.76061764       0.35513691       0.47138774 </v>
   <v>       0.62972346       0.29949214       0.52653134 </v>
   <v>       0.72929816       0.26765494       0.50110899 </v>
   <v>       0.02056581       0.25007175       0.55871276 </v>
   <v>       0.03229674       0.75725316       0.56047679 </v>
   <v>       0.46272410       0.22850173       0.55395027 </v>
   <v>       0.50186110       0.76250997       0.55734146 </v>
   <v>       0.24001705       0.52626253       0.55862626 </v>
   <v>       0.24907029       0.01029354       0.55462094 </v>
   <v>       0.76907045       0.98001926       0.56214430 </v>
   <v>       0.00985777       0.24458103       0.65042947 </v>
   <v>       0.00601252       0.76067546       0.65222988 </v>
   <v>       0.48961296       0.23364092       0.65353605 </v>
   <v>       0.49614013       0.75777407       0.64934521 </v>
   <v>       0.25804948       0.49703419       0.64892581 </v>
   <v>       0.25168302       0.99828382       0.64698597 </v>
   <v>       0.77517932       0.48871924       0.65405257 </v>
   <v>       0.75598596       0.99657761       0.65018034 </v>
   <v>       0.49998898       0.24999498       0.74327702 </v>
   <v>       0.49998903       0.74999496       0.74327702 </v>
   <v>       0.99998898       0.24999498       0.74327702 </v>
   <v>       0.99998903       0.74999496       0.74327702 </v>
   <v>       0.25000050       0.00000100       0.74325596 </v>
   <v>       0.25000052       0.50000100       0.74325596 </v>
   <v>       0.75000050       0.00000100       0.74325596 </v>
   <v>       0.75000049       0.50000100       0.74325596 </v>
   <v>       0.62370218       0.45660636       0.49579020 </v>
   <v>       0.67953620       0.43672446       0.48111411 </v>
   <v>       0.60491944       0.40527514       0.51189044 </v>
   <v>       0.71736273       0.36973759       0.48299983 </v>
   <v>       0.64300220       0.33816617       0.51367440 </v>
   <v>       0.69987335       0.32046432       0.49936175 </v>
   <v>       0.73128943       0.53309001       0.53064550 </v>
   <v>       0.83149701       0.47654288       0.55259441 </v>
   <v>       0.79211858       0.60462472       0.56072037 </v>
   <v>       0.70688032       0.50308164       0.56849005 </v>
   <v>       0.66158840       0.57950537       0.52866739 </v>
   <v>       0.63754605       0.59248985       0.50526830 </v>
   <v>       0.81461218       0.39763003       0.54677251 </v>
   <v>       0.85646559       0.63942062       0.54885508 </v>
   <v>       0.73534030       0.48188743       0.59048230 </v>
   <v>       0.58844530       0.53181611       0.49515089 </v>
   <v>       0.00450527       0.18795230       0.56799166 </v>
   <v>       0.03278926       0.69585429       0.57172446 </v>
   <v>       0.53382820       0.22112818       0.55787715 </v>
   <v>       0.48178796       0.69822998       0.56543090 </v>
   <v>       0.42276352       0.28525123       0.55982761 </v>
   <v>       0.46424730       0.82459621       0.55949893 </v>
   <v>       0.99894098       0.31529893       0.56544348 </v>
   <v>       0.98638593       0.81221626       0.56396143 </v>
   <v>       0.24407411       0.45666000       0.56460780 </v>
   <v>       0.18933562       0.97307297       0.55978146 </v>
   <v>       0.69738411       0.98649146       0.56408707 </v>
   <v>       0.31520314       0.99408456       0.56161147 </v>
   <v>       0.29314535       0.57477897       0.56074863 </v>
   <v>       0.81658459       0.03054034       0.56823475 </v>
   <v>       0.05541877       0.19144405       0.65662010 </v>
   <v>       0.05757716       0.71407737       0.65854547 </v>
   <v>       0.56080649       0.22080390       0.65538774 </v>
   <v>       0.53232637       0.70783905       0.66038795 </v>
   <v>       0.21171495       0.44921928       0.65748154 </v>
   <v>       0.20744677       0.95651266       0.65841038 </v>
   <v>       0.71632987       0.45884525       0.66260757 </v>
   <v>       0.70605246       0.95535107       0.65962040 </v>
   <v>       0.45528936       0.29264745       0.66049105 </v>
   <v>       0.45235882       0.80822750       0.65746909 </v>
   <v>       0.96889744       0.28511010       0.66287129 </v>
   <v>       0.94058850       0.76734587       0.66085355 </v>
   <v>       0.30154756       0.04439389       0.65460792 </v>
   <v>       0.29891768       0.54433249       0.65957009 </v>
   <v>       0.79550873       0.04873162       0.65940618 </v>
   <v>       0.79331646       0.55933886       0.65556185 </v>
   <v>       0.04586250       0.20411950       0.75272599 </v>
   <v>       0.04586250       0.70411946       0.75272599 </v>
   <v>       0.54586251       0.20411950       0.75272599 </v>
   <v>       0.54586250       0.70411946       0.75272599 </v>
   <v>       0.20411900       0.45410100       0.75270499 </v>
   <v>       0.20411899       0.95410095       0.75270499 </v>
   <v>       0.70411898       0.45410100       0.75270499 </v>
   <v>       0.70411896       0.95410095       0.75270499 </v>
   <v>       0.45414002       0.29588849       0.75272697 </v>
   <v>       0.45414001       0.79588852       0.75272697 </v>
   <v>       0.95414002       0.29588849       0.75272697 </v>
[...]
   <v>       0.56037117       0.17365105       0.55356507 </v>
   <v>       0.51183370       0.65089620       0.56275917 </v>
   <v>       0.36243447       0.02108298       0.55610378 </v>
   <v>       0.28523214       0.62917042       0.55581979 </v>
   <v>       0.87172684       0.02312385       0.56489595 </v>
   <v>       0.97233435       0.18585614       0.58158697 </v>
   <v>       0.99653745       0.68595488       0.58416109 </v>
   <v>       0.56069622       0.25639370       0.56829580 </v>
   <v>       0.43788947       0.69299308       0.57583948 </v>
   <v>       0.28710797       0.43717440       0.57372370 </v>
   <v>       0.19057524       0.93108647       0.57078708 </v>
   <v>       0.67264309       0.02982322       0.57165163 </v>
   <v>       0.36686705       0.28433617       0.55713982 </v>
   <v>       0.48577665       0.87356751       0.55402738 </v>
   <v>       0.01979428       0.36344299       0.55912343 </v>
   <v>       0.99412488       0.86169779       0.55637923 </v>
   <v>       0.19787508       0.42434720       0.56390301 </v>
   <v>       0.13741367       0.99067440       0.55511249 </v>
   <v>       0.66511143       0.94037730       0.56087262 </v>
   <v>       0.43508830       0.18426755       0.54506288 </v>
   <v>       0.55323233       0.76456100       0.54799907 </v>
   <v>       0.05549886       0.24822090       0.54447285 </v>
   <v>       0.07310252       0.76360795       0.54773523 </v>
   <v>       0.18761152       0.54328509       0.55140338 </v>
   <v>       0.24338075       0.05774455       0.54399485 </v>
   <v>       0.78967215       0.92895727       0.55480762 </v>
   <v>       0.48218913       0.33475140       0.66824639 </v>
   <v>       0.44048530       0.81401397       0.67341637 </v>
   <v>       0.96773001       0.28024028       0.67912057 </v>
   <v>       0.92275958       0.73401499       0.67289795 </v>
   <v>       0.31152057       0.05294833       0.67051778 </v>
   <v>       0.29924039       0.55024662       0.67571926 </v>
   <v>       0.79158483       0.06206906       0.67527593 </v>
   <v>       0.76230132       0.59571727       0.66405115 </v>
   <v>       0.08417433       0.16382672       0.64516139 </v>
   <v>       0.10838175       0.71611087       0.65139842 </v>
   <v>       0.58285963       0.17405470       0.64944655 </v>
   <v>       0.56576018       0.67109713       0.65230723 </v>
   <v>       0.18291151       0.41458747       0.64739340 </v>
   <v>       0.17099283       0.92191603       0.65041915 </v>
   <v>       0.70929306       0.40223407       0.66178843 </v>
   <v>       0.67821210       0.91671145       0.65052104 </v>
   <v>       0.06470223       0.17686885       0.67223907 </v>
   <v>       0.05109339       0.67785181       0.67080305 </v>
   <v>       0.59644457       0.25749376       0.66222803 </v>
   <v>       0.53035832       0.70199482       0.67667306 </v>
   <v>       0.20111341       0.44518701       0.67353425 </v>
   <v>       0.20674592       0.95428436       0.67465551 </v>
   <v>       0.67858422       0.48856919       0.67106470 </v>
   <v>       0.69163341       0.95849151       0.67531079 </v>
   <v>       0.39871723       0.29482060       0.65961582 </v>
   <v>       0.42656498       0.84374773       0.64736752 </v>
   <v>       0.93573310       0.32525140       0.65646394 </v>
   <v>       0.90360353       0.80300940       0.65433058 </v>
   <v>       0.33257761       0.07433547       0.64403684 </v>
   <v>       0.33278509       0.57937306       0.65096162 </v>
   <v>       0.83282327       0.07751070       0.65046879 </v>
   <v>       0.83892162       0.57876620       0.64781921 </v>
   <v>       0.00598144       0.25624343       0.63310136 </v>
   <v>       0.01908651       0.79826198       0.63896917 </v>
   <v>       0.45701221       0.19156356       0.64521731 </v>
   <v>       0.50346283       0.75742539       0.63213516 </v>
   <v>       0.24643701       0.99451826       0.62951092 </v>
   <v>       0.26201191       0.49617702       0.63143342 </v>
   <v>       0.76712601       0.98698660       0.63313982 </v>
   <v>       0.81225030       0.45279146       0.64484809 </v>
   <v>       0.44874502       0.30128397       0.76888902 </v>
   <v>       0.44874501       0.80128391       0.76888902 </v>
   <v>       0.94874497       0.30128397       0.76888902 </v>
   <v>       0.94874501       0.80128391       0.76888902 </v>
   <v>       0.30127600       0.05129450       0.76887296 </v>
   <v>       0.30127601       0.55129450       0.76887296 </v>
   <v>       0.80127594       0.05129450       0.76887296 </v>
   <v>       0.80127598       0.55129450       0.76887296 </v>
   <v>       0.07877100       0.17118050       0.74344197 </v>
   <v>       0.07877101       0.67118045       0.74344197 </v>
   <v>       0.57877100       0.17118050       0.74344197 </v>
   <v>       0.57877099       0.67118045       0.74344197 </v>
   <v>       0.17119950       0.42117448       0.74342103 </v>
   <v>       0.17119950       0.92117451       0.74342103 </v>
   <v>       0.67119951       0.42117448       0.74342103 </v>
   <v>       0.67119950       0.92117451       0.74342103 </v>
   <v>       0.05125600       0.19871499       0.76888902 </v>
   <v>       0.05125600       0.69871493       0.76888902 </v>
   <v>       0.55125603       0.19871499       0.76888902 </v>
   <v>       0.55125602       0.69871493       0.76888902 </v>
   <v>       0.19872349       0.44870397       0.76887205 </v>
   <v>       0.19872349       0.94870397       0.76887205 </v>
   <v>       0.69872352       0.44870397       0.76887205 </v>
   <v>       0.69872351       0.94870397       0.76887205 </v>
   <v>       0.42123152       0.32881747       0.74344197 </v>
   <v>       0.42123151       0.82881744       0.74344197 </v>
   <v>       0.92123147       0.32881747       0.74344197 </v>
   <v>       0.92123151       0.82881744       0.74344197 </v>
   <v>       0.32880050       0.07882500       0.74342103 </v>
   <v>       0.32880049       0.57882496       0.74342103 </v>
   <v>       0.82880048       0.07882500       0.74342103 </v>
   <v>       0.82880052       0.57882496       0.74342103 </v>
   <v>       0.00000350       0.25000148       0.72582199 </v>
   <v>       0.00000350       0.75000145       0.72582199 </v>
   <v>       0.50000351       0.25000148       0.72582199 </v>
   <v>       0.50000350       0.75000145       0.72582199 </v>
   <v>       0.25000050       0.00000000       0.72580398 </v>
   <v>       0.25000052       0.50000000       0.72580398 </v>
   <v>       0.75000050       0.00000000       0.72580398 </v>
   <v>       0.75000049       0.50000000       0.72580398 </v>
   <v>       0.77493094       0.55504810       0.52035615 </v>
   <v>       0.72110684       0.47567494       0.52549188 </v>
   <v>       0.87151152       0.50092528       0.54156389 </v>
   <v>       0.85624567       0.48142973       0.56857496 </v>
   <v>       0.74346162       0.64019554       0.55948684 </v>
   <v>       0.80668304       0.59868672       0.57773738 </v>
   <v>       0.66761694       0.54911190       0.57009187 </v>
   <v>       0.67644217       0.45725493       0.56090046 </v>
   <v>       0.61635392       0.55351301       0.53779629 </v>
   <v>       0.67107471       0.63514396       0.53576042 </v>
   <v>       0.60652436       0.64415911       0.50466316 </v>
   <v>       0.68667029       0.60062176       0.49513440 </v>
   <v>       0.79245336       0.39094339       0.53063360 </v>
   <v>       0.77711225       0.36987729       0.55762087 </v>
   <v>       0.86683003       0.36681207       0.54694344 </v>
   <v>       0.86430121       0.69467147       0.55594866 </v>
   <v>       0.84533006       0.64754244       0.53177476 </v>
   <v>       0.90765391       0.60774966       0.55085768 </v>
   <v>       0.75836146       0.52833114       0.59980374 </v>
   <v>       0.77682543       0.43717345       0.59039549 </v>
   <v>       0.68777543       0.46202420       0.59960882 </v>
   <v>       0.53443047       0.52957997       0.50351358 </v>
   <v>       0.57608490       0.54698541       0.47835755 </v>
   <v>       0.69464633       0.47558787       0.46810739 </v>
   <v>       0.56160206       0.41964110       0.52348935 </v>
   <v>       0.76061764       0.35513691       0.47138774 </v>
   <v>       0.62972346       0.29949214       0.52653134 </v>
   <v>       0.72929816       0.26765494       0.50110899 </v>
   <v>       0.02056581       0.25007175       0.55871276 </v>
   <v>       0.03229674       0.75725316       0.56047679 </v>
   <v>       0.46272410       0.22850173       0.55395027 </v>
   <v>       0.50186110       0.76250997       0.55734146 </v>
   <v>       0.24001705       0.52626253       0.55862626 </v>
   <v>       0.24907029       0.01029354       0.55462094 </v>
   <v>       0.76907045       0.98001926       0.56214430 </v>
   <v>       0.00985777       0.24458103       0.65042947 </v>
   <v>       0.00601252       0.76067546       0.65222988 </v>
   <v>       0.48961296       0.23364092       0.65353605 </v>
   <v>       0.49614013       0.75777407       0.64934521 </v>
   <v>       0.25804948       0.49703419       0.64892581 </v>
   <v>       0.25168302       0.99828382       0.64698597 </v>
   <v>       0.77517932       0.48871924       0.65405257 </v>
   <v>       0.75598596       0.99657761       0.65018034 </v>
   <v>       0.49998898       0.24999498       0.74327702 </v>
   <v>       0.49998903       0.74999496       0.74327702 </v>
   <v>       0.99998898       0.24999498       0.74327702 </v>
   <v>       0.99998903       0.74999496       0.74327702 </v>
   <v>       0.25000050       0.00000100       0.74325596 </v>
   <v>       0.25000052       0.50000100       0.74325596 </v>
   <v>       0.75000050       0.00000100       0.74325596 </v>
   <v>       0.75000049       0.50000100       0.74325596 </v>
   <v>       0.62370218       0.45660636       0.49579020 </v>
   <v>       0.67953620       0.43672446       0.48111411 </v>
   <v>       0.60491944       0.40527514       0.51189044 </v>
   <v>       0.71736273       0.36973759       0.48299983 </v>
   <v>       0.64300220       0.33816617       0.51367440 </v>
   <v>       0.69987335       0.32046432       0.49936175 </v>
   <v>       0.73128943       0.53309001       0.53064550 </v>
   <v>       0.83149701       0.47654288       0.55259441 </v>
   <v>       0.79211858       0.60462472       0.56072037 </v>
   <v>       0.70688032       0.50308164       0.56849005 </v>
   <v>       0.66158840       0.57950537       0.52866739 </v>
   <v>       0.63754605       0.59248985       0.50526830 </v>
   <v>       0.81461218       0.39763003       0.54677251 </v>
   <v>       0.85646559       0.63942062       0.54885508 </v>
   <v>       0.73534030       0.48188743       0.59048230 </v>
   <v>       0.58844530       0.53181611       0.49515089 </v>
   <v>       0.00450527       0.18795230       0.56799166 </v>
   <v>       0.03278926       0.69585429       0.57172446 </v>
   <v>       0.53382820       0.22112818       0.55787715 </v>
   <v>       0.48178796       0.69822998       0.56543090 </v>
   <v>       0.42276352       0.28525123       0.55982761 </v>
   <v>       0.46424730       0.82459621       0.55949893 </v>
   <v>       0.99894098       0.31529893       0.56544348 </v>
   <v>       0.98638593       0.81221626       0.56396143 </v>
   <v>       0.24407411       0.45666000       0.56460780 </v>
   <v>       0.18933562       0.97307297       0.55978146 </v>
   <v>       0.69738411       0.98649146       0.56408707 </v>
   <v>       0.31520314       0.99408456       0.56161147 </v>
   <v>       0.29314535       0.57477897       0.56074863 </v>
   <v>       0.81658459       0.03054034       0.56823475 </v>
   <v>       0.05541877       0.19144405       0.65662010 </v>
   <v>       0.05757716       0.71407737       0.65854547 </v>
   <v>       0.56080649       0.22080390       0.65538774 </v>
   <v>       0.53232637       0.70783905       0.66038795 </v>
   <v>       0.21171495       0.44921928       0.65748154 </v>
   <v>       0.20744677       0.95651266       0.65841038 </v>
   <v>       0.71632987       0.45884525       0.66260757 </v>
   <v>       0.70605246       0.95535107       0.65962040 </v>
   <v>       0.45528936       0.29264745       0.66049105 </v>
   <v>       0.45235882       0.80822750       0.65746909 </v>
   <v>       0.96889744       0.28511010       0.66287129 </v>
   <v>       0.94058850       0.76734587       0.66085355 </v>
   <v>       0.30154756       0.04439389       0.65460792 </v>
   <v>       0.29891768       0.54433249       0.65957009 </v>
   <v>       0.79550873       0.04873162       0.65940618 </v>
   <v>       0.79331646       0.55933886       0.65556185 </v>
   <v>       0.04586250       0.20411950       0.75272599 </v>
   <v>       0.04586250       0.70411946       0.75272599 </v>
   <v>       0.54586251       0.20411950       0.75272599 </v>
   <v>       0.54586250       0.70411946       0.75272599 </v>
   <v>       0.20411900       0.45410100       0.75270499 </v>
   <v>       0.20411899       0.95410095       0.75270499 </v>
   <v>       0.70411898       0.45410100       0.75270499 </v>
   <v>       0.70411896       0.95410095       0.75270499 </v>
   <v>       0.45414002       0.29588849       0.75272697 </v>
   <v>       0.45414001       0.79588852       0.75272697 </v>
   <v>       0.95414002       0.29588849       0.75272697 </v>
   <v>       0.95414006       0.79588852       0.75272697 </v>
   <v>       0.29588249       0.04590050       0.75270499 </v>
   <v>       0.29588248       0.54590053       0.75270499 </v>
   <v>       0.79588244       0.04590050       0.75270499 </v>
   <v>       0.79588248       0.54590053       0.75270499 </v>
   <v>       0.76581326       0.52909993       0.55289129 </v>
   <v>       0.50571467       0.01997669       0.55159904 </v>
   <v>       0.47556057       0.50024567       0.55520101 </v>
   <v>       0.99998189       0.00184618       0.54983690 </v>
   <v>       0.03987511       0.50368459       0.55289190 </v>
   <v>       0.23042042       0.24032551       0.55198321 </v>
   <v>       0.24873434       0.76931807       0.55372580 </v>
   <v>       0.73566226       0.20233514       0.55530589 </v>
   <v>       0.70565518       0.79219817       0.55233893 </v>
   <v>       0.00199162       0.98192728       0.65396753 </v>
   <v>       0.00673485       0.49540026       0.65525362 </v>
   <v>       0.50238761       0.01217928       0.65438198 </v>
   <v>       0.51535821       0.48777538       0.65505283 </v>
   <v>       0.26024754       0.24531911       0.65451250 </v>
   <v>       0.25055385       0.75537874       0.65464540 </v>
   <v>       0.75442278       0.26285896       0.65469784 </v>
   <v>       0.74439797       0.75472811       0.65408548 </v>
   <v>       0.13455458       0.10742409       0.60807115 </v>
   <v>       0.14791323       0.60705885       0.61010897 </v>
   <v>       0.64848841       0.10540507       0.61057403 </v>
   <v>       0.61738592       0.63301045       0.61249751 </v>
   <v>       0.36009386       0.38389790       0.60622690 </v>
   <v>       0.37153918       0.88264063       0.60774607 </v>
   <v>       0.89263503       0.36395806       0.61229636 </v>
   <v>       0.87256079       0.87030973       0.60738046 </v>
   <v>       0.12494363       0.36422012       0.61033753 </v>
   <v>       0.12515532       0.87131790       0.60674282 </v>
   <v>       0.58495175       0.33264472       0.60246614 </v>
   <v>       0.61698947       0.87305062       0.61126246 </v>
   <v>       0.38637459       0.13448297       0.60611977 </v>
   <v>       0.38387201       0.62818522       0.61157801 </v>
   <v>       0.88640600       0.13514695       0.61192397 </v>
   <v>       0.90495920       0.64054659       0.61308271 </v>
   <v>       0.00000000       0.00000000       0.75492797 </v>
   <v>       0.00000000       0.50000000       0.75492797 </v>
   <v>       0.50000000       0.00000000       0.75492797 </v>
   <v>       0.49999999       0.50000000       0.75492797 </v>
   <v>       0.25000050       0.25000000       0.75493902 </v>
   <v>       0.25000051       0.74999997       0.75493902 </v>
   <v>       0.75000047       0.25000000       0.75493902 </v>
   <v>       0.75000046       0.74999997       0.75493902 </v>
   <v>       0.13579050       0.11421000       0.70478299 </v>
   <v>       0.13579050       0.61420998       0.70478299 </v>
   <v>       0.63579045       0.11421000       0.70478299 </v>
   <v>       0.63579049       0.61420998       0.70478299 </v>
   <v>       0.36420952       0.38578999       0.70478299 </v>
   <v>       0.36420950       0.88578996       0.70478299 </v>
   <v>       0.86420954       0.38578999       0.70478299 </v>
   <v>       0.86420953       0.88578996       0.70478299 </v>
   <v>       0.11421799       0.36421899       0.70478098 </v>
   <v>       0.11421799       0.86421899       0.70478098 </v>
   <v>       0.61421800       0.36421899       0.70478098 </v>
   <v>       0.61421799       0.86421899       0.70478098 </v>
   <v>       0.38578201       0.13578149       0.70478202 </v>
   <v>       0.38578200       0.63578149       0.70478202 </v>
   <v>       0.88578199       0.13578149       0.70478202 </v>
   <v>       0.88578203       0.63578149       0.70478202 </v>
   <v>       0.13466700       0.11533200       0.80125603 </v>
   <v>       0.13466699       0.61533199       0.80125603 </v>
   <v>       0.63466699       0.11533200       0.80125603 </v>
   <v>       0.63466698       0.61533199       0.80125603 </v>
   <v>       0.36533300       0.38466799       0.80125603 </v>
   <v>       0.36533299       0.88466796       0.80125603 </v>
   <v>       0.86533295       0.38466799       0.80125603 </v>
   <v>       0.86533294       0.88466796       0.80125603 </v>
   <v>       0.11532850       0.36533700       0.80126500 </v>
   <v>       0.11532850       0.86533698       0.80126500 </v>
   <v>       0.61532850       0.36533700       0.80126500 </v>
   <v>       0.61532849       0.86533698       0.80126500 </v>
   <v>       0.38467151       0.13466300       0.80126500 </v>
   <v>       0.38467150       0.63466297       0.80126500 </v>
   <v>       0.88467149       0.13466300       0.80126500 </v>
   <v>       0.88467153       0.63466297       0.80126500 </v>
   <v>       0.99646191       0.99726034       0.60544568 </v>
   <v>       0.00898138       0.50094571       0.60557388 </v>
   <v>       0.50048429       0.00688962       0.60389209 </v>
   <v>       0.49784257       0.49253763       0.60465249 </v>
   <v>       0.24449644       0.24262643       0.60254789 </v>
   <v>       0.24838853       0.74622689       0.60405148 </v>
   <v>       0.74138839       0.24911749       0.60277297 </v>
   <v>       0.73380217       0.75733579       0.60184773 </v>
   <v>       0.00000050       0.00000050       0.70482896 </v>
   <v>       0.00000050       0.50000048       0.70482896 </v>
   <v>       0.50000048       0.00000050       0.70482896 </v>
   <v>       0.50000046       0.50000048       0.70482896 </v>
   <v>       0.24999999       0.24999947       0.70482499 </v>
   <v>       0.25000001       0.74999950       0.70482499 </v>
   <v>       0.74999999       0.24999947       0.70482499 </v>
   <v>       0.74999998       0.74999950       0.70482499 </v>
   <v>       0.00000000       0.00000000       0.80731797 </v>
   <v>       0.00000000       0.50000000       0.80731797 </v>
   <v>       0.50000000       0.00000000       0.80731797 </v>
   <v>       0.49999999       0.50000000       0.80731797 </v>
   <v>       0.24999999       0.25000000       0.80731797 </v>
   <v>       0.25000001       0.74999997       0.80731797 </v>
   <v>       0.74999999       0.25000000       0.80731797 </v>
   <v>       0.74999998       0.74999997       0.80731797 </v>
  </varray>
 </structure>
</modeling>
