 vasp.6.2.1 16May21 (build Nov 15 2021 14:57:28) complex                         
 executed on             LinuxPGI date 2023.07.25  02:37:56
 running on    4 total cores
 distrk:  each k-point on    4 cores,    1 groups
 distr:  one band on NCORE=   1 cores,    4 groups


--------------------------------------------------------------------------------------------------------


 INCAR:
   SYSTEM = PSC
   ISTART = 1
   ICHARG = 1
   PREC = Normal
   ENCUT = 500
   GGA_COMPAT = F
   NELM = 600
   ISYM = 0
   LREAL = Auto
   ISMEAR = 0
   SIGMA = 0.05
   AMIN = 0.01
   BMIX = 0.01
   LVTOT = T
   LWAVE = F
   LDIPOL = T
   IDIPOL = 3
   LVDW = T
   IVDW = 12

 POTCAR:    PAW_PBE H 15Jun2001                   
 POTCAR:    PAW_PBE C 08Apr2002                   
 POTCAR:    PAW_PBE N 08Apr2002                   
 POTCAR:    PAW_PBE I 08Apr2002                   
 POTCAR:    PAW_PBE Pb 08Apr2002                  
 WARNING: For LVTOT=.TRUE., VASP.5.x writes the TOTAL local potential to the
     file LOCPOT. If you want only the Hartree contributions, use LVHAR=.TRUE.
     instead. 

 POTCAR:    PAW_PBE H 15Jun2001                   
   SHA256 =  030f79b5d3ab3cf0e668861823c8fb652ff669f3e15e46930bd03bfd63a607b6 H/POTCAR              
   COPYR  = (c) Copyright 15Jun2001 Georg Kresse                                                    
   COPYR  = This file is part of the software VASP. Any use, copying, and all other rights are regul
   COPYR  = If you do not have a valid VASP license, you may not use, copy or distribute this file. 
   VRHFIN =H: ultrasoft test                                                                        
   LEXCH  = PE                                                                                      
   EATOM  =    12.4884 eV,    0.9179 Ry                                                             
                                                                                                    
   TITEL  = PAW_PBE H 15Jun2001                                                                     
   LULTRA =        F    use ultrasoft PP ?                                                          
   IUNSCR =        0    unscreen: 0-lin 1-nonlin 2-no                                               
   RPACOR =    0.000    partial core radius                                                         
   POMASS =    1.000; ZVAL   =    1.000    mass and valenz                                          
   RCORE  =    1.100    outmost cutoff radius                                                       
   RWIGS  =    0.700; RWIGS  =    0.370    wigner-seitz radius (au A)                               
   ENMAX  =  250.000; ENMIN  =  200.000 eV                                                          
   RCLOC  =    0.701    cutoff for local pot                                                        
   LCOR   =        T    correct aug charges                                                         
   LPAW   =        T    paw PP                                                                      
   EAUG   =  400.000                                                                                
   RMAX   =    1.123    core radius for proj-oper                                                   
   RAUG   =    1.200    factor for augmentation sphere                                              
   RDEP   =    1.112    radius for radial grids                                                     
   RDEPT  =    0.926    core radius for aug-charge                                                  
                                                                                                    
   Atomic configuration                                                                             
    2 entries                                                                                       
     n  l   j            E        occ.                                                              
     1  0  0.50        -6.4927   1.0000                                                             
     2  1  0.50        -3.4015   0.0000                                                             
   Description                                                                                      
     l       E           TYP  RCUT    TYP  RCUT                                                     
     0     -6.4927494     23  1.100                                                                 
     0      6.8029130     23  1.100                                                                 
     1     -4.0817478     23  1.100                                                                 
  local pseudopotential read in
  atomic valenz-charges read in
  non local Contribution for L=            0  read in
    real space projection operators read in
  non local Contribution for L=            0  read in
    real space projection operators read in
  non local Contribution for L=            1  read in
    real space projection operators read in
    PAW grid and wavefunctions read in
 
   number of l-projection  operators is LMAX  =            3
   number of lm-projection operators is LMMAX =            5
 
 POTCAR:    PAW_PBE C 08Apr2002                   
   SHA256 =  253f7b50bb8d59471dbedb8285d89021f4a42ed1a2c5d38a03a736e69125dd95 C/POTCAR              
   COPYR  = (c) Copyright 08Apr2002 Georg Kresse                                                    
   COPYR  = This file is part of the software VASP. Any use, copying, and all other rights are regul
   COPYR  = If you do not have a valid VASP license, you may not use, copy or distribute this file. 
   VRHFIN =C: s2p2                                                                                  
   LEXCH  = PE                                                                                      
   EATOM  =   147.1560 eV,   10.8157 Ry                                                             
                                                                                                    
   TITEL  = PAW_PBE C 08Apr2002                                                                     
   LULTRA =        F    use ultrasoft PP ?                                                          
   IUNSCR =        1    unscreen: 0-lin 1-nonlin 2-no                                               
   RPACOR =    1.200    partial core radius                                                         
   POMASS =   12.011; ZVAL   =    4.000    mass and valenz                                          
   RCORE  =    1.500    outmost cutoff radius                                                       
   RWIGS  =    1.630; RWIGS  =    0.863    wigner-seitz radius (au A)                               
   ENMAX  =  400.000; ENMIN  =  300.000 eV                                                          
   ICORE  =        2    local potential                                                             
   LCOR   =        T    correct aug charges                                                         
   LPAW   =        T    paw PP                                                                      
   EAUG   =  644.873                                                                                
   DEXC   =    0.000                                                                                
   RMAX   =    1.529    core radius for proj-oper                                                   
   RAUG   =    1.300    factor for augmentation sphere                                              
   RDEP   =    1.501    radius for radial grids                                                     
   RDEPT  =    1.300    core radius for aug-charge                                                  
                                                                                                    
   Atomic configuration                                                                             
    4 entries                                                                                       
     n  l   j            E        occ.                                                              
     1  0  0.50      -273.3789   2.0000                                                             
     2  0  0.50       -13.7508   2.0000                                                             
     2  1  0.50        -5.2854   2.0000                                                             
     3  2  1.50        -5.4423   0.0000                                                             
   Description                                                                                      
     l       E           TYP  RCUT    TYP  RCUT                                                     
     0    -13.7508458     23  1.200                                                                 
     0     -8.2022199     23  1.200                                                                 
     1     -5.2854383     23  1.500                                                                 
     1     34.0145650     23  1.500                                                                 
     2     -5.4423304      7  1.500                                                                 
  local pseudopotential read in
  partial core-charges read in
  partial kinetic energy density read in
  atomic valenz-charges read in
  non local Contribution for L=            0  read in
    real space projection operators read in
  non local Contribution for L=            0  read in
    real space projection operators read in
  non local Contribution for L=            1  read in
    real space projection operators read in
  non local Contribution for L=            1  read in
    real space projection operators read in
    PAW grid and wavefunctions read in
 
   number of l-projection  operators is LMAX  =            4
   number of lm-projection operators is LMMAX =            8
 
 POTCAR:    PAW_PBE N 08Apr2002                   
   SHA256 =  e053789ff3a61a86a1b75d8a110fcc91f86041011e7b0817c7c99e4e8a6349d7 N/POTCAR              
   COPYR  = (c) Copyright 08Apr2002 Georg Kresse                                                    
   COPYR  = This file is part of the software VASP. Any use, copying, and all other rights are regul
   COPYR  = If you do not have a valid VASP license, you may not use, copy or distribute this file. 
   VRHFIN =N: s2p3                                                                                  
   LEXCH  = PE                                                                                      
   EATOM  =   264.5486 eV,   19.4438 Ry                                                             
                                                                                                    
   TITEL  = PAW_PBE N 08Apr2002                                                                     
   LULTRA =        F    use ultrasoft PP ?                                                          
   IUNSCR =        1    unscreen: 0-lin 1-nonlin 2-no                                               
   RPACOR =    1.200    partial core radius                                                         
   POMASS =   14.001; ZVAL   =    5.000    mass and valenz                                          
   RCORE  =    1.500    outmost cutoff radius                                                       
   RWIGS  =    1.400; RWIGS  =    0.741    wigner-seitz radius (au A)                               
   ENMAX  =  400.000; ENMIN  =  300.000 eV                                                          
   ICORE  =        2    local potential                                                             
   LCOR   =        T    correct aug charges                                                         
   LPAW   =        T    paw PP                                                                      
   EAUG   =  627.112                                                                                
   DEXC   =    0.000                                                                                
   RMAX   =    1.529    core radius for proj-oper                                                   
   RAUG   =    1.300    factor for augmentation sphere                                              
   RDEP   =    1.514    radius for radial grids                                                     
   RDEPT  =    1.338    core radius for aug-charge                                                  
                                                                                                    
   Atomic configuration                                                                             
    4 entries                                                                                       
     n  l   j            E        occ.                                                              
     1  0  0.50      -384.7179   2.0000                                                             
     2  0  0.50       -18.5828   2.0000                                                             
     2  1  0.50        -7.0898   3.0000                                                             
     3  2  1.50        -6.8029   0.0000                                                             
   Description                                                                                      
     l       E           TYP  RCUT    TYP  RCUT                                                     
     0    -18.5828119     23  1.200                                                                 
     0    -13.5018863     23  1.200                                                                 
     1     -7.0897853     23  1.500                                                                 
     1      9.5240782     23  1.500                                                                 
     2     -6.8029130      7  1.500                                                                 
  local pseudopotential read in
  partial core-charges read in
  partial kinetic energy density read in
  atomic valenz-charges read in
  non local Contribution for L=            0  read in
    real space projection operators read in
  non local Contribution for L=            0  read in
    real space projection operators read in
  non local Contribution for L=            1  read in
    real space projection operators read in
  non local Contribution for L=            1  read in
    real space projection operators read in
    PAW grid and wavefunctions read in
 
   number of l-projection  operators is LMAX  =            4
   number of lm-projection operators is LMMAX =            8
 
 POTCAR:    PAW_PBE I 08Apr2002                   
   SHA256 =  e40f3f59b681c1fc3e3091736183c4589116986673d2b852a5012aec72758799 I/POTCAR              
   COPYR  = (c) Copyright 08Apr2002 Georg Kresse                                                    
   COPYR  = This file is part of the software VASP. Any use, copying, and all other rights are regul
   COPYR  = If you do not have a valid VASP license, you may not use, copy or distribute this file. 
   VRHFIN =I : s2p5                                                                                 
   LEXCH  = PE                                                                                      
   EATOM  =   315.8678 eV,   23.2156 Ry                                                             
                                                                                                    
   TITEL  = PAW_PBE I 08Apr2002                                                                     
   LULTRA =        F    use ultrasoft PP ?                                                          
   IUNSCR =        1    unscreen: 0-lin 1-nonlin 2-no                                               
   RPACOR =    2.200    partial core radius                                                         
   POMASS =  126.904; ZVAL   =    7.000    mass and valenz                                          
   RCORE  =    2.300    outmost cutoff radius                                                       
   RWIGS  =    2.810; RWIGS  =    1.487    wigner-seitz radius (au A)                               
   ENMAX  =  175.647; ENMIN  =  131.735 eV                                                          
   ICORE  =        3    local potential                                                             
   LCOR   =        T    correct aug charges                                                         
   LPAW   =        T    paw PP                                                                      
   EAUG   =  370.139                                                                                
   DEXC   =    0.000                                                                                
   RMAX   =    2.359    core radius for proj-oper                                                   
   RAUG   =    1.300    factor for augmentation sphere                                              
   RDEP   =    2.392    radius for radial grids                                                     
   RDEPT  =    2.170    core radius for aug-charge                                                  
                                                                                                    
   Atomic configuration                                                                             
   13 entries                                                                                       
     n  l   j            E        occ.                                                              
     1  0  0.50    -32976.3739   2.0000                                                             
     2  0  0.50     -5094.5933   2.0000                                                             
     2  1  1.50     -4572.0131   6.0000                                                             
     3  0  0.50     -1028.2813   2.0000                                                             
     3  1  1.50      -859.0250   6.0000                                                             
     3  2  2.50      -605.7620  10.0000                                                             
     4  0  0.50      -180.5540   2.0000                                                             
     4  1  1.50      -127.5306   6.0000                                                             
     4  2  2.50       -50.2720  10.0000                                                             
     5  0  0.50       -17.4058   2.0000                                                             
     5  1  0.50        -7.0851   5.0000                                                             
     5  2  1.50        -7.0750   0.0000                                                             
     4  3  2.50        -7.0750   0.0000                                                             
   Description                                                                                      
     l       E           TYP  RCUT    TYP  RCUT                                                     
     0    -17.4058016     23  2.300                                                                 
     0    -18.7663842     23  2.300                                                                 
     1     -7.0850686     23  2.300                                                                 
     1     -4.2150896     23  2.300                                                                 
     2     -7.0750295     23  2.300                                                                 
     3     -1.3605826     23  2.300                                                                 
  local pseudopotential read in
  partial core-charges read in
  partial kinetic energy density read in
  atomic valenz-charges read in
  non local Contribution for L=            0  read in
    real space projection operators read in
  non local Contribution for L=            0  read in
    real space projection operators read in
  non local Contribution for L=            1  read in
    real space projection operators read in
  non local Contribution for L=            1  read in
    real space projection operators read in
  non local Contribution for L=            2  read in
    real space projection operators read in
    PAW grid and wavefunctions read in
 
   number of l-projection  operators is LMAX  =            5
   number of lm-projection operators is LMMAX =           13
 
 POTCAR:    PAW_PBE Pb 08Apr2002                  
   SHA256 =  797118a27cf1bcd06b9881c67a26cdde129e3cd1a551dd4a281f9681ce847303 Pb/POTCAR             
   COPYR  = (c) Copyright 08Apr2002 Georg Kresse                                                    
   COPYR  = This file is part of the software VASP. Any use, copying, and all other rights are regul
   COPYR  = If you do not have a valid VASP license, you may not use, copy or distribute this file. 
   VRHFIN =Pb:                                                                                      
   LEXCH  = PE                                                                                      
   EATOM  =    96.9868 eV,    7.1283 Ry                                                             
                                                                                                    
   TITEL  = PAW_PBE Pb 08Apr2002                                                                    
   LULTRA =        F    use ultrasoft PP ?                                                          
   IUNSCR =        1    unscreen: 0-lin 1-nonlin 2-no                                               
   RPACOR =    2.200    partial core radius                                                         
   POMASS =  207.200; ZVAL   =    4.000    mass and valenz                                          
   RCORE  =    3.100    outmost cutoff radius                                                       
   RWIGS  =    3.260; RWIGS  =    1.725    wigner-seitz radius (au A)                               
   ENMAX  =   97.973; ENMIN  =   73.480 eV                                                          
   ICORE  =        3    local potential                                                             
   LCOR   =        T    correct aug charges                                                         
   LPAW   =        T    paw PP                                                                      
   EAUG   =  234.873                                                                                
   DEXC   =    0.000                                                                                
   RMAX   =    3.158    core radius for proj-oper                                                   
   RAUG   =    1.300    factor for augmentation sphere                                              
   RDEP   =    3.202    radius for radial grids                                                     
   RDEPT  =    2.659    core radius for aug-charge                                                  
                                                                                                    
   Atomic configuration                                                                             
   17 entries                                                                                       
     n  l   j            E        occ.                                                              
     1  0  0.50    -88091.8466   2.0000                                                             
     2  0  0.50    -15753.4197   2.0000                                                             
     2  1  1.50    -13508.1797   6.0000                                                             
     3  0  0.50     -3781.7194   2.0000                                                             
     3  1  1.50     -3138.2529   6.0000                                                             
     3  2  2.50     -2483.2977  10.0000                                                             
     4  0  0.50      -856.2895   2.0000                                                             
     4  1  1.50      -645.4943   6.0000                                                             
     4  2  2.50      -401.8768  10.0000                                                             
     4  3  3.50      -132.9059  14.0000                                                             
     5  0  0.50      -144.0950   2.0000                                                             
     5  1  1.50       -85.7879   6.0000                                                             
     5  2  2.50       -21.1769  10.0000                                                             
     6  0  0.50       -12.0372   2.0000                                                             
     6  1  1.50        -3.4971   2.0000                                                             
     6  2  2.50        -1.3606   0.0000                                                             
     5  3  2.50        -2.7212   0.0000                                                             
   Description                                                                                      
     l       E           TYP  RCUT    TYP  RCUT                                                     
     0    -12.0371566     23  3.100                                                                 
     0    -13.3977392     23  3.100                                                                 
     1     -3.4971341     23  3.100                                                                 
     1     -5.4423304     23  3.100                                                                 
     2     -1.3605826     23  3.100                                                                 
     3     -1.3605826     23  3.100                                                                 
  local pseudopotential read in
  partial core-charges read in
  partial kinetic energy density read in
  atomic valenz-charges read in
  non local Contribution for L=            0  read in
    real space projection operators read in
  non local Contribution for L=            0  read in
    real space projection operators read in
  non local Contribution for L=            1  read in
    real space projection operators read in
  non local Contribution for L=            1  read in
    real space projection operators read in
  non local Contribution for L=            2  read in
    real space projection operators read in
    PAW grid and wavefunctions read in
 
   number of l-projection  operators is LMAX  =            5
   number of lm-projection operators is LMMAX =           13
 
 Optimization of the real space projectors (new method)

 maximal supplied QI-value         = 34.20
 optimisation between [QCUT,QGAM] = [ 11.29, 22.57] = [ 35.68,142.71] Ry 
 Optimized for a Real-space Cutoff    1.16 Angstroem

   l    n(q)    QCUT    max X(q) W(low)/X(q) W(high)/X(q)  e(spline) 
   0      8    11.287    19.460    0.40E-03    0.73E-03    0.16E-06
   0      8    11.287    12.209    0.38E-03    0.70E-03    0.15E-06
   1      7    11.287     4.655    0.22E-03    0.25E-04    0.22E-06
 Optimization of the real space projectors (new method)

 maximal supplied QI-value         = 25.13
 optimisation between [QCUT,QGAM] = [ 11.31, 22.87] = [ 35.82,146.48] Ry 
 Optimized for a Real-space Cutoff    1.00 Angstroem

   l    n(q)    QCUT    max X(q) W(low)/X(q) W(high)/X(q)  e(spline) 
   0      7    11.310   115.676    0.43E-03    0.13E-02    0.19E-06
   0      7    11.310    87.132    0.43E-03    0.13E-02    0.18E-06
   1      6    11.310     4.429    0.42E-03    0.74E-03    0.11E-06
   1      6    11.310     2.733    0.34E-03    0.55E-03    0.92E-07
 Optimization of the real space projectors (new method)

 maximal supplied QI-value         = 25.13
 optimisation between [QCUT,QGAM] = [ 11.31, 22.87] = [ 35.82,146.48] Ry 
 Optimized for a Real-space Cutoff    1.27 Angstroem

   l    n(q)    QCUT    max X(q) W(low)/X(q) W(high)/X(q)  e(spline) 
   0      9    11.310    79.467    0.75E-04    0.16E-03    0.36E-06
   0      9    11.310    66.151    0.74E-04    0.16E-03    0.36E-06
   1      8    11.310    17.416    0.35E-03    0.12E-03    0.95E-06
   1      8    11.310    12.382    0.37E-03    0.13E-03    0.98E-06
 Optimization of the real space projectors (new method)

 maximal supplied QI-value         = 16.25
 optimisation between [QCUT,QGAM] = [ 11.38, 22.75] = [ 36.24,144.96] Ry 
 Optimized for a Real-space Cutoff    1.31 Angstroem

   l    n(q)    QCUT    max X(q) W(low)/X(q) W(high)/X(q)  e(spline) 
   0      9    11.376   194.483    0.24E-03    0.23E-03    0.67E-07
   0      9    11.376   190.334    0.23E-03    0.22E-03    0.65E-07
   1      8    11.376   116.687    0.25E-03    0.63E-04    0.16E-06
   1      8    11.376    88.696    0.25E-03    0.61E-04    0.16E-06
   2      8    11.376     4.877    0.17E-03    0.14E-03    0.29E-07
 Optimization of the real space projectors (new method)

 maximal supplied QI-value         = 12.09
 optimisation between [QCUT,QGAM] = [ 11.37, 22.86] = [ 36.19,146.31] Ry 
 Optimized for a Real-space Cutoff    1.66 Angstroem

   l    n(q)    QCUT    max X(q) W(low)/X(q) W(high)/X(q)  e(spline) 
   0     11    11.369   135.111    0.12E-03    0.69E-04    0.19E-05
   0     11    11.369   146.850    0.11E-03    0.65E-04    0.18E-05
   1     11    11.369   148.016    0.17E-03    0.32E-03    0.89E-06
   1     11    11.369   122.989    0.17E-03    0.32E-03    0.91E-06
   2     10    11.369     8.916    0.12E-03    0.45E-04    0.33E-06
  PAW_PBE H 15Jun2001                   :
 energy of atom  1       EATOM=  -12.4884
 kinetic energy error for atom=    0.0020 (will be added to EATOM!!)
  PAW_PBE C 08Apr2002                   :
 energy of atom  2       EATOM= -147.1560
 kinetic energy error for atom=    0.0076 (will be added to EATOM!!)
  PAW_PBE N 08Apr2002                   :
 energy of atom  3       EATOM= -264.5486
 kinetic energy error for atom=    0.0138 (will be added to EATOM!!)
  PAW_PBE I 08Apr2002                   :
 energy of atom  4       EATOM= -315.8678
 kinetic energy error for atom=    0.0009 (will be added to EATOM!!)
  PAW_PBE Pb 08Apr2002                  :
 energy of atom  5       EATOM=  -96.9868
 kinetic energy error for atom=    0.0000 (will be added to EATOM!!)
 
 
 POSCAR:  H  C  N  I Pb
  positions in cartesian coordinates
  No initial velocities read in
 exchange correlation table for  LEXCH =        8
   RHO(1)=    0.500       N(1)  =     2000
   RHO(2)=  100.500       N(2)  =     4000
 


--------------------------------------------------------------------------------------------------------


 ion  position               nearest neighbor table
   1  0.453  0.336  0.564- 187 1.03
   2  0.435  0.830  0.571- 188 1.03
   3  0.961  0.328  0.576- 189 1.03
   4  0.944  0.818  0.573- 190 1.03
   5  0.334  0.955  0.572- 194 1.03
   6  0.350  0.551  0.558- 195 1.02
   7  0.806  0.088  0.564- 196 1.03
   8  0.011  0.143  0.559- 183 1.02
   9  0.071  0.663  0.570- 184 1.02
  10  0.552  0.160  0.559- 185 1.03
  11  0.496  0.643  0.559- 186 1.02
  12  0.365  0.029  0.557- 194 1.02
  13  0.293  0.629  0.553- 195 1.03
  14  0.879  0.027  0.556- 196 1.03
  15  0.955  0.192  0.577- 183 1.03
  16  0.991  0.691  0.583- 184 1.04
  17  0.566  0.251  0.567- 185 1.03
  18  0.437  0.693  0.575- 186 1.02
  19  0.281  0.440  0.572- 191 1.03
  20  0.201  0.928  0.573- 192 1.02
  21  0.683  0.030  0.570- 193 1.02
  22  0.373  0.291  0.555- 187 1.02
  23  0.501  0.869  0.554- 188 1.02
  24  0.019  0.368  0.557- 189 1.03
  25  0.995  0.866  0.554- 190 1.02
  26  0.184  0.444  0.569- 191 1.02
  27  0.142  0.991  0.560- 192 1.03
  28  0.677  0.935  0.564- 193 1.02
  29  0.431  0.180  0.549- 146 1.09
  30  0.547  0.752  0.543- 147 1.09
  31  0.063  0.252  0.545- 144 1.09
  32  0.083  0.772  0.550- 145 1.09
  33  0.184  0.562  0.557- 148 1.10
  34  0.242  0.065  0.548- 149 1.10
  35  0.799  0.925  0.555- 150 1.10
  36  0.487  0.340  0.660- 205 1.03
  37  0.449  0.810  0.674- 206 1.02
  38  0.964  0.285  0.676- 207 1.01
  39  0.931  0.724  0.673- 208 1.02
  40  0.308  0.057  0.669- 209 1.03
  41  0.298  0.549  0.675- 210 1.02
  42  0.801  0.057  0.674- 211 1.03
  43  0.765  0.597  0.656- 212 1.02
  44  0.087  0.164  0.645- 197 1.02
  45  0.118  0.722  0.651- 198 1.02
  46  0.567  0.155  0.654- 199 1.02
  47  0.566  0.666  0.650- 200 1.02
  48  0.177  0.415  0.648- 201 1.02
  49  0.172  0.919  0.651- 202 1.02
  50  0.697  0.407  0.659- 203 1.02
  51  0.674  0.920  0.651- 204 1.02
  52  0.063  0.183  0.671- 197 1.01
  53  0.060  0.677  0.669- 198 1.02
  54  0.593  0.246  0.660- 199 1.02
  55  0.535  0.695  0.675- 200 1.02
  56  0.199  0.444  0.674- 201 1.03
  57  0.207  0.955  0.675- 202 1.02
  58  0.665  0.498  0.660- 203 1.02
  59  0.697  0.957  0.676- 204 1.02
  60  0.399  0.301  0.656- 205 1.02
  61  0.433  0.844  0.648- 206 1.02
  62  0.936  0.325  0.652- 207 1.02
  63  0.906  0.795  0.655- 208 1.02
  64  0.328  0.075  0.642- 209 1.02
  65  0.328  0.578  0.650- 210 1.02
  66  0.833  0.075  0.648- 211 1.02
  67  0.854  0.564  0.652- 212 1.03
  68  0.009  0.253  0.631- 151 1.09
  69  0.023  0.802  0.640- 152 1.09
  70  0.443  0.183  0.651- 153 1.09
  71  0.505  0.756  0.631- 154 1.08
  72  0.244  0.991  0.629- 156 1.09
  73  0.257  0.495  0.631- 155 1.09
  74  0.757  0.990  0.632- 158 1.09
  75  0.819  0.440  0.653- 157 1.09
  76  0.449  0.301  0.769- 221 1.02
  77  0.449  0.801  0.769- 222 1.02
  78  0.949  0.301  0.769- 223 1.02
  79  0.949  0.801  0.769- 224 1.02
  80  0.301  0.051  0.769- 225 1.02
  81  0.301  0.551  0.769- 226 1.02
  82  0.801  0.051  0.769- 227 1.02
  83  0.801  0.551  0.769- 228 1.02
  84  0.079  0.171  0.743- 213 1.02
  85  0.079  0.671  0.743- 214 1.02
  86  0.579  0.171  0.743- 215 1.02
  87  0.579  0.671  0.743- 216 1.02
  88  0.171  0.421  0.743- 217 1.02
  89  0.171  0.921  0.743- 218 1.02
  90  0.671  0.421  0.743- 219 1.02
  91  0.671  0.921  0.743- 220 1.02
  92  0.051  0.199  0.769- 213 1.02
  93  0.051  0.699  0.769- 214 1.02
  94  0.551  0.199  0.769- 215 1.02
  95  0.551  0.699  0.769- 216 1.02
  96  0.199  0.449  0.769- 217 1.02
  97  0.199  0.949  0.769- 218 1.02
  98  0.699  0.449  0.769- 219 1.02
  99  0.699  0.949  0.769- 220 1.02
 100  0.421  0.329  0.743- 221 1.02
 101  0.421  0.829  0.743- 222 1.02
 102  0.921  0.329  0.743- 223 1.02
 103  0.921  0.829  0.743- 224 1.02
 104  0.329  0.079  0.743- 225 1.02
 105  0.329  0.579  0.743- 226 1.02
 106  0.829  0.079  0.743- 227 1.02
 107  0.829  0.579  0.743- 228 1.02
 108  0.000  0.250  0.726- 161 1.09
 109  0.000  0.750  0.726- 162 1.09
 110  0.500  0.250  0.726- 159 1.09
 111  0.500  0.750  0.726- 160 1.09
 112  0.250  0.000  0.726- 163 1.09
 113  0.250  0.500  0.726- 164 1.09
 114  0.750  0.000  0.726- 165 1.09
 115  0.750  0.500  0.726- 166 1.09
 116  0.776  0.557  0.519- 173 1.10
 117  0.719  0.479  0.525- 173 1.09
 118  0.868  0.501  0.538- 174 1.09
 119  0.860  0.483  0.566- 174 1.10
 120  0.744  0.641  0.560- 175 1.10
 121  0.814  0.598  0.575- 175 1.10
 122  0.667  0.547  0.569- 176 1.10
 123  0.681  0.455  0.560- 176 1.10
 124  0.617  0.559  0.537- 177 1.10
 125  0.674  0.639  0.535- 177 1.11
 126  0.606  0.646  0.503- 178 1.10
 127  0.687  0.602  0.494- 178 1.10
 128  0.788  0.389  0.530- 179 1.10
 129  0.777  0.372  0.557- 179 1.10
 130  0.865  0.367  0.545- 179 1.10
 131  0.863  0.696  0.552- 180 1.10
 132  0.839  0.648  0.529- 180 1.09
 133  0.907  0.610  0.547- 180 1.10
 134  0.771  0.529  0.596- 181 1.09
 135  0.774  0.434  0.589- 181 1.10
 136  0.693  0.472  0.600- 181 1.09
 137  0.538  0.528  0.505- 182 1.10
 138  0.574  0.545  0.479- 182 1.10
 139  0.703  0.481  0.470- 168 1.10
 140  0.557  0.414  0.521- 169 1.09
 141  0.766  0.358  0.472- 170 1.09
 142  0.620  0.292  0.523- 171 1.09
 143  0.725  0.264  0.498- 172 1.09
 144  0.019  0.255  0.557-  31 1.09 189 1.31 183 1.31
 145  0.036  0.764  0.561-  32 1.09 184 1.31 190 1.32
 146  0.463  0.226  0.555-  29 1.09 187 1.31 185 1.32
 147  0.501  0.756  0.555-  30 1.09 188 1.31 186 1.31
 148  0.238  0.536  0.560-  33 1.10 191 1.31 195 1.31
 149  0.253  0.015  0.557-  34 1.10 192 1.31 194 1.31
 150  0.778  0.979  0.560-  35 1.10 196 1.31 193 1.31
 151  0.011  0.245  0.648-  68 1.09 207 1.31 197 1.32
 152  0.012  0.761  0.652-  69 1.09 208 1.31 198 1.32
 153  0.482  0.227  0.655-  70 1.09 205 1.31 199 1.31
 154  0.500  0.755  0.649-  71 1.08 206 1.31 200 1.31
 155  0.253  0.496  0.649-  73 1.09 201 1.31 210 1.32
 156  0.250  0.997  0.647-  72 1.09 209 1.31 202 1.32
 157  0.777  0.484  0.655-  75 1.09 212 1.30 203 1.32
 158  0.754  0.997  0.649-  74 1.09 211 1.31 204 1.32
 159  0.500  0.250  0.743- 110 1.09 221 1.31 215 1.31
 160  0.500  0.750  0.743- 111 1.09 222 1.31 216 1.31
 161  1.000  0.250  0.743- 108 1.09 223 1.31 213 1.31
 162  1.000  0.750  0.743- 109 1.09 224 1.31 214 1.31
 163  0.250  0.000  0.743- 112 1.09 225 1.31 218 1.31
 164  0.250  0.500  0.743- 113 1.09 226 1.31 217 1.31
 165  0.750  0.000  0.743- 114 1.09 227 1.31 220 1.31
 166  0.750  0.500  0.743- 115 1.09 228 1.31 219 1.31
 167  0.626  0.456  0.496- 169 1.39 168 1.40 182 1.51
 168  0.685  0.439  0.482- 139 1.10 170 1.39 167 1.40
 169  0.602  0.402  0.510- 140 1.09 167 1.39 171 1.39
 170  0.720  0.370  0.482- 141 1.09 168 1.39 172 1.40
 171  0.638  0.333  0.511- 142 1.09 169 1.39 172 1.40
 172  0.697  0.317  0.497- 143 1.09 171 1.40 170 1.40
 173  0.732  0.536  0.529- 117 1.09 116 1.10 229 1.51 177 1.53
 174  0.831  0.478  0.550- 118 1.09 119 1.10 179 1.51 229 1.52
 175  0.793  0.605  0.559- 121 1.10 120 1.10 180 1.52 229 1.52
 176  0.708  0.503  0.567- 122 1.10 123 1.10 181 1.51 229 1.52
 177  0.663  0.584  0.528- 124 1.10 125 1.11 173 1.53 178 1.54
 178  0.638  0.594  0.504- 126 1.10 127 1.10 182 1.54 177 1.54
 179  0.813  0.398  0.545- 128 1.10 130 1.10 129 1.10 174 1.51
 180  0.854  0.641  0.546- 132 1.09 133 1.10 131 1.10 175 1.52
 181  0.739  0.484  0.589- 134 1.09 136 1.09 135 1.10 176 1.51
 182  0.590  0.531  0.495- 138 1.10 137 1.10 167 1.51 178 1.54
 183  0.994  0.193  0.565-   8 1.02  15 1.03 144 1.31
 184  0.032  0.703  0.572-   9 1.02  16 1.04 145 1.31
 185  0.533  0.213  0.560-  10 1.03  17 1.03 146 1.32
 186  0.475  0.694  0.563-  11 1.02  18 1.02 147 1.31
 187  0.429  0.290  0.558-  22 1.02   1 1.03 146 1.31
 188  0.476  0.822  0.559-  23 1.02   2 1.03 147 1.31
 189  0.996  0.321  0.563-  24 1.03   3 1.03 144 1.31
 190  0.985  0.817  0.561-  25 1.02   4 1.03 145 1.32
 191  0.235  0.466  0.566-  26 1.02  19 1.03 148 1.31
 192  0.196  0.975  0.563-  20 1.02  27 1.03 149 1.31
 193  0.707  0.983  0.564-  21 1.02  28 1.02 150 1.31
 194  0.321  0.998  0.562-  12 1.02   5 1.03 149 1.31
 195  0.298  0.574  0.556-   6 1.02  13 1.03 148 1.31
 196  0.825  0.035  0.561-   7 1.03  14 1.03 150 1.31
 197  0.056  0.193  0.656-  52 1.01  44 1.02 151 1.32
 198  0.066  0.715  0.658-  45 1.02  53 1.02 152 1.32
 199  0.552  0.209  0.656-  46 1.02  54 1.02 153 1.31
 200  0.535  0.702  0.659-  47 1.02  55 1.02 154 1.31
 201  0.206  0.449  0.657-  48 1.02  56 1.03 155 1.31
 202  0.207  0.955  0.659-  49 1.02  57 1.02 156 1.32
 203  0.708  0.462  0.658-  50 1.02  58 1.02 157 1.32
 204  0.706  0.956  0.659-  51 1.02  59 1.02 158 1.32
 205  0.455  0.294  0.657-  60 1.02  36 1.03 153 1.31
 206  0.459  0.806  0.658-  61 1.02  37 1.02 154 1.31
 207  0.968  0.287  0.660-  38 1.01  62 1.02 151 1.31
 208  0.946  0.760  0.661-  63 1.02  39 1.02 152 1.31
 209  0.298  0.046  0.653-  64 1.02  40 1.03 156 1.31
 210  0.296  0.543  0.659-  65 1.02  41 1.02 155 1.32
 211  0.798  0.046  0.658-  66 1.02  42 1.03 158 1.31
 212  0.799  0.552  0.655-  43 1.02  67 1.03 157 1.30
 213  0.046  0.204  0.753-  92 1.02  84 1.02 161 1.31
 214  0.046  0.704  0.753-  93 1.02  85 1.02 162 1.31
 215  0.546  0.204  0.753-  94 1.02  86 1.02 159 1.31
 216  0.546  0.704  0.753-  95 1.02  87 1.02 160 1.31
 217  0.204  0.454  0.753-  96 1.02  88 1.02 164 1.31
 218  0.204  0.954  0.753-  97 1.02  89 1.02 163 1.31
 219  0.704  0.454  0.753-  98 1.02  90 1.02 166 1.31
 220  0.704  0.954  0.753-  99 1.02  91 1.02 165 1.31
 221  0.454  0.296  0.753-  76 1.02 100 1.02 159 1.31
 222  0.454  0.796  0.753-  77 1.02 101 1.02 160 1.31
 223  0.954  0.296  0.753-  78 1.02 102 1.02 161 1.31
 224  0.954  0.796  0.753-  79 1.02 103 1.02 162 1.31
 225  0.296  0.046  0.753-  80 1.02 104 1.02 163 1.31
 226  0.296  0.546  0.753-  81 1.02 105 1.02 164 1.31
 227  0.796  0.046  0.753-  82 1.02 106 1.02 165 1.31
 228  0.796  0.546  0.753-  83 1.02 107 1.02 166 1.31
 229  0.766  0.530  0.552- 173 1.51 176 1.52 174 1.52 175 1.52
 230  0.514  0.017  0.552- 304 3.24
 231  0.482  0.495  0.555- 305 3.14
 232  0.012  0.006  0.548- 302 3.51
 233  0.038  0.508  0.553- 303 3.25
 234  0.237  0.241  0.552- 306 3.15
 235  0.256  0.765  0.554- 307 3.16
 236  0.738  0.204  0.554- 308 3.09
 237  0.701  0.792  0.554- 309 3.18
 238  0.002  0.983  0.653- 302 3.07 310 3.23
 239  0.997  0.506  0.655- 311 3.13 303 3.15
 240  0.497  0.012  0.654- 304 3.16 312 3.17
 241  0.508  0.490  0.655- 313 3.13 305 3.14
 242  0.260  0.246  0.654- 314 3.16 306 3.25
 243  0.258  0.754  0.655- 315 3.14 307 3.18
 244  0.746  0.267  0.654- 316 3.17 308 3.27
 245  0.746  0.748  0.654- 317 3.16 309 3.22
 246  0.135  0.112  0.607- 302 3.19 306 3.19
 247  0.150  0.606  0.608- 307 3.15 303 3.17
 248  0.648  0.105  0.610- 308 3.12 304 3.14
 249  0.616  0.628  0.609- 309 3.20 305 3.25
 250  0.359  0.388  0.605- 305 3.17 306 3.23
 251  0.375  0.880  0.606- 304 3.28 307 3.28
 252  0.890  0.365  0.609- 303 3.30 308 3.42
 253  0.869  0.877  0.604- 302 3.23 309 3.23
 254  0.122  0.368  0.610- 306 3.20 303 3.24
 255  0.124  0.866  0.607- 307 3.20 302 3.28
 256  0.593  0.339  0.601- 308 3.20 305 3.26
 257  0.617  0.871  0.613- 309 3.10 304 3.21
 258  0.387  0.135  0.605- 304 3.16 306 3.22
 259  0.385  0.628  0.611- 307 3.21 305 3.24
 260  0.887  0.133  0.610- 302 3.19 308 3.32
 261  0.895  0.646  0.610- 303 3.27 309 3.49
 262  0.000  0.000  0.755- 310 3.13 318 3.27
 263  0.000  0.500  0.755- 311 3.13 319 3.27
 264  0.500  0.000  0.755- 312 3.13 320 3.27
 265  0.500  0.500  0.755- 313 3.13 321 3.27
 266  0.250  0.250  0.755- 314 3.13 322 3.27
 267  0.250  0.750  0.755- 315 3.13 323 3.27
 268  0.750  0.250  0.755- 316 3.13 324 3.27
 269  0.750  0.750  0.755- 317 3.13 325 3.27
 270  0.136  0.114  0.705- 310 3.20 314 3.20
 271  0.136  0.614  0.705- 311 3.20 315 3.20
 272  0.636  0.114  0.705- 312 3.20 316 3.20
 273  0.636  0.614  0.705- 313 3.20 317 3.20
 274  0.364  0.386  0.705- 313 3.20 314 3.20
 275  0.364  0.886  0.705- 312 3.20 315 3.20
 276  0.864  0.386  0.705- 311 3.20 316 3.20
 277  0.864  0.886  0.705- 310 3.20 317 3.20
 278  0.114  0.364  0.705- 314 3.21 311 3.21
 279  0.114  0.864  0.705- 315 3.21 310 3.21
 280  0.614  0.364  0.705- 316 3.21 313 3.21
 281  0.614  0.864  0.705- 317 3.21 312 3.21
 282  0.386  0.136  0.705- 314 3.21 312 3.21
 283  0.386  0.636  0.705- 315 3.21 313 3.21
 284  0.886  0.136  0.705- 316 3.21 310 3.21
 285  0.886  0.636  0.705- 317 3.21 311 3.21
 286  0.135  0.115  0.801- 318 3.22 322 3.22
 287  0.135  0.615  0.801- 319 3.22 323 3.22
 288  0.635  0.115  0.801- 320 3.22 324 3.22
 289  0.635  0.615  0.801- 321 3.22 325 3.22
 290  0.365  0.385  0.801- 321 3.22 322 3.22
 291  0.365  0.885  0.801- 320 3.22 323 3.22
 292  0.865  0.385  0.801- 319 3.22 324 3.22
 293  0.865  0.885  0.801- 318 3.22 325 3.22
 294  0.115  0.365  0.801- 319 3.23 322 3.23
 295  0.115  0.865  0.801- 318 3.23 323 3.23
 296  0.615  0.365  0.801- 321 3.23 324 3.23
 297  0.615  0.865  0.801- 320 3.23 325 3.23
 298  0.385  0.135  0.801- 320 3.23 322 3.23
 299  0.385  0.635  0.801- 321 3.23 323 3.23
 300  0.885  0.135  0.801- 318 3.23 324 3.23
 301  0.885  0.635  0.801- 319 3.23 325 3.23
 302  1.000  0.999  0.604- 238 3.07 246 3.19 260 3.19 253 3.23 255 3.28 232 3.51
 303  0.007  0.505  0.605- 239 3.15 247 3.17 254 3.24 233 3.25 261 3.27 252 3.30
 304  0.506  0.006  0.604- 248 3.14 240 3.16 258 3.16 257 3.21 230 3.24 251 3.28
 305  0.499  0.492  0.605- 231 3.14 241 3.14 250 3.17 259 3.24 249 3.25 256 3.26
 306  0.249  0.247  0.602- 234 3.15 246 3.19 254 3.20 258 3.22 250 3.23 242 3.25
 307  0.253  0.745  0.604- 247 3.15 235 3.16 243 3.18 255 3.20 259 3.21 251 3.28
 308  0.744  0.246  0.602- 236 3.09 248 3.12 256 3.20 244 3.27 260 3.32 252 3.42
 309  0.738  0.755  0.603- 257 3.10 237 3.18 249 3.20 245 3.22 253 3.23 261 3.49
 310  0.000  0.000  0.705- 262 3.13 270 3.20 277 3.20 279 3.21 284 3.21 238 3.23
 311  0.000  0.500  0.705- 239 3.13 263 3.13 271 3.20 276 3.20 278 3.21 285 3.21
 312  0.500  0.000  0.705- 264 3.13 240 3.17 272 3.20 275 3.20 281 3.21 282 3.21
 313  0.500  0.500  0.705- 265 3.13 241 3.13 273 3.20 274 3.20 280 3.21 283 3.21
 314  0.250  0.250  0.705- 266 3.13 242 3.16 270 3.20 274 3.20 282 3.21 278 3.21
 315  0.250  0.750  0.705- 267 3.13 243 3.14 271 3.20 275 3.20 283 3.21 279 3.21
 316  0.750  0.250  0.705- 268 3.13 244 3.17 272 3.20 276 3.20 284 3.21 280 3.21
 317  0.750  0.750  0.705- 269 3.13 245 3.16 273 3.20 277 3.20 285 3.21 281 3.21
 318  0.000  0.000  0.807- 286 3.22 293 3.22 300 3.23 295 3.23 262 3.27
 319  0.000  0.500  0.807- 287 3.22 292 3.22 301 3.23 294 3.23 263 3.27
 320  0.500  0.000  0.807- 288 3.22 291 3.22 298 3.23 297 3.23 264 3.27
 321  0.500  0.500  0.807- 289 3.22 290 3.22 299 3.23 296 3.23 265 3.27
 322  0.250  0.250  0.807- 290 3.22 286 3.22 294 3.23 298 3.23 266 3.27
 323  0.250  0.750  0.807- 291 3.22 287 3.22 299 3.23 295 3.23 267 3.27
 324  0.750  0.250  0.807- 292 3.22 288 3.22 296 3.23 300 3.23 268 3.27
 325  0.750  0.750  0.807- 293 3.22 289 3.22 297 3.23 301 3.23 269 3.27
 

IMPORTANT INFORMATION: All symmetrisations will be switched off!
NOSYMM: (Re-)initialisation of all symmetry stuff for point group C_1.


----------------------------------------------------------------------------------------

                                     Primitive cell                                     

  volume of cell :   20385.2105

  direct lattice vectors                    reciprocal lattice vectors
    18.060800552  0.000000000  0.000000000     0.055368531  0.000015077 -0.000000000
    -0.004918649 18.062799454  0.000000000     0.000000000  0.055362404  0.000000000
     0.000000000  0.000000000 62.487499237     0.000000000 -0.000000000  0.016003201

  length of vectors
    18.060800552 18.062800123 62.487499237     0.055368533  0.055362404  0.016003201

  position of ions in fractional coordinates (direct lattice)
     0.452767122  0.336011101  0.564165880
     0.435456871  0.829721654  0.570506503
     0.961295583  0.328261401  0.575735454
     0.944415166  0.817753206  0.572944308
     0.334140468  0.954716334  0.572149105
     0.350015619  0.551226813  0.557766589
     0.806112151  0.088076653  0.563674204
     0.011322526  0.143356455  0.559179897
     0.071384660  0.662597495  0.570262558
     0.551529385  0.159528562  0.558525469
     0.496339718  0.643351412  0.558946696
     0.365175498  0.028819190  0.556786779
     0.293136113  0.628973489  0.552680672
     0.878892154  0.027111201  0.556457123
     0.954825557  0.192124003  0.577220310
     0.990638924  0.691175835  0.582944965
     0.566434075  0.250820107  0.567293092
     0.437229056  0.693389168  0.575168385
     0.280941580  0.439822710  0.572263874
     0.201485486  0.928156886  0.572689984
     0.683209185  0.030228414  0.570078378
     0.372742792  0.291118587  0.555051264
     0.501034628  0.868801193  0.553549132
     0.019062270  0.368311732  0.556746610
     0.994552674  0.866274137  0.554034703
     0.184471895  0.443909991  0.569456855
     0.142224334  0.991040992  0.560158914
     0.677464995  0.934799384  0.564075774
     0.430623714  0.179722232  0.549290407
     0.546556332  0.751613419  0.543328155
     0.063016731  0.251774135  0.545086380
     0.083370246  0.771660231  0.550371495
     0.183886922  0.562175261  0.556922121
     0.242048970  0.064939274  0.548095893
     0.799379480  0.924986641  0.555125314
     0.486737357  0.339782335  0.660161948
     0.448605306  0.810268076  0.673688945
     0.964309615  0.284984286  0.675981152
     0.930895027  0.724050906  0.672708036
     0.308321192  0.057458413  0.669333094
     0.298081851  0.549085602  0.675005798
     0.801125912  0.056666250  0.674108646
     0.764687438  0.597179610  0.656252413
     0.086654504  0.163583386  0.644783200
     0.117518333  0.721999979  0.651450672
     0.567302123  0.155462268  0.653730730
     0.565577543  0.665529087  0.650187174
     0.176665272  0.415063095  0.647786792
     0.171872519  0.919338329  0.651241096
     0.696714443  0.406995896  0.658885447
     0.674087239  0.919994354  0.650671402
     0.063452762  0.182818381  0.671343566
     0.060326259  0.676661166  0.669445421
     0.593291327  0.245760793  0.659611423
     0.535179988  0.695076424  0.675279473
     0.198843254  0.443582223  0.673759943
     0.206680916  0.955484660  0.674993833
     0.664795568  0.498214223  0.660197599
     0.697414308  0.956811954  0.675517070
     0.398779370  0.300890069  0.656265905
     0.433456348  0.843845620  0.648027990
     0.935980518  0.325006660  0.652112181
     0.905519238  0.794885413  0.655313261
     0.327598858  0.075062639  0.642475976
     0.328418391  0.577607607  0.649961116
     0.833393540  0.075334580  0.648308930
     0.853924330  0.563857660  0.652088739
     0.008593260  0.252733601  0.630848712
     0.023153353  0.801920601  0.639882623
     0.442871159  0.182844569  0.650837878
     0.505161895  0.755895999  0.631473959
     0.244388713  0.990841344  0.629383636
     0.256654013  0.495197415  0.631231906
     0.757433013  0.990268728  0.631774312
     0.818580601  0.440377983  0.653306573
     0.448745018  0.301283966  0.768889017
     0.448745007  0.801283913  0.768889017
     0.948744965  0.301283966  0.768889017
     0.948745007  0.801283913  0.768889017
     0.301275995  0.051294496  0.768872961
     0.301276011  0.551294499  0.768872961
     0.801275943  0.051294496  0.768872961
     0.801275984  0.551294499  0.768872961
     0.078771004  0.171180501  0.743441971
     0.078771006  0.671180448  0.743441971
     0.578771004  0.171180501  0.743441971
     0.578770992  0.671180448  0.743441971
     0.171199499  0.421174482  0.743421032
     0.171199501  0.921174508  0.743421032
     0.671199512  0.421174482  0.743421032
     0.671199501  0.921174508  0.743421032
     0.051256000  0.198714991  0.768889017
     0.051256002  0.698714925  0.768889017
     0.551256027  0.198714991  0.768889017
     0.551256016  0.698714925  0.768889017
     0.198723491  0.448703970  0.768872046
     0.198723493  0.948703970  0.768872046
     0.698723518  0.448703970  0.768872046
     0.698723507  0.948703970  0.768872046
     0.421231519  0.328817467  0.743441971
     0.421231508  0.828817440  0.743441971
     0.921231466  0.328817467  0.743441971
     0.921231508  0.828817440  0.743441971
     0.328800503  0.078824997  0.743421032
     0.328800492  0.578824964  0.743421032
     0.828800477  0.078824997  0.743421032
     0.828800519  0.578824964  0.743421032
     0.000003500  0.250001478  0.725821992
     0.000003500  0.750001452  0.725821992
     0.500003506  0.250001478  0.725821992
     0.500003495  0.750001452  0.725821992
     0.250000502  0.000000000  0.725803983
     0.250000517  0.500000000  0.725803983
     0.750000502  0.000000000  0.725803983
     0.750000490  0.500000000  0.725803983
     0.775955686  0.556743169  0.519090763
     0.719157090  0.479045437  0.524525016
     0.868348243  0.501390744  0.538149323
     0.859895677  0.482635575  0.565668011
     0.744392266  0.641492828  0.559806182
     0.813586075  0.597635888  0.575470997
     0.666761214  0.547005003  0.568685521
     0.681451106  0.454511822  0.560053119
     0.617007201  0.559496200  0.537017749
     0.674030656  0.639408585  0.534579823
     0.606140265  0.645706929  0.503295673
     0.686935779  0.602334567  0.493904359
     0.787525409  0.389383586  0.529593413
     0.777384732  0.372052687  0.557463733
     0.865388994  0.366906574  0.545375439
     0.863027179  0.696452596  0.552471341
     0.838920081  0.647753315  0.529103691
     0.906656491  0.609828039  0.546948508
     0.770924918  0.528571213  0.596391502
     0.773986462  0.434128768  0.588767358
     0.692810709  0.472260879  0.599882191
     0.538361595  0.528070955  0.504745303
     0.573829295  0.545449213  0.478827980
     0.703210131  0.480507933  0.469918819
     0.556558923  0.414105582  0.520577999
     0.765520657  0.358228269  0.471593073
     0.619941327  0.291508683  0.522552576
     0.725327385  0.263982231  0.498440057
     0.019161682  0.255209365  0.557104164
     0.035541593  0.764122831  0.560806199
     0.462718026  0.226158722  0.555445141
     0.500959302  0.755659782  0.554716297
     0.237527726  0.535628523  0.559894640
     0.252600894  0.014552299  0.557428997
     0.778444797  0.979358685  0.560046831
     0.010844816  0.244631318  0.648117669
     0.011916040  0.761115263  0.652414732
     0.481835893  0.227028987  0.654776593
     0.499619561  0.754657417  0.648722099
     0.252845692  0.495884894  0.648654641
     0.249965860  0.997275404  0.646638674
     0.777110570  0.483713229  0.655255937
     0.754398344  0.997262988  0.649100531
     0.499988984  0.249994984  0.743277021
     0.499989025  0.749994958  0.743277021
     0.999988984  0.249994984  0.743277021
     0.999989025  0.749994958  0.743277021
     0.250000502  0.000001000  0.743255960
     0.250000517  0.500001003  0.743255960
     0.750000502  0.000001000  0.743255960
     0.750000491  0.500001003  0.743255960
     0.626068978  0.455967033  0.495566374
     0.684552533  0.439040063  0.481661432
     0.602384946  0.401662114  0.509873374
     0.719751386  0.370436893  0.482489173
     0.637633758  0.333083046  0.510967526
     0.696929947  0.317079270  0.497398894
     0.731680251  0.535690138  0.529422908
     0.831289241  0.477949515  0.550247568
     0.793096930  0.605210880  0.559120376
     0.708145326  0.502865595  0.567360794
     0.662551519  0.584093066  0.527693985
     0.638253981  0.594029594  0.504282290
     0.813126407  0.397881086  0.545330020
     0.854264299  0.640515648  0.545909359
     0.739089470  0.483862963  0.589078944
     0.589847445  0.531231320  0.495308510
     0.993503994  0.193084235  0.565079759
     0.031990810  0.702628344  0.571876895
     0.532908893  0.213013124  0.559636104
     0.475163511  0.694035148  0.562983819
     0.428745390  0.289671402  0.557605730
     0.475680554  0.821969103  0.559143818
     0.995738949  0.321021648  0.562821861
     0.984896987  0.816525924  0.561366125
     0.235121413  0.466498643  0.566304308
     0.195692473  0.974586398  0.563487521
     0.707421673  0.982927820  0.564411107
     0.321459967  0.997688397  0.562069635
     0.298294406  0.573786374  0.556492775
     0.824651998  0.035315779  0.560896610
     0.056066518  0.193391306  0.655544142
     0.065789209  0.715028570  0.657550891
     0.552069348  0.208949100  0.656306990
     0.534761932  0.701822915  0.659009312
     0.206311148  0.449327880  0.657489843
     0.207072023  0.955352939  0.658609452
     0.707797982  0.462336970  0.657714559
     0.706193623  0.955597455  0.659335122
     0.454780785  0.293548364  0.657233322
     0.458686574  0.806057512  0.657648506
     0.967822646  0.287132228  0.659809155
     0.945563673  0.760352442  0.660910877
     0.298252639  0.045537969  0.653495942
     0.295840515  0.543231973  0.658763902
     0.798469948  0.046007007  0.657901730
     0.799333922  0.552456630  0.655166259
     0.045862501  0.204119496  0.752725994
     0.045862500  0.704119456  0.752725994
     0.545862507  0.204119496  0.752725994
     0.545862496  0.704119456  0.752725994
     0.204119002  0.454101003  0.752704994
     0.204118991  0.954100951  0.752704994
     0.704118976  0.454101003  0.752704994
     0.704118964  0.954100951  0.752704994
     0.454140018  0.295888490  0.752726971
     0.454140007  0.795888516  0.752726971
     0.954140018  0.295888490  0.752726971
     0.954140060  0.795888516  0.752726971
     0.295882492  0.045900498  0.752704994
     0.295882481  0.545900528  0.752704994
     0.795882439  0.045900498  0.752704994
     0.795882481  0.545900528  0.752704994
     0.765574100  0.530036085  0.551522482
     0.514029830  0.016795278  0.552050297
     0.482182855  0.494561361  0.554564594
     0.012122181  0.005669450  0.548372926
     0.037694197  0.507781431  0.553327042
     0.237113673  0.241423647  0.552043704
     0.256058522  0.765481105  0.553626662
     0.738172386  0.204494122  0.554482302
     0.701013771  0.791711426  0.554292506
     0.002036398  0.982853194  0.653428850
     0.997227043  0.506425639  0.654812733
     0.497186468  0.012405176  0.654204763
     0.507579426  0.489590563  0.654852597
     0.259978842  0.246149041  0.654327834
     0.258265550  0.754423101  0.654720308
     0.746289091  0.266764327  0.654393582
     0.746432386  0.747946249  0.654285101
     0.135203584  0.112063744  0.607165630
     0.149500365  0.605787008  0.608042575
     0.647543947  0.104753441  0.609503805
     0.616229032  0.628121017  0.608894186
     0.358501369  0.387521015  0.604595597
     0.375231533  0.879879630  0.606314996
     0.890097084  0.364739677  0.609073665
     0.868508168  0.877279184  0.604493648
     0.121664384  0.367945316  0.609689694
     0.124173499  0.866369226  0.607445837
     0.593400499  0.338541431  0.601140011
     0.616784060  0.871488596  0.612905242
     0.386782394  0.134883572  0.604798640
     0.384870626  0.628371067  0.610798742
     0.886915951  0.133101240  0.610441737
     0.895214437  0.646083641  0.610065014
     0.000000000  0.000000000  0.754927972
     0.000000000  0.500000000  0.754927972
     0.500000000  0.000000000  0.754927972
     0.499999989  0.500000000  0.754927972
     0.250000496  0.250000000  0.754939022
     0.250000511  0.749999974  0.754939022
     0.750000470  0.250000000  0.754939022
     0.750000458  0.749999974  0.754939022
     0.135790500  0.114209997  0.704782994
     0.135790502  0.614209984  0.704782994
     0.635790447  0.114209997  0.704782994
     0.635790488  0.614209984  0.704782994
     0.364209516  0.385789989  0.704782994
     0.364209505  0.885789963  0.704782994
     0.864209542  0.385789989  0.704782994
     0.864209531  0.885789963  0.704782994
     0.114217990  0.364218986  0.704780979
     0.114217992  0.864218986  0.704780979
     0.614218004  0.364218986  0.704780979
     0.614217992  0.864218986  0.704780979
     0.385782012  0.135781489  0.704782017
     0.385782001  0.635781489  0.704782017
     0.885781985  0.135781489  0.704782017
     0.885782027  0.635781489  0.704782017
     0.134667000  0.115332001  0.801256025
     0.134666989  0.615331988  0.801256025
     0.634666987  0.115332001  0.801256025
     0.634666976  0.615331988  0.801256025
     0.365333002  0.384667985  0.801256025
     0.365332990  0.884667959  0.801256025
     0.865332949  0.384667985  0.801256025
     0.865332938  0.884667959  0.801256025
     0.115328503  0.365337004  0.801264999
     0.115328505  0.865336978  0.801264999
     0.615328503  0.365337004  0.801264999
     0.615328492  0.865336978  0.801264999
     0.384671513  0.134662996  0.801264999
     0.384671501  0.634662970  0.801264999
     0.884671486  0.134662996  0.801264999
     0.884671528  0.634662970  0.801264999
     0.999917285  0.998744318  0.604470877
     0.006533198  0.504633790  0.604505796
     0.505612484  0.006379346  0.603756501
     0.499390696  0.492077863  0.604604998
     0.248518688  0.246770919  0.602377807
     0.253129063  0.745326163  0.603862845
     0.744428274  0.245557601  0.602492820
     0.737794696  0.754999494  0.602914230
     0.000000500  0.000000500  0.704828963
     0.000000500  0.500000475  0.704828963
     0.500000475  0.000000500  0.704828963
     0.500000464  0.500000475  0.704828963
     0.249999994  0.249999472  0.704824995
     0.250000010  0.749999498  0.704824995
     0.749999994  0.249999472  0.704824995
     0.749999983  0.749999498  0.704824995
     0.000000000  0.000000000  0.807317968
     0.000000000  0.500000000  0.807317968
     0.500000000  0.000000000  0.807317968
     0.499999989  0.500000000  0.807317968
     0.249999994  0.250000000  0.807317968
     0.250000010  0.749999974  0.807317968
     0.749999994  0.250000000  0.807317968
     0.749999983  0.749999974  0.807317968

  ion indices of the primitive-cell ions
   primitive index   ion index
                 1           1
                 2           2
                 3           3
                 4           4
                 5           5
                 6           6
                 7           7
                 8           8
                 9           9
                10          10
                11          11
                12          12
                13          13
                14          14
                15          15
                16          16
                17          17
                18          18
                19          19
                20          20
                21          21
                22          22
                23          23
                24          24
                25          25
                26          26
                27          27
                28          28
                29          29
                30          30
                31          31
                32          32
                33          33
                34          34
                35          35
                36          36
                37          37
                38          38
                39          39
                40          40
                41          41
                42          42
                43          43
                44          44
                45          45
                46          46
                47          47
                48          48
                49          49
                50          50
                51          51
                52          52
                53          53
                54          54
                55          55
                56          56
                57          57
                58          58
                59          59
                60          60
                61          61
                62          62
                63          63
                64          64
                65          65
                66          66
                67          67
                68          68
                69          69
                70          70
                71          71
                72          72
                73          73
                74          74
                75          75
                76          76
                77          77
                78          78
                79          79
                80          80
                81          81
                82          82
                83          83
                84          84
                85          85
                86          86
                87          87
                88          88
                89          89
                90          90
                91          91
                92          92
                93          93
                94          94
                95          95
                96          96
                97          97
                98          98
                99          99
               100         100
               101         101
               102         102
               103         103
               104         104
               105         105
               106         106
               107         107
               108         108
               109         109
               110         110
               111         111
               112         112
               113         113
               114         114
               115         115
               116         116
               117         117
               118         118
               119         119
               120         120
               121         121
               122         122
               123         123
               124         124
               125         125
               126         126
               127         127
               128         128
               129         129
               130         130
               131         131
               132         132
               133         133
               134         134
               135         135
               136         136
               137         137
               138         138
               139         139
               140         140
               141         141
               142         142
               143         143
               144         144
               145         145
               146         146
               147         147
               148         148
               149         149
               150         150
               151         151
               152         152
               153         153
               154         154
               155         155
               156         156
               157         157
               158         158
               159         159
               160         160
               161         161
               162         162
               163         163
               164         164
               165         165
               166         166
               167         167
               168         168
               169         169
               170         170
               171         171
               172         172
               173         173
               174         174
               175         175
               176         176
               177         177
               178         178
               179         179
               180         180
               181         181
               182         182
               183         183
               184         184
               185         185
               186         186
               187         187
               188         188
               189         189
               190         190
               191         191
               192         192
               193         193
               194         194
               195         195
               196         196
               197         197
               198         198
               199         199
               200         200
               201         201
               202         202
               203         203
               204         204
               205         205
               206         206
               207         207
               208         208
               209         209
               210         210
               211         211
               212         212
               213         213
               214         214
               215         215
               216         216
               217         217
               218         218
               219         219
               220         220
               221         221
               222         222
               223         223
               224         224
               225         225
               226         226
               227         227
               228         228
               229         229
               230         230
               231         231
               232         232
               233         233
               234         234
               235         235
               236         236
               237         237
               238         238
               239         239
               240         240
               241         241
               242         242
               243         243
               244         244
               245         245
               246         246
               247         247
               248         248
               249         249
               250         250
               251         251
               252         252
               253         253
               254         254
               255         255
               256         256
               257         257
               258         258
               259         259
               260         260
               261         261
               262         262
               263         263
               264         264
               265         265
               266         266
               267         267
               268         268
               269         269
               270         270
               271         271
               272         272
               273         273
               274         274
               275         275
               276         276
               277         277
               278         278
               279         279
               280         280
               281         281
               282         282
               283         283
               284         284
               285         285
               286         286
               287         287
               288         288
               289         289
               290         290
               291         291
               292         292
               293         293
               294         294
               295         295
               296         296
               297         297
               298         298
               299         299
               300         300
               301         301
               302         302
               303         303
               304         304
               305         305
               306         306
               307         307
               308         308
               309         309
               310         310
               311         311
               312         312
               313         313
               314         314
               315         315
               316         316
               317         317
               318         318
               319         319
               320         320
               321         321
               322         322
               323         323
               324         324
               325         325

----------------------------------------------------------------------------------------

 
 
 KPOINTS: Automatic Mesh                          

Automatic generation of k-mesh.
 Grid dimensions read from file:
 generate k-points for:    3    3    1

 Generating k-lattice:

  Cartesian coordinates                     Fractional coordinates (reciprocal lattice)
     0.018456177  0.000005026 -0.000000000     0.333333333  0.000000000  0.000000000
     0.000000000  0.018454135  0.000000000     0.000000000  0.333333333  0.000000000
     0.000000000 -0.000000000  0.016003201     0.000000000  0.000000000  1.000000000

  Length of vectors
     0.018456178  0.018454135  0.016003201

  Shift w.r.t. Gamma in fractional coordinates (k-lattice)
     0.000000000  0.000000000  0.000000000

 
 Subroutine IBZKPT returns following result:
 ===========================================
 
 Found      5 irreducible k-points:
 
 Following reciprocal coordinates:
            Coordinates               Weight
  0.000000  0.000000  0.000000      1.000000
  0.333333  0.000000  0.000000      2.000000
  0.000000  0.333333  0.000000      2.000000
  0.333333  0.333333  0.000000      2.000000
 -0.333333  0.333333  0.000000      2.000000
 
 Following cartesian coordinates:
            Coordinates               Weight
  0.000000  0.000000  0.000000      1.000000
  0.018456  0.000005  0.000000      2.000000
  0.000000  0.018454  0.000000      2.000000
  0.018456  0.018459  0.000000      2.000000
 -0.018456  0.018449  0.000000      2.000000
 


--------------------------------------------------------------------------------------------------------




 Dimension of arrays:
   k-points           NKPTS =      5   k-points in BZ     NKDIM =      5   number of bands    NBANDS=    732
   number of dos      NEDOS =    301   number of ions     NIONS =    325
   non local maximal  LDIM  =      5   non local SUM 2l+1 LMDIM =     13
   total plane-waves  NPLWV = ******
   max r-space proj   IRMAX =   3336   max aug-charges    IRDMAX=  19845
   dimension x,y,z NGX =   100 NGY =  100 NGZ =  350
   dimension x,y,z NGXF=   200 NGYF=  200 NGZF=  700
   support grid    NGXF=   200 NGYF=  200 NGZF=  700
   ions per type =             143  39  47  72  24
   NGX,Y,Z   is equivalent  to a cutoff of   9.20,  9.20,  9.31 a.u.
   NGXF,Y,Z  is equivalent  to a cutoff of  18.41, 18.41, 18.62 a.u.

 SYSTEM =  PSC                                     
 POSCAR =   H  C  N  I Pb                          

 Startparameter for this run:
   NWRITE =      2    write-flag & timer
   PREC   = normal    normal or accurate (medium, high low for compatibility)
   ISTART =      0    job   : 0-new  1-cont  2-samecut
   ICHARG =      1    charge: 1-file 2-atom 10-const
   ISPIN  =      1    spin polarized calculation?
   LNONCOLLINEAR =      F non collinear calculations
   LSORBIT =      F    spin-orbit coupling
   INIWAV =      1    electr: 0-lowe 1-rand  2-diag
   LASPH  =      F    aspherical Exc in radial PAW
 Electronic Relaxation 1
   ENCUT  =  500.0 eV  36.75 Ry    6.06 a.u.  32.93 32.93113.93*2*pi/ulx,y,z
   ENINI  =  500.0     initial cutoff
   ENAUG  =  644.9 eV  augmentation charge cutoff
   NELM   =    600;   NELMIN=  2; NELMDL=  0     # of ELM steps 
   EDIFF  = 0.1E-03   stopping-criterion for ELM
   LREAL  =      T    real-space projection
   NLSPLINE    = F    spline interpolate recip. space projectors
   LCOMPAT=      F    compatible to vasp.4.4
   GGA_COMPAT  = F    GGA compatible to vasp.4.4-vasp.4.6
   LMAXPAW     = -100 max onsite density
   LMAXMIX     =    2 max onsite mixed and CHGCAR
   VOSKOWN=      0    Vosko Wilk Nusair interpolation
   ROPT   =   -0.00050  -0.00050  -0.00050  -0.00050
   ROPT   =   -0.00050
 Ionic relaxation
   EDIFFG = 0.1E-02   stopping-criterion for IOM
   NSW    =      0    number of steps for IOM
   NBLOCK =      1;   KBLOCK =      1    inner block; outer block 
   IBRION =     -1    ionic relax: 0-MD 1-quasi-New 2-CG
   NFREE  =      0    steps in history (QN), initial steepest desc. (CG)
   ISIF   =      2    stress and relaxation
   IWAVPR =     10    prediction:  0-non 1-charg 2-wave 3-comb
   ISYM   =      0    0-nonsym 1-usesym 2-fastsym
   LCORR  =      T    Harris-Foulkes like correction to forces

   POTIM  = 0.5000    time-step for ionic-motion
   TEIN   =    0.0    initial temperature
   TEBEG  =    0.0;   TEEND  =   0.0 temperature during run
   SMASS  =  -3.00    Nose mass-parameter (am)
   estimated Nose-frequenzy (Omega)   =  0.10E-29 period in steps = 0.13E+47 mass=  -0.745E-26a.u.
   SCALEE = 1.0000    scale energy and forces
   NPACO  =    256;   APACO  = 16.0  distance and # of slots for P.C.
   PSTRESS=    0.0 pullay stress

  Mass of Ions in am
   POMASS =   1.00 12.01 14.00126.90207.20
  Ionic Valenz
   ZVAL   =   1.00  4.00  5.00  7.00  4.00
  Atomic Wigner-Seitz radii
   RWIGS  =  -1.00 -1.00 -1.00 -1.00 -1.00
  virtual crystal weights 
   VCA    =   1.00  1.00  1.00  1.00  1.00
   NELECT =    1134.0000    total number of electrons
   NUPDOWN=      -1.0000    fix difference up-down

 DOS related values:
   EMIN   =  10.00;   EMAX   =-10.00  energy-range for DOS
   EFERMI =   0.00
   ISMEAR =     0;   SIGMA  =   0.05  broadening in eV -4-tet -1-fermi 0-gaus

 Electronic relaxation 2 (details)
   IALGO  =     38    algorithm
   LDIAG  =      T    sub-space diagonalisation (order eigenvalues)
   LSUBROT=      F    optimize rotation matrix (better conditioning)
   TURBO    =      0    0=normal 1=particle mesh
   IRESTART =      0    0=no restart 2=restart with 2 vectors
   NREBOOT  =      0    no. of reboots
   NMIN     =      0    reboot dimension
   EREF     =   0.00    reference energy to select bands
   IMIX   =      4    mixing-type and parameters
     AMIX     =   0.40;   BMIX     =  0.01
     AMIX_MAG =   1.60;   BMIX_MAG =  0.01
     AMIN     =   0.01
     WC   =   100.;   INIMIX=   1;  MIXPRE=   1;  MAXMIX= -45

 Intra band minimization:
   WEIMIN = 0.0000     energy-eigenvalue tresh-hold
   EBREAK =  0.34E-07  absolut break condition
   DEPER  =   0.30     relativ break condition  

   TIME   =   0.40     timestep for ELM

  volume/ion in A,a.u.               =      62.72       423.28
  Fermi-wavevector in a.u.,A,eV,Ry     =   0.624944  1.180972  5.313816  0.390554
  Thomas-Fermi vector in A             =   1.685677
 
 Write flags
   LWAVE        =      F    write WAVECAR
   LDOWNSAMPLE  =      F    k-point downsampling of WAVECAR
   LCHARG       =      T    write CHGCAR
   LVTOT        =      T    write LOCPOT, total local potential
   LVHAR        =      F    write LOCPOT, Hartree potential only
   LELF         =      F    write electronic localiz. function (ELF)
   LORBIT       =      0    0 simple, 1 ext, 2 COOP (PROOUT), +10 PAW based schemes


 Dipole corrections
   LMONO  =      F    monopole corrections only (constant potential shift)
   LDIPOL =      T    correct potential (dipole corrections)
   IDIPOL =      3    1-x, 2-y, 3-z, 4-all directions 
   EPSILON=  1.0000000 bulk dielectric constant

 Exchange correlation treatment:
   GGA     =    --    GGA type
   LEXCH   =     8    internal setting for exchange type
   VOSKOWN=      0    Vosko Wilk Nusair interpolation
   LHFCALC =     F    Hartree Fock is set to
   LHFONE  =     F    Hartree Fock one center treatment
   AEXX    =    0.0000 exact exchange contribution

 Linear response parameters
   LEPSILON=     F    determine dielectric tensor
   LRPA    =     F    only Hartree local field effects (RPA)
   LNABLA  =     F    use nabla operator in PAW spheres
   LVEL    =     F    velocity operator in full k-point grid
   LINTERFAST=   F  fast interpolation
   KINTER  =     0    interpolate to denser k-point grid
   CSHIFT  =0.1000    complex shift for real part using Kramers Kronig
   OMEGAMAX=  -1.0    maximum frequency
   DEG_THRESHOLD= 0.2000000E-02 threshold for treating states as degnerate
   RTIME   =   -0.100 relaxation time in fs
  (WPLASMAI=    0.000 imaginary part of plasma frequency in eV, 0.658/RTIME)
   DFIELD  = 0.0000000 0.0000000 0.0000000 field for delta impulse in time
 
 Orbital magnetization related:
   ORBITALMAG=     F  switch on orbital magnetization
   LCHIMAG   =     F  perturbation theory with respect to B field
   DQ        =  0.001000  dq finite difference perturbation B field
   LLRAUG    =     F  two centre corrections for induced B field



--------------------------------------------------------------------------------------------------------


 Static calculation
 charge density and potential will be updated during run
 non-spin polarized calculation
 Variant of blocked Davidson
 Davidson routine will perform the subspace rotation
 perform sub-space diagonalisation
    after iterative eigenvector-optimisation
 modified Broyden-mixing scheme, WC =      100.0
 initial mixing is a Kerker type mixing with AMIX =  0.4000 and BMIX =      0.0100
 Hartree-type preconditioning will be used
 using additional bands           165
 real space projection scheme for non local part
[...]
     13.54561      0.00000     45.35368        -0.000627     -0.001271      0.014630
     13.54315      9.03140     45.35368        -0.003909     -0.007953     -0.012807
     14.01164     10.05634     32.43668        -0.011378      0.000056     -0.089147
     12.98620      8.65290     32.77626         0.005577     -0.061120     -0.025316
     15.68060      9.05652     33.62761         0.007296     -0.020594     -0.023201
     15.52803      8.71775     35.34718        -0.000565     -0.006440      0.023148
     13.44116     11.58716     34.98089         0.029728     -0.050718     -0.018621
     14.69108     10.79498     35.95974        -0.066695     -0.083360      0.004467
     12.03955      9.88044     35.53574        -0.002144      0.020426     -0.034293
     12.30532      8.20976     34.99632        -0.047766     -0.000262     -0.030985
     11.14089     10.10607     33.55690         0.000350      0.039729     -0.076153
     12.17039     11.54951     33.40456        -0.047934     -0.165099     -0.094712
     10.94420     11.66327     31.44969         0.001434      0.015877     -0.047429
     12.40365     10.87985     30.86285         0.028515     -0.002591      0.037136
     14.22142      7.03336     33.09297         0.010189      0.019015      0.027501
     14.03836      6.72031     34.83451         0.072892      0.057436     -0.095820
     15.62781      6.62736     34.07915         0.001977     -0.005692     -0.005388
     15.58354     12.57988     34.52255        -0.007303     -0.115687     -0.034031
     15.14838     11.70024     33.06237        -0.008064      0.058704     -0.128281
     16.37194     11.01520     34.17744        -0.013999      0.067230      0.001334
     13.92092      9.54748     37.26701         0.080379      0.152877      0.063717
     13.97668      7.84158     36.79060        -0.073250      0.099622     -0.017630
     12.51039      8.53035     37.48514        -0.031213     -0.022000     -0.024836
      9.72064      9.53844     31.54027         0.035848      0.050120     -0.037819
     10.36113      9.85234     29.92076        -0.004999      0.030832     -0.046113
     12.69817      8.67932     29.36405        -0.092663     -0.158658      0.183089
     10.04986      7.47991     32.52962        -0.097712     -0.010189      0.089966
     13.82415      6.47061     29.46867        -0.059853      0.028616      0.030660
     11.19520      5.26546     32.65300        -0.044907      0.026950      0.026792
     13.09869      4.76826     31.14627        -0.017814     -0.035658      0.014091
      0.34482      4.60980     34.81205        -0.043682     -0.008217     -0.035552
      0.63815     13.80220     35.04338        -0.143501     -0.116804      0.074034
      8.35595      4.08506     34.70838         0.366289     -0.185719      0.088433
      9.04401     13.64933     34.66283         0.068504     -0.029867     -0.172879
      4.28731      9.67495     34.98642        -0.023898      0.067082     -0.025351
      4.56210      0.26286     34.83234        -0.090904     -0.002617     -0.018883
     14.05452     17.68996     34.99593         0.026893     -0.116468     -0.067099
      0.19466      4.41873     40.49925         0.229414     -0.328538      0.324153
      0.21147     13.74787     40.76777         0.289800     -0.294101     -0.048644
      8.70123      4.10078     40.91535         0.134561     -0.249014     -0.052398
      9.01982     13.63123     40.53702        -0.028706     -0.080791      0.504816
      4.56416      8.95707     40.53281         0.112451      0.117897      0.047331
      4.50968     18.01359     40.40683        -0.315214     -0.327021      0.138360
     14.03286      8.73722     40.94530        -0.487222     -0.268634      0.154054
     13.62013     18.01336     40.56067        -0.364829     -0.288448      0.125600
      9.02897      4.51561     46.44552         0.010478      0.004832     -0.012340
      9.02651     13.54701     46.44552         0.015307      0.000810      0.037304
     18.05937      4.51561     46.44552         0.000515      0.016354      0.044535
     18.05691     13.54701     46.44552         0.007908      0.013092      0.006167
      4.51521      0.00002     46.44421         0.007284      0.004555      0.052291
      4.51275      9.03142     46.44421         0.001834     -0.002778      0.029802
     13.54561      0.00002     46.44421        -0.007842     -0.009605      0.014060
     13.54315      9.03142     46.44421        -0.022426     -0.024999      0.003663
     11.30506      8.23604     30.96670        -0.013340      0.175612     -0.288397
     12.36141      7.93029     30.09782         0.169028      0.275640     -0.286449
     10.87758      7.25514     31.86071        -0.011823     -0.134864      0.151832
     12.99746      6.69113     30.14954         0.111191     -0.195328      0.045898
     11.51454      6.01641     31.92908         0.106050     -0.194130      0.013045
     12.58555      5.72734     31.08121         0.011079      0.180188     -0.119516
     13.21210      9.67606     33.08231        -0.165695      0.051263      0.015891
     15.01140      8.63311     34.38359         0.037195     -0.074287      0.031655
     14.32099     10.93180     34.93803         0.058488      0.060843     -0.062941
     12.78720      9.08316     35.45296        -0.079725     -0.083746      0.004482
     11.96334     10.55036     32.97428         0.280148      0.144548      0.124444
     11.52446     10.72984     31.51134        -0.086847      0.079220      0.042842
     14.68376      7.18685     34.07631        -0.069557     -0.035036      0.060998
     15.42555     11.56951     34.11251        -0.088580      0.003470      0.085956
     13.34617      8.73992     36.81007         0.063294     -0.224951      0.037815
     10.65050      9.59552     30.95059        -0.069337     -0.089641      0.101742
     17.94253      3.48764     35.31042        -0.083630      0.158753      0.049506
      0.57432     12.69143     35.73516        -0.069624     -0.092139      0.069519
      9.62371      3.84761     34.97026         0.072995      0.076296      0.081058
      8.57842     12.53622     35.17945        -0.019159     -0.044958      0.030378
      7.74206      5.23228     34.84339         0.067988      0.437427      0.123635
      8.58713     14.84706     34.93950        -0.031312     -0.050701      0.090018
     17.98226      5.79855     35.16933         0.165964     -0.030500     -0.092308
     17.78401     14.74874     35.07837        -0.033425     -0.020712      0.091542
      4.24419      8.42627     35.38694         0.009064     -0.074185     -0.012697
      3.52957     17.60376     35.21093        -0.064616      0.088455     -0.043869
     12.77177     17.75443     35.26864         0.014141      0.079086      0.082518
      5.80092     18.02105     35.12233         0.073420      0.150221     -0.158689
      5.38461     10.36419     34.77384        -0.284855      0.147805     -0.147779
     14.89370      0.63790     35.04903         0.072253     -0.305279     -0.157920
      1.01165      3.49319     40.96331        -0.336240      0.404855     -0.520695
      1.18469     12.91542     41.08871        -0.674989      0.285697      0.045557
      9.96979      3.77421     41.01098        -0.094592      0.028468     -0.041337
      9.65478     12.67689     41.17984         0.076839     -0.080571     -0.018261
      3.72393      8.11612     41.08490         0.076674      0.059690      0.539145
      3.73519     17.25635     41.15486         0.051179      0.030940      0.041172
     12.78112      8.35110     41.09894         0.130403      0.142223      0.020056
     12.74972     17.26077     41.20020         0.106382      0.103027      0.042373
      8.21226      5.30231     41.06887         0.157060      0.578309      0.090013
      8.28028     14.55966     41.09481        -0.023471      0.033673     -0.053246
     17.47824      5.18641     41.22982         0.073906     -0.037143     -0.236785
     17.07390     13.73409     41.29867         0.052598      0.131093     -0.079790
      5.38646      0.82254     40.83533         0.233979      0.281495      0.396196
      5.34044      9.81229     41.16451        -0.160206     -0.172453      0.078567
     14.42078      0.83102     41.11063         0.152352      0.230854      0.497835
     14.43389      9.97891     40.93970         0.288186      0.381521     -0.225168
      0.82731      3.68697     47.03596         0.026011     -0.033796     -0.087665
      0.82485     12.71837     47.03596         0.029412     -0.032794     -0.069289
      9.85771      3.68697     47.03596         0.024265     -0.031332     -0.055972
      9.85525     12.71837     47.03596         0.020742     -0.021639     -0.089573
      3.68432      8.20234     47.03465        -0.018831     -0.011589     -0.064784
      3.68186     17.23373     47.03465        -0.015133     -0.010760     -0.062237
     12.71472      8.20234     47.03465        -0.001970     -0.000634     -0.056410
     12.71226     17.23373     47.03465        -0.011815     -0.012282     -0.060090
      8.20068      5.34457     47.03603        -0.025623      0.020505     -0.057407
      8.19822     14.37597     47.03603        -0.023656      0.020016     -0.087630
     17.23108      5.34457     47.03603        -0.010319      0.009946     -0.090222
     17.22862     14.37597     47.03603        -0.015174      0.017478     -0.066881
      5.34365      0.82909     47.03465         0.004701      0.005476     -0.066180
      5.34119      9.86049     47.03465         0.010982      0.018628     -0.066842
     14.37405      0.82909     47.03465         0.026269      0.020429     -0.055640
     14.37159      9.86049     47.03465         0.033966      0.034221     -0.064253
     13.82427      9.57394     34.46326         0.132190      0.206604     -0.073695
      9.28371      0.30337     34.49624         0.013730     -0.030356      0.003704
      8.70618      8.93316     34.65335        -0.039529      0.058768     -0.043551
      0.21891      0.10241     34.26645         0.029408      0.001131      0.007059
      0.67829      9.17195     34.57602        -0.032093     -0.004004     -0.006477
      4.28128      4.36079     34.49583        -0.012154      0.000492      0.015667
      4.62086     13.82673     34.59475        -0.013961      0.023606     -0.016214
     13.33098      3.69374     34.64821        -0.003411      0.133266     -0.043046
     12.65698     14.30052     34.63635         0.012536     -0.056122     -0.078303
      0.03194     17.75308     40.83113        -0.027986      0.011898      0.010436
     18.00823      9.14746     40.91761        -0.011003     -0.011245     -0.013878
      8.97952      0.22407     40.87962        -0.001005     -0.015954      0.031214
      9.16488      8.84338     40.92010         0.008186     -0.006743      0.032257
      4.69422      4.44614     40.88731        -0.002249      0.004055     -0.019482
      4.66077     13.62699     40.91183         0.043878     -0.002276     -0.015338
     13.47727      4.81851     40.89142         0.005203     -0.044494     -0.014235
     13.47749     13.51000     40.88464        -0.021819     -0.039420      0.011838
      2.44133      2.02418     37.94026        -0.020112     -0.003520      0.009966
      2.69712     10.94221     37.99506        -0.015314      0.017807      0.029540
     11.69465      1.89214     38.08637         0.019426      0.020757      0.023726
     11.12650     11.34562     38.04827         0.012450      0.057898      0.009066
      6.47292      6.99971     37.77967         0.007627     -0.022779      0.039771
      6.77265     15.89309     37.88711        -0.035112      0.002844      0.009887
     16.07407      6.58822     38.05949         0.032165     -0.016622      0.011948
     15.68164     15.84612     37.77330         0.010710      0.030014      0.018479
      2.19555      6.64612     38.09798        -0.003641     -0.007011     -0.034425
      2.23841     15.64905     37.95777        -0.019435      0.011637      0.007824
     10.71562      6.11501     37.56374        -0.013634     -0.012203      0.012195
     11.13533     15.74152     38.29892         0.004232     -0.020719     -0.014441
      6.98494      2.43637     37.79235        -0.018861     -0.003781      0.004780
      6.94798     11.35014     38.16729         0.013226      0.013383     -0.041584
     16.01776      2.40418     38.14498        -0.018399     -0.014711      0.024631
     16.16511     11.67008     38.12144         0.078834     -0.051760     -0.089962
      0.00000      0.00000     47.17356         0.001925      0.005038      0.288762
     -0.00246      9.03140     47.17356        -0.000160      0.002419      0.402295
      9.03040      0.00000     47.17356        -0.001705     -0.003230      0.383072
      9.02794      9.03140     47.17356         0.001160      0.005241      0.413659
      4.51398      4.51570     47.17425        -0.006485     -0.003408      0.433765
      4.51152     13.54710     47.17425         0.003864     -0.001129      0.423291
     13.54438      4.51570     47.17425         0.007074      0.000270      0.424002
     13.54192     13.54710     47.17425        -0.003468     -0.004867      0.401483
      2.45192      2.06295     44.04013        -0.025204     -0.023470     -0.065391
      2.44946     11.09435     44.04013         0.019110     -0.031185     -0.053875
     11.48232      2.06295     44.04013         0.059543     -0.048204     -0.054268
     11.47986     11.09435     44.04013        -0.027894      0.010008     -0.082737
      6.57602      6.96845     44.04013        -0.041413      0.047828     -0.032307
      6.57356     15.99985     44.04013         0.010283      0.001276     -0.043588
     15.60642      6.96845     44.04013         0.083940     -0.021305     -0.030592
     15.60396     15.99985     44.04013        -0.022907      0.022309     -0.036026
      2.06108      6.57881     44.04000        -0.006246      0.010279     -0.069529
      2.05862     15.61021     44.04000         0.045787      0.037110     -0.005866
     11.09148      6.57881     44.04000        -0.014569     -0.018104     -0.022580
     11.08902     15.61021     44.04000        -0.027379     -0.002509     -0.044500
      6.96686      2.45259     44.04007        -0.075015     -0.083506     -0.050721
      6.96440     11.48399     44.04007         0.018355      0.010799     -0.055905
     15.99726      2.45259     44.04007         0.031647     -0.005244     -0.096503
     15.99481     11.48399     44.04007         0.020053      0.016595     -0.013150
      2.43163      2.08322     50.06849        -0.001858     -0.021823      0.021908
      2.42917     11.11462     50.06849         0.010751     -0.010350      0.023238
     11.46203      2.08322     50.06849         0.009555     -0.014495      0.026700
     11.45957     11.11462     50.06849         0.014140     -0.005180      0.023347
      6.59631      6.94818     50.06849        -0.013400      0.010115      0.026268
      6.59385     15.97958     50.06849        -0.010174      0.009960      0.022378
     15.62671      6.94818     50.06849        -0.005496      0.012625      0.023014
     15.62425     15.97958     50.06849        -0.002124      0.018774      0.024232
      2.08113      6.59901     50.06905        -0.013826     -0.007947      0.022818
      2.07867     15.63041     50.06905        -0.018899     -0.000841      0.022841
     11.11153      6.59901     50.06905        -0.007888     -0.010973      0.025922
     11.10907     15.63041     50.06905        -0.009571     -0.011943      0.024045
      6.94681      2.43239     50.06905         0.010895      0.006225      0.024485
      6.94435     11.46379     50.06905         0.006853      0.014164      0.023480
     15.97721      2.43239     50.06905         0.023358     -0.001087      0.023628
     15.97475     11.46379     50.06905         0.009974      0.010842      0.023369
     18.05439     18.04012     37.77187         0.000587     -0.029211      0.026426
      0.11551      9.11510     37.77406        -0.038407     -0.030189      0.005838
      9.13173      0.11523     37.72723        -0.039967      0.043232     -0.024696
      9.01698      8.88830     37.78025        -0.019554     -0.015954     -0.049456
      4.48723      4.45737     37.64108        -0.021231     -0.004764      0.000639
      4.56805     13.46268     37.73388        -0.020002      0.027585     -0.024054
     13.44376      4.43546     37.64827         0.006085      0.023267      0.017918
     13.32145     13.63740     37.67460         0.018836      0.000450     -0.019017
      0.00001      0.00001     44.04300        -0.039819     -0.122275      0.105339
     -0.00245      9.03141     44.04300        -0.033522     -0.053573      0.191269
      9.03041      0.00001     44.04300         0.035206      0.096931      0.130834
      9.02795      9.03141     44.04300        -0.011129     -0.116372      0.269485
      4.51397      4.51569     44.04275         0.119289      0.037277      0.048878
      4.51151     13.54709     44.04275        -0.044025      0.031238      0.139460
     13.54437      4.51569     44.04275        -0.102832      0.047737      0.122848
     13.54191     13.54709     44.04275        -0.003106      0.071342      0.128833
      0.00000      0.00000     50.44728        -0.000608      0.002454     -0.599613
     -0.00246      9.03140     50.44728        -0.000544     -0.002825     -0.627626
      9.03040      0.00000     50.44728         0.001419      0.006213     -0.627650
      9.02794      9.03140     50.44728         0.000375     -0.006167     -0.636665
      4.51397      4.51570     50.44728         0.010761      0.007751     -0.640399
      4.51151     13.54710     50.44728         0.007742     -0.007331     -0.634773
     13.54437      4.51570     50.44728        -0.011361      0.006306     -0.640962
     13.54191     13.54710     50.44728        -0.006698     -0.007542     -0.631269
 -----------------------------------------------------------------------------------
    total drift:                               -0.044606      0.041901      0.182776


--------------------------------------------------------------------------------------------------------



  FREE ENERGIE OF THE ION-ELECTRON SYSTEM (eV)
  ---------------------------------------------------
  free  energy   TOTEN  =     -1576.30351319 eV

  energy  without entropy=    -1576.30351319  energy(sigma->0) =    -1576.30351319
 


--------------------------------------------------------------------------------------------------------


    POTLOK:  cpu time    0.5023: real time    0.5024


--------------------------------------------------------------------------------------------------------


     LOOP+:  cpu time  266.0001: real time  266.6533
 vacuum level on the upper side and lower side of the slab         2.300         1.608
    4ORBIT:  cpu time    0.0000: real time    0.0000

 total amount of memory used by VASP MPI-rank0  8653582. kBytes
=======================================================================

   base      :      30000. kBytes
   nonlr-proj:      53620. kBytes
   fftplans  :     249280. kBytes
   grid      :     701440. kBytes
   one-center:       2636. kBytes
   wavefun   :    7616606. kBytes
 
  
  
 General timing and accounting informations for this job:
 ========================================================
  
                  Total CPU time used (sec):      483.882
                            User time (sec):      394.995
                          System time (sec):       88.887
                         Elapsed time (sec):      480.189
  
                   Maximum memory used (kb):    10323932.
                   Average memory used (kb):          N/A
  
                          Minor page faults:      3578090
                          Major page faults:           12
                 Voluntary context switches:        11007
