 vasp.6.2.1 16May21 (build Nov 15 2021 14:57:28) complex                         
 executed on             LinuxPGI date 2023.07.30  22:08:29
 running on    4 total cores
 distrk:  each k-point on    4 cores,    1 groups
 distr:  one band on NCORE=   1 cores,    4 groups


--------------------------------------------------------------------------------------------------------


 INCAR:
   SYSTEM = PSC
   ISTART = 1
   ICHARG = 1
   PREC = Normal
   ENCUT = 500
   GGA_COMPAT = F
   NELM = 600
   ISYM = 0
   LREAL = Auto
   ISMEAR = 0
   SIGMA = 0.05
   AMIN = 0.01
   BMIX = 0.01
   LVTOT = T
   LWAVE = F
   LDIPOL = T
   IDIPOL = 3
   LVDW = T
   IVDW = 12

 POTCAR:    PAW_PBE H 15Jun2001                   
 POTCAR:    PAW_PBE C 08Apr2002                   
 POTCAR:    PAW_PBE N 08Apr2002                   
 POTCAR:    PAW_PBE I 08Apr2002                   
 POTCAR:    PAW_PBE Pb 08Apr2002                  
 WARNING: For LVTOT=.TRUE., VASP.5.x writes the TOTAL local potential to the
     file LOCPOT. If you want only the Hartree contributions, use LVHAR=.TRUE.
     instead. 

 POTCAR:    PAW_PBE H 15Jun2001                   
   SHA256 =  030f79b5d3ab3cf0e668861823c8fb652ff669f3e15e46930bd03bfd63a607b6 H/POTCAR              
   COPYR  = (c) Copyright 15Jun2001 Georg Kresse                                                    
   COPYR  = This file is part of the software VASP. Any use, copying, and all other rights are regul
   COPYR  = If you do not have a valid VASP license, you may not use, copy or distribute this file. 
   VRHFIN =H: ultrasoft test                                                                        
   LEXCH  = PE                                                                                      
   EATOM  =    12.4884 eV,    0.9179 Ry                                                             
                                                                                                    
   TITEL  = PAW_PBE H 15Jun2001                                                                     
   LULTRA =        F    use ultrasoft PP ?                                                          
   IUNSCR =        0    unscreen: 0-lin 1-nonlin 2-no                                               
   RPACOR =    0.000    partial core radius                                                         
   POMASS =    1.000; ZVAL   =    1.000    mass and valenz                                          
   RCORE  =    1.100    outmost cutoff radius                                                       
   RWIGS  =    0.700; RWIGS  =    0.370    wigner-seitz radius (au A)                               
   ENMAX  =  250.000; ENMIN  =  200.000 eV                                                          
   RCLOC  =    0.701    cutoff for local pot                                                        
   LCOR   =        T    correct aug charges                                                         
   LPAW   =        T    paw PP                                                                      
   EAUG   =  400.000                                                                                
   RMAX   =    1.123    core radius for proj-oper                                                   
   RAUG   =    1.200    factor for augmentation sphere                                              
   RDEP   =    1.112    radius for radial grids                                                     
   RDEPT  =    0.926    core radius for aug-charge                                                  
                                                                                                    
   Atomic configuration                                                                             
    2 entries                                                                                       
     n  l   j            E        occ.                                                              
     1  0  0.50        -6.4927   1.0000                                                             
     2  1  0.50        -3.4015   0.0000                                                             
   Description                                                                                      
     l       E           TYP  RCUT    TYP  RCUT                                                     
     0     -6.4927494     23  1.100                                                                 
     0      6.8029130     23  1.100                                                                 
     1     -4.0817478     23  1.100                                                                 
  local pseudopotential read in
  atomic valenz-charges read in
  non local Contribution for L=            0  read in
    real space projection operators read in
  non local Contribution for L=            0  read in
    real space projection operators read in
  non local Contribution for L=            1  read in
    real space projection operators read in
    PAW grid and wavefunctions read in
 
   number of l-projection  operators is LMAX  =            3
   number of lm-projection operators is LMMAX =            5
 
 POTCAR:    PAW_PBE C 08Apr2002                   
   SHA256 =  253f7b50bb8d59471dbedb8285d89021f4a42ed1a2c5d38a03a736e69125dd95 C/POTCAR              
   COPYR  = (c) Copyright 08Apr2002 Georg Kresse                                                    
   COPYR  = This file is part of the software VASP. Any use, copying, and all other rights are regul
   COPYR  = If you do not have a valid VASP license, you may not use, copy or distribute this file. 
   VRHFIN =C: s2p2                                                                                  
   LEXCH  = PE                                                                                      
   EATOM  =   147.1560 eV,   10.8157 Ry                                                             
                                                                                                    
   TITEL  = PAW_PBE C 08Apr2002                                                                     
   LULTRA =        F    use ultrasoft PP ?                                                          
   IUNSCR =        1    unscreen: 0-lin 1-nonlin 2-no                                               
   RPACOR =    1.200    partial core radius                                                         
   POMASS =   12.011; ZVAL   =    4.000    mass and valenz                                          
   RCORE  =    1.500    outmost cutoff radius                                                       
   RWIGS  =    1.630; RWIGS  =    0.863    wigner-seitz radius (au A)                               
   ENMAX  =  400.000; ENMIN  =  300.000 eV                                                          
   ICORE  =        2    local potential                                                             
   LCOR   =        T    correct aug charges                                                         
   LPAW   =        T    paw PP                                                                      
   EAUG   =  644.873                                                                                
   DEXC   =    0.000                                                                                
   RMAX   =    1.529    core radius for proj-oper                                                   
   RAUG   =    1.300    factor for augmentation sphere                                              
   RDEP   =    1.501    radius for radial grids                                                     
   RDEPT  =    1.300    core radius for aug-charge                                                  
                                                                                                    
   Atomic configuration                                                                             
    4 entries                                                                                       
     n  l   j            E        occ.                                                              
     1  0  0.50      -273.3789   2.0000                                                             
     2  0  0.50       -13.7508   2.0000                                                             
     2  1  0.50        -5.2854   2.0000                                                             
     3  2  1.50        -5.4423   0.0000                                                             
   Description                                                                                      
     l       E           TYP  RCUT    TYP  RCUT                                                     
     0    -13.7508458     23  1.200                                                                 
     0     -8.2022199     23  1.200                                                                 
     1     -5.2854383     23  1.500                                                                 
     1     34.0145650     23  1.500                                                                 
     2     -5.4423304      7  1.500                                                                 
  local pseudopotential read in
  partial core-charges read in
  partial kinetic energy density read in
  atomic valenz-charges read in
  non local Contribution for L=            0  read in
    real space projection operators read in
  non local Contribution for L=            0  read in
    real space projection operators read in
  non local Contribution for L=            1  read in
    real space projection operators read in
  non local Contribution for L=            1  read in
    real space projection operators read in
    PAW grid and wavefunctions read in
 
   number of l-projection  operators is LMAX  =            4
   number of lm-projection operators is LMMAX =            8
 
 POTCAR:    PAW_PBE N 08Apr2002                   
   SHA256 =  e053789ff3a61a86a1b75d8a110fcc91f86041011e7b0817c7c99e4e8a6349d7 N/POTCAR              
   COPYR  = (c) Copyright 08Apr2002 Georg Kresse                                                    
   COPYR  = This file is part of the software VASP. Any use, copying, and all other rights are regul
   COPYR  = If you do not have a valid VASP license, you may not use, copy or distribute this file. 
   VRHFIN =N: s2p3                                                                                  
   LEXCH  = PE                                                                                      
   EATOM  =   264.5486 eV,   19.4438 Ry                                                             
                                                                                                    
   TITEL  = PAW_PBE N 08Apr2002                                                                     
   LULTRA =        F    use ultrasoft PP ?                                                          
   IUNSCR =        1    unscreen: 0-lin 1-nonlin 2-no                                               
   RPACOR =    1.200    partial core radius                                                         
   POMASS =   14.001; ZVAL   =    5.000    mass and valenz                                          
   RCORE  =    1.500    outmost cutoff radius                                                       
   RWIGS  =    1.400; RWIGS  =    0.741    wigner-seitz radius (au A)                               
   ENMAX  =  400.000; ENMIN  =  300.000 eV                                                          
   ICORE  =        2    local potential                                                             
   LCOR   =        T    correct aug charges                                                         
   LPAW   =        T    paw PP                                                                      
   EAUG   =  627.112                                                                                
   DEXC   =    0.000                                                                                
   RMAX   =    1.529    core radius for proj-oper                                                   
   RAUG   =    1.300    factor for augmentation sphere                                              
   RDEP   =    1.514    radius for radial grids                                                     
   RDEPT  =    1.338    core radius for aug-charge                                                  
                                                                                                    
   Atomic configuration                                                                             
    4 entries                                                                                       
     n  l   j            E        occ.                                                              
     1  0  0.50      -384.7179   2.0000                                                             
     2  0  0.50       -18.5828   2.0000                                                             
     2  1  0.50        -7.0898   3.0000                                                             
     3  2  1.50        -6.8029   0.0000                                                             
   Description                                                                                      
     l       E           TYP  RCUT    TYP  RCUT                                                     
     0    -18.5828119     23  1.200                                                                 
     0    -13.5018863     23  1.200                                                                 
     1     -7.0897853     23  1.500                                                                 
     1      9.5240782     23  1.500                                                                 
     2     -6.8029130      7  1.500                                                                 
  local pseudopotential read in
  partial core-charges read in
  partial kinetic energy density read in
  atomic valenz-charges read in
  non local Contribution for L=            0  read in
    real space projection operators read in
  non local Contribution for L=            0  read in
    real space projection operators read in
  non local Contribution for L=            1  read in
    real space projection operators read in
  non local Contribution for L=            1  read in
    real space projection operators read in
    PAW grid and wavefunctions read in
 
   number of l-projection  operators is LMAX  =            4
   number of lm-projection operators is LMMAX =            8
 
 POTCAR:    PAW_PBE I 08Apr2002                   
   SHA256 =  e40f3f59b681c1fc3e3091736183c4589116986673d2b852a5012aec72758799 I/POTCAR              
   COPYR  = (c) Copyright 08Apr2002 Georg Kresse                                                    
   COPYR  = This file is part of the software VASP. Any use, copying, and all other rights are regul
   COPYR  = If you do not have a valid VASP license, you may not use, copy or distribute this file. 
   VRHFIN =I : s2p5                                                                                 
   LEXCH  = PE                                                                                      
   EATOM  =   315.8678 eV,   23.2156 Ry                                                             
                                                                                                    
   TITEL  = PAW_PBE I 08Apr2002                                                                     
   LULTRA =        F    use ultrasoft PP ?                                                          
   IUNSCR =        1    unscreen: 0-lin 1-nonlin 2-no                                               
   RPACOR =    2.200    partial core radius                                                         
   POMASS =  126.904; ZVAL   =    7.000    mass and valenz                                          
   RCORE  =    2.300    outmost cutoff radius                                                       
   RWIGS  =    2.810; RWIGS  =    1.487    wigner-seitz radius (au A)                               
   ENMAX  =  175.647; ENMIN  =  131.735 eV                                                          
   ICORE  =        3    local potential                                                             
   LCOR   =        T    correct aug charges                                                         
   LPAW   =        T    paw PP                                                                      
   EAUG   =  370.139                                                                                
   DEXC   =    0.000                                                                                
   RMAX   =    2.359    core radius for proj-oper                                                   
   RAUG   =    1.300    factor for augmentation sphere                                              
   RDEP   =    2.392    radius for radial grids                                                     
   RDEPT  =    2.170    core radius for aug-charge                                                  
                                                                                                    
   Atomic configuration                                                                             
   13 entries                                                                                       
     n  l   j            E        occ.                                                              
     1  0  0.50    -32976.3739   2.0000                                                             
     2  0  0.50     -5094.5933   2.0000                                                             
     2  1  1.50     -4572.0131   6.0000                                                             
     3  0  0.50     -1028.2813   2.0000                                                             
     3  1  1.50      -859.0250   6.0000                                                             
     3  2  2.50      -605.7620  10.0000                                                             
     4  0  0.50      -180.5540   2.0000                                                             
     4  1  1.50      -127.5306   6.0000                                                             
     4  2  2.50       -50.2720  10.0000                                                             
     5  0  0.50       -17.4058   2.0000                                                             
     5  1  0.50        -7.0851   5.0000                                                             
     5  2  1.50        -7.0750   0.0000                                                             
     4  3  2.50        -7.0750   0.0000                                                             
   Description                                                                                      
     l       E           TYP  RCUT    TYP  RCUT                                                     
     0    -17.4058016     23  2.300                                                                 
     0    -18.7663842     23  2.300                                                                 
     1     -7.0850686     23  2.300                                                                 
     1     -4.2150896     23  2.300                                                                 
     2     -7.0750295     23  2.300                                                                 
     3     -1.3605826     23  2.300                                                                 
  local pseudopotential read in
  partial core-charges read in
  partial kinetic energy density read in
  atomic valenz-charges read in
  non local Contribution for L=            0  read in
    real space projection operators read in
  non local Contribution for L=            0  read in
    real space projection operators read in
  non local Contribution for L=            1  read in
    real space projection operators read in
  non local Contribution for L=            1  read in
    real space projection operators read in
  non local Contribution for L=            2  read in
    real space projection operators read in
    PAW grid and wavefunctions read in
 
   number of l-projection  operators is LMAX  =            5
   number of lm-projection operators is LMMAX =           13
 
 POTCAR:    PAW_PBE Pb 08Apr2002                  
   SHA256 =  797118a27cf1bcd06b9881c67a26cdde129e3cd1a551dd4a281f9681ce847303 Pb/POTCAR             
   COPYR  = (c) Copyright 08Apr2002 Georg Kresse                                                    
   COPYR  = This file is part of the software VASP. Any use, copying, and all other rights are regul
   COPYR  = If you do not have a valid VASP license, you may not use, copy or distribute this file. 
   VRHFIN =Pb:                                                                                      
   LEXCH  = PE                                                                                      
   EATOM  =    96.9868 eV,    7.1283 Ry                                                             
                                                                                                    
   TITEL  = PAW_PBE Pb 08Apr2002                                                                    
   LULTRA =        F    use ultrasoft PP ?                                                          
   IUNSCR =        1    unscreen: 0-lin 1-nonlin 2-no                                               
   RPACOR =    2.200    partial core radius                                                         
   POMASS =  207.200; ZVAL   =    4.000    mass and valenz                                          
   RCORE  =    3.100    outmost cutoff radius                                                       
   RWIGS  =    3.260; RWIGS  =    1.725    wigner-seitz radius (au A)                               
   ENMAX  =   97.973; ENMIN  =   73.480 eV                                                          
   ICORE  =        3    local potential                                                             
   LCOR   =        T    correct aug charges                                                         
   LPAW   =        T    paw PP                                                                      
   EAUG   =  234.873                                                                                
   DEXC   =    0.000                                                                                
   RMAX   =    3.158    core radius for proj-oper                                                   
   RAUG   =    1.300    factor for augmentation sphere                                              
   RDEP   =    3.202    radius for radial grids                                                     
   RDEPT  =    2.659    core radius for aug-charge                                                  
                                                                                                    
   Atomic configuration                                                                             
   17 entries                                                                                       
     n  l   j            E        occ.                                                              
     1  0  0.50    -88091.8466   2.0000                                                             
     2  0  0.50    -15753.4197   2.0000                                                             
     2  1  1.50    -13508.1797   6.0000                                                             
     3  0  0.50     -3781.7194   2.0000                                                             
     3  1  1.50     -3138.2529   6.0000                                                             
     3  2  2.50     -2483.2977  10.0000                                                             
     4  0  0.50      -856.2895   2.0000                                                             
     4  1  1.50      -645.4943   6.0000                                                             
     4  2  2.50      -401.8768  10.0000                                                             
     4  3  3.50      -132.9059  14.0000                                                             
     5  0  0.50      -144.0950   2.0000                                                             
     5  1  1.50       -85.7879   6.0000                                                             
     5  2  2.50       -21.1769  10.0000                                                             
     6  0  0.50       -12.0372   2.0000                                                             
     6  1  1.50        -3.4971   2.0000                                                             
     6  2  2.50        -1.3606   0.0000                                                             
     5  3  2.50        -2.7212   0.0000                                                             
   Description                                                                                      
     l       E           TYP  RCUT    TYP  RCUT                                                     
     0    -12.0371566     23  3.100                                                                 
     0    -13.3977392     23  3.100                                                                 
     1     -3.4971341     23  3.100                                                                 
     1     -5.4423304     23  3.100                                                                 
     2     -1.3605826     23  3.100                                                                 
     3     -1.3605826     23  3.100                                                                 
  local pseudopotential read in
  partial core-charges read in
  partial kinetic energy density read in
  atomic valenz-charges read in
  non local Contribution for L=            0  read in
    real space projection operators read in
  non local Contribution for L=            0  read in
    real space projection operators read in
  non local Contribution for L=            1  read in
    real space projection operators read in
  non local Contribution for L=            1  read in
    real space projection operators read in
  non local Contribution for L=            2  read in
    real space projection operators read in
    PAW grid and wavefunctions read in
 
   number of l-projection  operators is LMAX  =            5
   number of lm-projection operators is LMMAX =           13
 
 Optimization of the real space projectors (new method)

 maximal supplied QI-value         = 34.20
 optimisation between [QCUT,QGAM] = [ 11.29, 22.57] = [ 35.68,142.71] Ry 
 Optimized for a Real-space Cutoff    1.16 Angstroem

   l    n(q)    QCUT    max X(q) W(low)/X(q) W(high)/X(q)  e(spline) 
   0      8    11.287    19.460    0.40E-03    0.73E-03    0.16E-06
   0      8    11.287    12.209    0.38E-03    0.70E-03    0.15E-06
   1      7    11.287     4.655    0.22E-03    0.25E-04    0.22E-06
 Optimization of the real space projectors (new method)

 maximal supplied QI-value         = 25.13
 optimisation between [QCUT,QGAM] = [ 11.31, 22.87] = [ 35.82,146.48] Ry 
 Optimized for a Real-space Cutoff    1.00 Angstroem

   l    n(q)    QCUT    max X(q) W(low)/X(q) W(high)/X(q)  e(spline) 
   0      7    11.310   115.676    0.43E-03    0.13E-02    0.19E-06
   0      7    11.310    87.132    0.43E-03    0.13E-02    0.18E-06
   1      6    11.310     4.429    0.42E-03    0.74E-03    0.11E-06
   1      6    11.310     2.733    0.34E-03    0.55E-03    0.92E-07
 Optimization of the real space projectors (new method)

 maximal supplied QI-value         = 25.13
 optimisation between [QCUT,QGAM] = [ 11.31, 22.87] = [ 35.82,146.48] Ry 
 Optimized for a Real-space Cutoff    1.27 Angstroem

   l    n(q)    QCUT    max X(q) W(low)/X(q) W(high)/X(q)  e(spline) 
   0      9    11.310    79.467    0.75E-04    0.16E-03    0.36E-06
   0      9    11.310    66.151    0.74E-04    0.16E-03    0.36E-06
   1      8    11.310    17.416    0.35E-03    0.12E-03    0.95E-06
   1      8    11.310    12.382    0.37E-03    0.13E-03    0.98E-06
 Optimization of the real space projectors (new method)

 maximal supplied QI-value         = 16.25
 optimisation between [QCUT,QGAM] = [ 11.38, 22.75] = [ 36.24,144.96] Ry 
 Optimized for a Real-space Cutoff    1.31 Angstroem

   l    n(q)    QCUT    max X(q) W(low)/X(q) W(high)/X(q)  e(spline) 
   0      9    11.376   194.483    0.24E-03    0.23E-03    0.67E-07
   0      9    11.376   190.334    0.23E-03    0.22E-03    0.65E-07
   1      8    11.376   116.687    0.25E-03    0.63E-04    0.16E-06
   1      8    11.376    88.696    0.25E-03    0.61E-04    0.16E-06
   2      8    11.376     4.877    0.17E-03    0.14E-03    0.29E-07
 Optimization of the real space projectors (new method)

 maximal supplied QI-value         = 12.09
 optimisation between [QCUT,QGAM] = [ 11.37, 22.86] = [ 36.19,146.31] Ry 
 Optimized for a Real-space Cutoff    1.66 Angstroem

   l    n(q)    QCUT    max X(q) W(low)/X(q) W(high)/X(q)  e(spline) 
   0     11    11.369   135.111    0.12E-03    0.69E-04    0.19E-05
   0     11    11.369   146.850    0.11E-03    0.65E-04    0.18E-05
   1     11    11.369   148.016    0.17E-03    0.32E-03    0.89E-06
   1     11    11.369   122.989    0.17E-03    0.32E-03    0.91E-06
   2     10    11.369     8.916    0.12E-03    0.45E-04    0.33E-06
  PAW_PBE H 15Jun2001                   :
 energy of atom  1       EATOM=  -12.4884
 kinetic energy error for atom=    0.0020 (will be added to EATOM!!)
  PAW_PBE C 08Apr2002                   :
 energy of atom  2       EATOM= -147.1560
 kinetic energy error for atom=    0.0076 (will be added to EATOM!!)
  PAW_PBE N 08Apr2002                   :
 energy of atom  3       EATOM= -264.5486
 kinetic energy error for atom=    0.0138 (will be added to EATOM!!)
  PAW_PBE I 08Apr2002                   :
 energy of atom  4       EATOM= -315.8678
 kinetic energy error for atom=    0.0009 (will be added to EATOM!!)
  PAW_PBE Pb 08Apr2002                  :
 energy of atom  5       EATOM=  -96.9868
 kinetic energy error for atom=    0.0000 (will be added to EATOM!!)
 
 
 POSCAR:  H  C  N  I Pb
  positions in cartesian coordinates
  No initial velocities read in
 exchange correlation table for  LEXCH =        8
   RHO(1)=    0.500       N(1)  =     2000
   RHO(2)=  100.500       N(2)  =     4000
 


--------------------------------------------------------------------------------------------------------


 ion  position               nearest neighbor table
   1  0.467  0.339  0.564- 187 1.02
   2  0.439  0.824  0.575- 188 1.03
   3  0.924  0.277  0.577- 189 1.03
   4  0.936  0.818  0.573- 190 1.02
   5  0.321  0.079  0.570- 194 1.03
   6  0.348  0.543  0.557- 195 1.02
   7  0.806  0.092  0.566- 196 1.02
   8  0.108  0.251  0.557- 183 1.03
   9  0.075  0.675  0.577- 184 1.02
  10  0.550  0.155  0.561- 185 1.02
  11  0.504  0.644  0.557- 186 1.02
  12  0.375  0.016  0.557- 194 1.02
  13  0.296  0.623  0.552- 195 1.03
  14  0.877  0.033  0.557- 196 1.03
  15  0.059  0.282  0.579- 183 1.03
  16  0.986  0.697  0.586- 184 1.03
  17  0.572  0.247  0.567- 185 1.02
  18  0.448  0.686  0.576- 186 1.03
  19  0.272  0.437  0.572- 191 1.03
  20  0.187  0.058  0.572- 192 1.02
  21  0.685  0.032  0.575- 193 1.03
  22  0.382  0.299  0.555- 187 1.02
  23  0.497  0.869  0.557- 188 1.02
  24  0.882  0.237  0.555- 189 1.02
  25  0.989  0.868  0.554- 190 1.03
  26  0.176  0.447  0.570- 191 1.02
  27  0.152  0.980  0.559- 192 1.02
  28  0.680  0.937  0.569- 193 1.02
  29  0.429  0.183  0.552- 146 1.09
  30  0.544  0.758  0.543- 147 1.09
  31  0.998  0.218  0.538- 144 1.09
  32  0.084  0.778  0.554- 145 1.10
  33  0.182  0.564  0.557- 148 1.10
  34  0.270  0.941  0.548- 149 1.10
  35  0.799  0.930  0.557- 150 1.10
  36  0.444  0.301  0.672- 205 1.03
  37  0.451  0.807  0.674- 206 1.02
  38  0.944  0.282  0.674- 207 1.02
  39  0.921  0.734  0.669- 208 1.02
  40  0.301  0.053  0.673- 209 1.03
  41  0.295  0.559  0.674- 210 1.03
  42  0.805  0.055  0.675- 211 1.03
  43  0.843  0.470  0.663- 212 1.03
  44  0.088  0.170  0.648- 197 1.02
  45  0.113  0.712  0.653- 198 1.02
  46  0.580  0.170  0.650- 199 1.02
  47  0.570  0.669  0.648- 200 1.02
  48  0.185  0.411  0.649- 201 1.02
  49  0.169  0.924  0.647- 202 1.01
  50  0.642  0.474  0.656- 203 1.02
  51  0.675  0.920  0.651- 204 1.02
  52  0.052  0.186  0.674- 197 1.02
  53  0.043  0.668  0.667- 198 1.02
  54  0.547  0.201  0.674- 199 1.02
  55  0.546  0.698  0.673- 200 1.03
  56  0.203  0.447  0.674- 201 1.02
  57  0.197  0.951  0.673- 202 1.03
  58  0.713  0.415  0.664- 203 1.03
  59  0.703  0.952  0.676- 204 1.03
  60  0.419  0.324  0.646- 205 1.02
  61  0.424  0.836  0.648- 206 1.02
  62  0.923  0.319  0.650- 207 1.01
  63  0.915  0.817  0.655- 208 1.01
  64  0.328  0.079  0.647- 209 1.02
  65  0.324  0.586  0.649- 210 1.03
  66  0.830  0.079  0.648- 211 1.02
  67  0.850  0.557  0.651- 212 1.02
  68  0.011  0.252  0.631- 151 1.09
  69  0.038  0.812  0.643- 152 1.10
  70  0.502  0.246  0.630- 153 1.09
  71  0.495  0.752  0.630- 154 1.09
  72  0.248  0.001  0.630- 156 1.09
  73  0.260  0.494  0.631- 155 1.09
  74  0.751  0.997  0.632- 158 1.09
  75  0.723  0.570  0.646- 157 1.09
  76  0.449  0.301  0.769- 221 1.02
  77  0.449  0.801  0.769- 222 1.02
  78  0.949  0.301  0.769- 223 1.02
  79  0.949  0.801  0.769- 224 1.02
  80  0.301  0.051  0.769- 225 1.02
  81  0.301  0.551  0.769- 226 1.02
  82  0.801  0.051  0.769- 227 1.02
  83  0.801  0.551  0.769- 228 1.02
  84  0.079  0.171  0.743- 213 1.02
  85  0.079  0.671  0.743- 214 1.02
  86  0.579  0.171  0.743- 215 1.02
  87  0.579  0.671  0.743- 216 1.02
  88  0.171  0.421  0.743- 217 1.02
  89  0.171  0.921  0.743- 218 1.02
  90  0.671  0.421  0.743- 219 1.02
  91  0.671  0.921  0.743- 220 1.02
  92  0.051  0.199  0.769- 213 1.02
  93  0.051  0.699  0.769- 214 1.02
  94  0.551  0.199  0.769- 215 1.02
  95  0.551  0.699  0.769- 216 1.02
  96  0.199  0.449  0.769- 217 1.02
  97  0.199  0.949  0.769- 218 1.02
  98  0.699  0.449  0.769- 219 1.02
  99  0.699  0.949  0.769- 220 1.02
 100  0.421  0.329  0.743- 221 1.02
 101  0.421  0.829  0.743- 222 1.02
 102  0.921  0.329  0.743- 223 1.02
 103  0.921  0.829  0.743- 224 1.02
 104  0.329  0.079  0.743- 225 1.02
 105  0.329  0.579  0.743- 226 1.02
 106  0.829  0.079  0.743- 227 1.02
 107  0.829  0.579  0.743- 228 1.02
 108  0.000  0.250  0.726- 161 1.09
 109  0.000  0.750  0.726- 162 1.09
 110  0.500  0.250  0.726- 159 1.09
 111  0.500  0.750  0.726- 160 1.09
 112  0.250  0.000  0.726- 163 1.09
 113  0.250  0.500  0.726- 164 1.09
 114  0.750  0.000  0.726- 165 1.09
 115  0.750  0.500  0.726- 166 1.09
 116  0.720  0.444  0.539- 173 1.10
 117  0.741  0.496  0.516- 173 1.09
 118  0.663  0.552  0.556- 174 1.09
 119  0.709  0.638  0.555- 174 1.10
 120  0.853  0.509  0.567- 175 1.10
 121  0.793  0.579  0.577- 175 1.10
 122  0.877  0.560  0.531- 176 1.10
 123  0.808  0.621  0.521- 176 1.10
 124  0.873  0.461  0.518- 177 1.10
 125  0.862  0.425  0.544- 177 1.10
 126  0.873  0.326  0.518- 178 1.10
 127  0.784  0.324  0.530- 178 1.10
 128  0.638  0.552  0.518- 179 1.10
 129  0.694  0.633  0.514- 179 1.10
 130  0.612  0.638  0.529- 179 1.10
 131  0.762  0.466  0.595- 180 1.10
 132  0.755  0.413  0.572- 180 1.10
 133  0.687  0.482  0.578- 180 1.10
 134  0.819  0.692  0.557- 181 1.10
 135  0.897  0.692  0.540- 181 1.10
 136  0.897  0.633  0.563- 181 1.10
 137  0.820  0.381  0.485- 182 1.10
 138  0.787  0.292  0.491- 182 1.11
 139  0.662  0.303  0.518- 168 1.09
 140  0.733  0.462  0.471- 169 1.09
 141  0.535  0.355  0.517- 170 1.09
 142  0.605  0.512  0.469- 171 1.10
 143  0.506  0.461  0.493- 172 1.10
 144  0.995  0.242  0.554-  31 1.09 189 1.31 183 1.32
 145  0.033  0.769  0.564-  32 1.10 184 1.31 190 1.32
 146  0.466  0.228  0.557-  29 1.09 185 1.31 187 1.31
 147  0.503  0.757  0.555-  30 1.09 188 1.31 186 1.31
 148  0.234  0.535  0.560-  33 1.10 195 1.31 191 1.32
 149  0.264  0.993  0.557-  34 1.10 192 1.31 194 1.32
 150  0.778  0.983  0.562-  35 1.10 196 1.31 193 1.32
 151  0.006  0.245  0.649-  68 1.09 197 1.31 207 1.32
 152  0.015  0.767  0.653-  69 1.10 208 1.31 198 1.32
 153  0.500  0.248  0.647-  70 1.09 205 1.31 199 1.32
 154  0.497  0.752  0.648-  71 1.09 206 1.31 200 1.31
 155  0.256  0.498  0.648-  73 1.09 210 1.31 201 1.31
 156  0.249  0.002  0.647-  72 1.09 209 1.31 202 1.32
 157  0.745  0.519  0.653-  75 1.09 203 1.31 212 1.32
 158  0.752  1.000  0.650-  74 1.09 211 1.31 204 1.32
 159  0.500  0.250  0.743- 110 1.09 221 1.31 215 1.31
 160  0.500  0.750  0.743- 111 1.09 222 1.31 216 1.31
 161  1.000  0.250  0.743- 108 1.09 223 1.31 213 1.31
 162  1.000  0.750  0.743- 109 1.09 224 1.31 214 1.31
 163  0.250  0.000  0.743- 112 1.09 225 1.31 218 1.31
 164  0.250  0.500  0.743- 113 1.09 226 1.31 217 1.31
 165  0.750  0.000  0.743- 114 1.09 227 1.31 220 1.31
 166  0.750  0.500  0.743- 115 1.09 228 1.31 219 1.31
 167  0.707  0.379  0.495- 169 1.40 168 1.41 182 1.51
 168  0.650  0.349  0.507- 139 1.09 170 1.39 167 1.41
 169  0.689  0.438  0.481- 140 1.09 167 1.40 171 1.41
 170  0.578  0.378  0.507- 141 1.09 168 1.39 172 1.40
 171  0.617  0.466  0.480- 142 1.10 172 1.39 169 1.41
 172  0.562  0.437  0.493- 143 1.10 171 1.39 170 1.40
 173  0.763  0.477  0.532- 117 1.09 116 1.10 229 1.52 177 1.52
 174  0.699  0.587  0.546- 118 1.09 119 1.10 179 1.51 229 1.52
 175  0.794  0.527  0.568- 121 1.10 120 1.10 180 1.51 229 1.52
 176  0.832  0.596  0.536- 122 1.10 123 1.10 181 1.52 229 1.53
 177  0.834  0.432  0.528- 125 1.10 124 1.10 173 1.52 178 1.53
 178  0.819  0.355  0.519- 127 1.10 126 1.10 177 1.53 182 1.54
 179  0.660  0.602  0.525- 129 1.10 128 1.10 130 1.10 174 1.51
 180  0.746  0.469  0.578- 133 1.10 131 1.10 132 1.10 175 1.51
 181  0.862  0.656  0.550- 136 1.10 134 1.10 135 1.10 176 1.52
 182  0.785  0.351  0.496- 137 1.10 138 1.11 167 1.51 178 1.54
 183  0.058  0.258  0.564-  15 1.03   8 1.03 144 1.32
 184  0.030  0.709  0.575-   9 1.02  16 1.03 145 1.31
 185  0.535  0.210  0.562-  17 1.02  10 1.02 146 1.31
 186  0.483  0.692  0.563-  11 1.02  18 1.03 147 1.31
 187  0.438  0.295  0.558-   1 1.02  22 1.02 146 1.31
 188  0.476  0.820  0.562-  23 1.02   2 1.03 147 1.31
 189  0.930  0.251  0.563-  24 1.02   3 1.03 144 1.31
 190  0.979  0.818  0.562-   4 1.02  25 1.03 145 1.32
 191  0.228  0.466  0.566-  26 1.02  19 1.03 148 1.32
 192  0.197  0.012  0.563-  27 1.02  20 1.02 149 1.31
 193  0.709  0.985  0.569-  28 1.02  21 1.03 150 1.32
 194  0.323  0.032  0.561-  12 1.02   5 1.03 149 1.32
 195  0.297  0.568  0.555-   6 1.02  13 1.03 148 1.31
 196  0.824  0.040  0.562-   7 1.02  14 1.03 150 1.31
 197  0.050  0.197  0.658-  44 1.02  52 1.02 151 1.31
 198  0.059  0.711  0.658-  45 1.02  53 1.02 152 1.32
 199  0.545  0.204  0.658-  46 1.02  54 1.02 153 1.32
 200  0.539  0.703  0.657-  47 1.02  55 1.03 154 1.31
 201  0.213  0.449  0.658-  48 1.02  56 1.02 155 1.31
 202  0.202  0.956  0.657-  49 1.01  57 1.03 156 1.32
 203  0.698  0.466  0.658-  50 1.02  58 1.03 157 1.31
 204  0.708  0.954  0.660-  51 1.02  59 1.03 158 1.32
 205  0.452  0.294  0.656-  60 1.02  36 1.03 153 1.31
 206  0.455  0.801  0.657-  61 1.02  37 1.02 154 1.31
 207  0.955  0.285  0.659-  62 1.01  38 1.02 151 1.32
 208  0.946  0.773  0.660-  63 1.01  39 1.02 152 1.31
 209  0.295  0.047  0.656-  64 1.02  40 1.03 156 1.31
 210  0.293  0.550  0.658-  41 1.03  65 1.03 155 1.31
 211  0.797  0.048  0.658-  66 1.02  42 1.03 158 1.31
 212  0.817  0.515  0.656-  67 1.02  43 1.03 157 1.32
 213  0.046  0.204  0.753-  92 1.02  84 1.02 161 1.31
 214  0.046  0.704  0.753-  93 1.02  85 1.02 162 1.31
 215  0.546  0.204  0.753-  94 1.02  86 1.02 159 1.31
 216  0.546  0.704  0.753-  95 1.02  87 1.02 160 1.31
 217  0.204  0.454  0.753-  96 1.02  88 1.02 164 1.31
 218  0.204  0.954  0.753-  97 1.02  89 1.02 163 1.31
 219  0.704  0.454  0.753-  98 1.02  90 1.02 166 1.31
 220  0.704  0.954  0.753-  99 1.02  91 1.02 165 1.31
 221  0.454  0.296  0.753-  76 1.02 100 1.02 159 1.31
 222  0.454  0.796  0.753-  77 1.02 101 1.02 160 1.31
 223  0.954  0.296  0.753-  78 1.02 102 1.02 161 1.31
 224  0.954  0.796  0.753-  79 1.02 103 1.02 162 1.31
 225  0.296  0.046  0.753-  80 1.02 104 1.02 163 1.31
 226  0.296  0.546  0.753-  81 1.02 105 1.02 164 1.31
 227  0.796  0.046  0.753-  82 1.02 106 1.02 165 1.31
 228  0.796  0.546  0.753-  83 1.02 107 1.02 166 1.31
 229  0.772  0.546  0.545- 174 1.52 173 1.52 175 1.52 176 1.53
 230  0.517  0.012  0.553- 304 3.28
 231  0.488  0.496  0.553- 305 3.19
 232  0.009  0.008  0.550- 302 3.37
 233  0.025  0.501  0.554- 303 3.14
 234  0.251  0.237  0.553- 306 3.22
 235  0.254  0.761  0.552- 307 3.17
 236  0.735  0.212  0.556- 308 3.17
 237  0.699  0.796  0.555- 309 3.24
 238  0.998  0.989  0.654- 302 3.13 310 3.21
 239  0.013  0.498  0.655- 311 3.10 303 3.20
 240  0.496  0.004  0.655- 304 3.10 312 3.11
 241  0.501  0.495  0.654- 313 3.15 305 3.16
 242  0.253  0.246  0.655- 314 3.13 306 3.16
 243  0.255  0.755  0.654- 315 3.16 307 3.21
 244  0.747  0.268  0.655- 316 3.12 308 3.14
 245  0.747  0.741  0.655- 317 3.15 309 3.16
 246  0.129  0.123  0.607- 306 3.21 302 3.22
 247  0.152  0.607  0.608- 307 3.20 303 3.24
 248  0.639  0.114  0.611- 308 3.17 304 3.20
 249  0.632  0.619  0.607- 305 3.20 309 3.21
 250  0.361  0.389  0.606- 306 3.19 305 3.22
 251  0.370  0.886  0.607- 304 3.20 307 3.23
 252  0.888  0.368  0.608- 303 3.26 308 3.33
 253  0.867  0.882  0.606- 309 3.19 302 3.22
 254  0.122  0.365  0.609- 306 3.19 303 3.28
 255  0.123  0.875  0.607- 307 3.21 302 3.26
 256  0.596  0.347  0.601- 305 3.22 308 3.24
 257  0.617  0.867  0.614- 309 3.11 304 3.21
 258  0.388  0.134  0.607- 304 3.19 306 3.19
 259  0.386  0.636  0.609- 307 3.25 305 3.26
 260  0.884  0.137  0.611- 302 3.19 308 3.25
 261  0.897  0.640  0.614- 303 3.21 309 3.52
 262  0.000  0.000  0.755- 310 3.13 318 3.27
 263  0.000  0.500  0.755- 311 3.13 319 3.27
 264  0.500  0.000  0.755- 312 3.13 320 3.27
 265  0.500  0.500  0.755- 313 3.13 321 3.27
 266  0.250  0.250  0.755- 314 3.13 322 3.27
 267  0.250  0.750  0.755- 315 3.13 323 3.27
 268  0.750  0.250  0.755- 316 3.13 324 3.27
 269  0.750  0.750  0.755- 317 3.13 325 3.27
 270  0.136  0.114  0.705- 310 3.20 314 3.20
 271  0.136  0.614  0.705- 311 3.20 315 3.20
 272  0.636  0.114  0.705- 312 3.20 316 3.20
 273  0.636  0.614  0.705- 313 3.20 317 3.20
 274  0.364  0.386  0.705- 313 3.20 314 3.20
 275  0.364  0.886  0.705- 312 3.20 315 3.20
 276  0.864  0.386  0.705- 311 3.20 316 3.20
 277  0.864  0.886  0.705- 310 3.20 317 3.20
 278  0.114  0.364  0.705- 314 3.21 311 3.21
 279  0.114  0.864  0.705- 315 3.21 310 3.21
 280  0.614  0.364  0.705- 316 3.21 313 3.21
 281  0.614  0.864  0.705- 317 3.21 312 3.21
 282  0.386  0.136  0.705- 314 3.21 312 3.21
 283  0.386  0.636  0.705- 315 3.21 313 3.21
 284  0.886  0.136  0.705- 316 3.21 310 3.21
 285  0.886  0.636  0.705- 317 3.21 311 3.21
 286  0.135  0.115  0.801- 318 3.22 322 3.22
 287  0.135  0.615  0.801- 319 3.22 323 3.22
 288  0.635  0.115  0.801- 320 3.22 324 3.22
 289  0.635  0.615  0.801- 321 3.22 325 3.22
 290  0.365  0.385  0.801- 321 3.22 322 3.22
 291  0.365  0.885  0.801- 320 3.22 323 3.22
 292  0.865  0.385  0.801- 319 3.22 324 3.22
 293  0.865  0.885  0.801- 318 3.22 325 3.22
 294  0.115  0.365  0.801- 319 3.23 322 3.23
 295  0.115  0.865  0.801- 318 3.23 323 3.23
 296  0.615  0.365  0.801- 321 3.23 324 3.23
 297  0.615  0.865  0.801- 320 3.23 325 3.23
 298  0.385  0.135  0.801- 320 3.23 322 3.23
 299  0.385  0.635  0.801- 321 3.23 323 3.23
 300  0.885  0.135  0.801- 318 3.23 324 3.23
 301  0.885  0.635  0.801- 319 3.23 325 3.23
 302  0.997  0.004  0.604- 238 3.13 260 3.19 246 3.22 253 3.22 255 3.26 232 3.37
 303  0.006  0.504  0.604- 233 3.14 239 3.20 261 3.21 247 3.24 252 3.26 254 3.28
 304  0.505  0.001  0.605- 240 3.10 258 3.19 248 3.20 251 3.20 257 3.21 230 3.28
 305  0.502  0.499  0.604- 241 3.16 231 3.19 249 3.20 250 3.22 256 3.22 259 3.26
 306  0.254  0.249  0.604- 242 3.16 250 3.19 254 3.19 258 3.19 246 3.21 234 3.22
 307  0.251  0.753  0.603- 235 3.17 247 3.20 243 3.21 255 3.21 251 3.23 259 3.25
 308  0.746  0.251  0.605- 244 3.14 248 3.17 236 3.17 256 3.24 260 3.25 252 3.33
 309  0.744  0.756  0.604- 257 3.11 245 3.16 253 3.19 249 3.21 237 3.24 261 3.52
 310  0.000  0.000  0.705- 262 3.13 270 3.20 277 3.20 238 3.21 279 3.21 284 3.21
 311  0.000  0.500  0.705- 239 3.10 263 3.13 271 3.20 276 3.20 278 3.21 285 3.21
 312  0.500  0.000  0.705- 240 3.11 264 3.13 272 3.20 275 3.20 281 3.21 282 3.21
 313  0.500  0.500  0.705- 265 3.13 241 3.15 273 3.20 274 3.20 280 3.21 283 3.21
 314  0.250  0.250  0.705- 266 3.13 242 3.13 270 3.20 274 3.20 282 3.21 278 3.21
 315  0.250  0.750  0.705- 267 3.13 243 3.16 271 3.20 275 3.20 283 3.21 279 3.21
 316  0.750  0.250  0.705- 244 3.12 268 3.13 272 3.20 276 3.20 284 3.21 280 3.21
 317  0.750  0.750  0.705- 269 3.13 245 3.15 273 3.20 277 3.20 285 3.21 281 3.21
 318  0.000  0.000  0.807- 286 3.22 293 3.22 300 3.23 295 3.23 262 3.27
 319  0.000  0.500  0.807- 287 3.22 292 3.22 301 3.23 294 3.23 263 3.27
 320  0.500  0.000  0.807- 288 3.22 291 3.22 298 3.23 297 3.23 264 3.27
 321  0.500  0.500  0.807- 289 3.22 290 3.22 299 3.23 296 3.23 265 3.27
 322  0.250  0.250  0.807- 290 3.22 286 3.22 294 3.23 298 3.23 266 3.27
 323  0.250  0.750  0.807- 291 3.22 287 3.22 299 3.23 295 3.23 267 3.27
 324  0.750  0.250  0.807- 292 3.22 288 3.22 296 3.23 300 3.23 268 3.27
 325  0.750  0.750  0.807- 293 3.22 289 3.22 297 3.23 301 3.23 269 3.27
 

IMPORTANT INFORMATION: All symmetrisations will be switched off!
NOSYMM: (Re-)initialisation of all symmetry stuff for point group C_1.


----------------------------------------------------------------------------------------

                                     Primitive cell                                     

  volume of cell :   20385.2105

  direct lattice vectors                    reciprocal lattice vectors
    18.060800552  0.000000000  0.000000000     0.055368531  0.000015077 -0.000000000
    -0.004918649 18.062799454  0.000000000     0.000000000  0.055362404  0.000000000
     0.000000000  0.000000000 62.487499237     0.000000000 -0.000000000  0.016003201

  length of vectors
    18.060800552 18.062800123 62.487499237     0.055368533  0.055362404  0.016003201

  position of ions in fractional coordinates (direct lattice)
     0.466604737  0.339196360  0.563598933
     0.438690997  0.824054876  0.574728417
     0.923683930  0.277446701  0.577476098
     0.935859695  0.818035833  0.572633455
     0.320740481  0.078788071  0.570445700
     0.347701157  0.542781345  0.556678054
     0.805988112  0.092134341  0.566090276
     0.108487157  0.250700626  0.556606689
     0.074797248  0.674622330  0.576706962
     0.549588704  0.155290623  0.560845208
     0.504225636  0.643831713  0.557021995
     0.375321059  0.015511175  0.556693987
     0.295586123  0.623463046  0.551550441
     0.876921861  0.032997861  0.556778538
     0.059202807  0.281911539  0.578685629
     0.986448652  0.697016687  0.585530199
     0.571869049  0.246980605  0.567349072
     0.448174986  0.686283336  0.575720132
     0.272137531  0.436788742  0.572252458
     0.187039218  0.058124661  0.572022981
     0.684978604  0.031867839  0.575057401
     0.382253965  0.299407694  0.555419440
     0.496599132  0.869389518  0.556723534
     0.881703110  0.237333646  0.555103764
     0.989478642  0.867700889  0.554429740
     0.176034431  0.446631554  0.569696038
     0.151565998  0.980343237  0.559334164
     0.680252927  0.936776163  0.568683141
     0.429268773  0.183494931  0.552004512
     0.544406463  0.758498028  0.542711820
     0.998061450  0.218224349  0.538138396
     0.083940471  0.778444683  0.554431450
     0.182417358  0.564495509  0.556539049
     0.270112775  0.940801275  0.548094855
     0.798936782  0.929665322  0.556763764
     0.444430669  0.300767261  0.672114778
     0.450549334  0.807406441  0.673637116
     0.944050519  0.282427979  0.674477982
     0.921130838  0.734342920  0.669012473
     0.300989023  0.052996780  0.672582889
     0.294693557  0.559473972  0.674054863
     0.804759091  0.054840667  0.674594705
     0.842962738  0.470021464  0.662583086
     0.087592223  0.169622163  0.648466371
     0.113138799  0.712083779  0.652993461
     0.579739037  0.170354032  0.649741345
     0.570451952  0.669047949  0.647880133
     0.185273413  0.411335947  0.648605742
     0.169129636  0.924126230  0.647493520
     0.642343852  0.473718043  0.655717333
     0.674611356  0.920343116  0.651316184
     0.052383110  0.185900276  0.673882404
     0.042879478  0.668139406  0.667288984
     0.547079252  0.200988685  0.674454174
     0.546207337  0.698231404  0.673434256
     0.202895973  0.447389729  0.673940644
     0.197378421  0.950871266  0.672964557
     0.713427849  0.415048866  0.663714233
     0.702648216  0.951843895  0.676305435
     0.419332679  0.324362396  0.646226299
     0.423796503  0.836027600  0.648133968
     0.923459116  0.319169663  0.649511807
     0.915499146  0.817297351  0.655142755
     0.328352463  0.079203596  0.646997266
     0.323893081  0.586357454  0.648605742
     0.829645078  0.079241980  0.648489264
     0.849857564  0.557477110  0.651154287
     0.011347213  0.252115023  0.631477622
     0.037639593  0.812110927  0.643370870
     0.502224238  0.245830988  0.630032814
     0.495352671  0.751770861  0.630371810
     0.247745519  0.001138650  0.629559391
     0.260139287  0.493943312  0.630984847
     0.751471856  0.997031547  0.632206588
     0.722984802  0.570498925  0.646456142
     0.448745018  0.301283966  0.768889017
     0.448745007  0.801283913  0.768889017
     0.948744965  0.301283966  0.768889017
     0.948745007  0.801283913  0.768889017
     0.301275995  0.051294496  0.768872961
     0.301276011  0.551294499  0.768872961
     0.801275943  0.051294496  0.768872961
     0.801275984  0.551294499  0.768872961
     0.078771004  0.171180501  0.743441971
     0.078771006  0.671180448  0.743441971
     0.578771004  0.171180501  0.743441971
     0.578770992  0.671180448  0.743441971
     0.171199499  0.421174482  0.743421032
     0.171199501  0.921174508  0.743421032
     0.671199512  0.421174482  0.743421032
     0.671199501  0.921174508  0.743421032
     0.051256000  0.198714991  0.768889017
     0.051256002  0.698714925  0.768889017
     0.551256027  0.198714991  0.768889017
     0.551256016  0.698714925  0.768889017
     0.198723491  0.448703970  0.768872046
     0.198723493  0.948703970  0.768872046
     0.698723518  0.448703970  0.768872046
     0.698723507  0.948703970  0.768872046
     0.421231519  0.328817467  0.743441971
     0.421231508  0.828817440  0.743441971
     0.921231466  0.328817467  0.743441971
     0.921231508  0.828817440  0.743441971
     0.328800503  0.078824997  0.743421032
     0.328800492  0.578824964  0.743421032
     0.828800477  0.078824997  0.743421032
     0.828800519  0.578824964  0.743421032
     0.000003500  0.250001478  0.725821992
     0.000003500  0.750001452  0.725821992
     0.500003506  0.250001478  0.725821992
     0.500003495  0.750001452  0.725821992
     0.250000502  0.000000000  0.725803983
     0.250000517  0.500000000  0.725803983
     0.750000502  0.000000000  0.725803983
     0.750000490  0.500000000  0.725803983
     0.720275460  0.443918175  0.539365021
     0.740753493  0.495585003  0.516258776
     0.662815332  0.552317402  0.556464693
     0.709325495  0.638433359  0.555151748
     0.852563229  0.508852591  0.567282348
     0.792704058  0.578595822  0.577079046
     0.877499906  0.559813461  0.530944635
     0.808079856  0.621007847  0.521127791
     0.873094253  0.460967292  0.517776718
     0.861978836  0.424880880  0.543709090
     0.872639654  0.325778246  0.518466737
     0.784006496  0.323730566  0.529968610
     0.638409732  0.551690113  0.518035559
     0.694143445  0.632515845  0.513882324
     0.611744092  0.637750738  0.528961329
     0.762113248  0.466240515  0.595371340
     0.754501631  0.412778063  0.571866883
     0.687155488  0.482293129  0.577940302
     0.818741575  0.691569812  0.557287184
     0.896929308  0.692314999  0.540316017
     0.897136963  0.633097570  0.562930952
     0.820238599  0.380925579  0.484772742
     0.786556295  0.292010710  0.491354777
     0.662201776  0.303246747  0.517987271
     0.732796368  0.461653398  0.470796252
     0.535127218  0.354534145  0.516743553
     0.604865754  0.512341252  0.468990624
     0.505906945  0.460769301  0.492510801
     0.995015759  0.241556248  0.554191167
     0.033152579  0.769271821  0.563684643
     0.466488090  0.227888137  0.557028038
     0.502586252  0.757286426  0.555392518
     0.234368052  0.534605568  0.559539161
     0.263696213  0.992740626  0.556977003
     0.778349059  0.983408919  0.562410890
     0.005570183  0.244827567  0.648658243
     0.015292330  0.767288317  0.653346070
     0.499746289  0.247632789  0.647441569
     0.496538708  0.752218005  0.647739175
     0.255667717  0.497988936  0.648364788
     0.248908361  0.001630544  0.647014360
     0.744711119  0.519046877  0.653191437
     0.752493374  0.999867435  0.649658931
     0.499988984  0.249994984  0.743277021
     0.499989025  0.749994958  0.743277021
     0.999988984  0.249994984  0.743277021
     0.999989025  0.749994958  0.743277021
     0.250000502  0.000001000  0.743255960
     0.250000517  0.500001003  0.743255960
     0.750000502  0.000001000  0.743255960
     0.750000491  0.500001003  0.743255960
     0.706799883  0.379135657  0.494666933
     0.649761778  0.349160633  0.507292444
     0.689314779  0.437683690  0.480832378
     0.578361559  0.377843724  0.506544125
     0.616932527  0.466393734  0.479909831
     0.561749233  0.437123929  0.492845096
     0.763271035  0.477158499  0.531516466
     0.698588299  0.586793035  0.546457321
     0.794395402  0.526610465  0.568004721
     0.831949122  0.596399154  0.535629410
     0.833530774  0.432081114  0.528267037
     0.819172691  0.355082713  0.518863362
     0.659898046  0.602358220  0.525437430
     0.746174433  0.468525125  0.578471048
     0.862042455  0.656351421  0.550314659
     0.785273266  0.350728672  0.496329222
     0.057775674  0.257634574  0.563814918
     0.030101894  0.709121458  0.575394993
     0.534707232  0.209748549  0.561618678
     0.482985380  0.692194462  0.562838038
     0.438096096  0.294774617  0.557965848
     0.475564156  0.820153337  0.562152599
     0.929552443  0.251197610  0.562902504
     0.979278729  0.818221152  0.562128607
     0.227699384  0.465764702  0.566333733
     0.196850996  0.011572771  0.563117086
     0.708752705  0.985303146  0.568650602
     0.323305600  0.032066942  0.561165402
     0.297247443  0.568259352  0.555469316
     0.823513359  0.040226299  0.562111330
     0.050269863  0.197049395  0.657849229
     0.059052635  0.711041921  0.657706073
     0.545072186  0.204080122  0.658121073
     0.539403879  0.703329444  0.657176793
     0.212887516  0.449143986  0.657805214
     0.202327314  0.956442235  0.656687803
     0.697881445  0.465907362  0.657953620
     0.707927596  0.954470940  0.659982285
     0.452154539  0.293513227  0.655981729
     0.454758281  0.801308887  0.657376539
     0.955105153  0.284867840  0.658500544
     0.946359510  0.773240308  0.659727840
     0.295450512  0.046697737  0.656286111
     0.293435754  0.550472914  0.657851061
     0.797284867  0.047907118  0.658390109
     0.816887216  0.514729292  0.655817512
     0.045862501  0.204119496  0.752725994
     0.045862500  0.704119456  0.752725994
     0.545862507  0.204119496  0.752725994
     0.545862496  0.704119456  0.752725994
     0.204119002  0.454101003  0.752704994
     0.204118991  0.954100951  0.752704994
     0.704118976  0.454101003  0.752704994
     0.704118964  0.954100951  0.752704994
     0.454140018  0.295888490  0.752726971
     0.454140007  0.795888516  0.752726971
     0.954140018  0.295888490  0.752726971
     0.954140060  0.795888516  0.752726971
     0.295882492  0.045900498  0.752704994
     0.295882481  0.545900528  0.752704994
     0.795882439  0.045900498  0.752704994
     0.795882481  0.545900528  0.752704994
     0.772227919  0.546291811  0.545169954
     0.516804396  0.011769435  0.553255067
     0.488392181  0.496300676  0.552958072
     0.009142432  0.007568049  0.550067540
     0.025383231  0.500533257  0.554343114
     0.250635178  0.236948302  0.552797517
     0.254207753  0.761393929  0.552332214
     0.735139852  0.212153155  0.555810449
     0.699296619  0.796435289  0.555291241
     0.998411452  0.988548480  0.653645019
     0.013249668  0.498010160  0.655399704
     0.495656751  0.003881693  0.655045446
     0.500671342  0.494799268  0.654394131
     0.252535181  0.246446319  0.654691982
     0.254558825  0.755408570  0.654334183
     0.747246403  0.268448494  0.655136223
     0.746795809  0.740686300  0.654517081
     0.129397645  0.122953851  0.607344804
     0.152452271  0.606963816  0.607730440
     0.639383234  0.113946326  0.611383637
     0.631902179  0.618616692  0.607094021
     0.361049495  0.389210013  0.605747072
     0.369501627  0.886246716  0.607162211
     0.888238330  0.368362233  0.607895634
     0.867212973  0.882407056  0.606015742
     0.121960459  0.364812696  0.608896994
     0.123360121  0.875365954  0.606858012
     0.595680037  0.347104162  0.601357217
     0.617012540  0.867027243  0.614468177
     0.387680710  0.133605590  0.607254759
     0.386069715  0.635833970  0.609471999
     0.884321006  0.137097630  0.611190300
     0.896504793  0.640055199  0.613524385
     0.000000000  0.000000000  0.754927972
     0.000000000  0.500000000  0.754927972
     0.500000000  0.000000000  0.754927972
     0.499999989  0.500000000  0.754927972
     0.250000496  0.250000000  0.754939022
     0.250000511  0.749999974  0.754939022
     0.750000470  0.250000000  0.754939022
     0.750000458  0.749999974  0.754939022
     0.135790500  0.114209997  0.704782994
     0.135790502  0.614209984  0.704782994
     0.635790447  0.114209997  0.704782994
     0.635790488  0.614209984  0.704782994
     0.364209516  0.385789989  0.704782994
     0.364209505  0.885789963  0.704782994
     0.864209542  0.385789989  0.704782994
     0.864209531  0.885789963  0.704782994
     0.114217990  0.364218986  0.704780979
     0.114217992  0.864218986  0.704780979
     0.614218004  0.364218986  0.704780979
     0.614217992  0.864218986  0.704780979
     0.385782012  0.135781489  0.704782017
     0.385782001  0.635781489  0.704782017
     0.885781985  0.135781489  0.704782017
     0.885782027  0.635781489  0.704782017
     0.134667000  0.115332001  0.801256025
     0.134666989  0.615331988  0.801256025
     0.634666987  0.115332001  0.801256025
     0.634666976  0.615331988  0.801256025
     0.365333002  0.384667985  0.801256025
     0.365332990  0.884667959  0.801256025
     0.865332949  0.384667985  0.801256025
     0.865332938  0.884667959  0.801256025
     0.115328503  0.365337004  0.801264999
     0.115328505  0.865336978  0.801264999
     0.615328503  0.365337004  0.801264999
     0.615328492  0.865336978  0.801264999
     0.384671513  0.134662996  0.801264999
     0.384671501  0.634662970  0.801264999
     0.884671486  0.134662996  0.801264999
     0.884671528  0.634662970  0.801264999
     0.997464146  0.003947033  0.603813824
     0.006454341  0.503871972  0.604224124
     0.504524526  0.001166595  0.605462470
     0.501805730  0.498709149  0.603859183
     0.254068229  0.248978206  0.604167105
     0.251332180  0.752772223  0.603002566
     0.746483436  0.251160757  0.605196486
     0.743759909  0.756150220  0.604121076
     0.000000500  0.000000500  0.704828963
     0.000000500  0.500000475  0.704828963
     0.500000475  0.000000500  0.704828963
     0.500000464  0.500000475  0.704828963
     0.249999994  0.249999472  0.704824995
     0.250000010  0.749999498  0.704824995
     0.749999994  0.249999472  0.704824995
     0.749999983  0.749999498  0.704824995
     0.000000000  0.000000000  0.807317968
     0.000000000  0.500000000  0.807317968
     0.500000000  0.000000000  0.807317968
     0.499999989  0.500000000  0.807317968
     0.249999994  0.250000000  0.807317968
     0.250000010  0.749999974  0.807317968
     0.749999994  0.250000000  0.807317968
     0.749999983  0.749999974  0.807317968

  ion indices of the primitive-cell ions
   primitive index   ion index
                 1           1
                 2           2
                 3           3
                 4           4
                 5           5
                 6           6
                 7           7
                 8           8
                 9           9
                10          10
                11          11
                12          12
                13          13
                14          14
                15          15
                16          16
                17          17
                18          18
                19          19
                20          20
                21          21
                22          22
                23          23
                24          24
                25          25
                26          26
                27          27
                28          28
                29          29
                30          30
                31          31
                32          32
                33          33
                34          34
                35          35
                36          36
                37          37
                38          38
                39          39
                40          40
                41          41
                42          42
                43          43
                44          44
                45          45
                46          46
                47          47
                48          48
                49          49
                50          50
                51          51
                52          52
                53          53
                54          54
                55          55
                56          56
                57          57
                58          58
                59          59
                60          60
                61          61
                62          62
                63          63
                64          64
                65          65
                66          66
                67          67
                68          68
                69          69
                70          70
                71          71
                72          72
                73          73
                74          74
                75          75
                76          76
                77          77
                78          78
                79          79
                80          80
                81          81
                82          82
                83          83
                84          84
                85          85
                86          86
                87          87
                88          88
                89          89
                90          90
                91          91
                92          92
                93          93
                94          94
                95          95
                96          96
                97          97
                98          98
                99          99
               100         100
               101         101
               102         102
               103         103
               104         104
               105         105
               106         106
               107         107
               108         108
               109         109
               110         110
               111         111
               112         112
               113         113
               114         114
               115         115
               116         116
               117         117
               118         118
               119         119
               120         120
               121         121
               122         122
               123         123
               124         124
               125         125
               126         126
               127         127
               128         128
               129         129
               130         130
               131         131
               132         132
               133         133
               134         134
               135         135
               136         136
               137         137
               138         138
               139         139
               140         140
               141         141
               142         142
               143         143
               144         144
               145         145
               146         146
               147         147
               148         148
               149         149
               150         150
               151         151
               152         152
               153         153
               154         154
               155         155
               156         156
               157         157
               158         158
               159         159
               160         160
               161         161
               162         162
               163         163
               164         164
               165         165
               166         166
               167         167
               168         168
               169         169
               170         170
               171         171
               172         172
               173         173
               174         174
               175         175
               176         176
               177         177
               178         178
               179         179
               180         180
               181         181
               182         182
               183         183
               184         184
               185         185
               186         186
               187         187
               188         188
               189         189
               190         190
               191         191
               192         192
               193         193
               194         194
               195         195
               196         196
               197         197
               198         198
               199         199
               200         200
               201         201
               202         202
               203         203
               204         204
               205         205
               206         206
               207         207
               208         208
               209         209
               210         210
               211         211
               212         212
               213         213
               214         214
               215         215
               216         216
               217         217
               218         218
               219         219
               220         220
               221         221
               222         222
               223         223
               224         224
               225         225
               226         226
               227         227
               228         228
               229         229
               230         230
               231         231
               232         232
               233         233
               234         234
               235         235
               236         236
               237         237
               238         238
               239         239
               240         240
               241         241
               242         242
               243         243
               244         244
               245         245
               246         246
               247         247
               248         248
               249         249
               250         250
               251         251
               252         252
               253         253
               254         254
               255         255
               256         256
               257         257
               258         258
               259         259
               260         260
               261         261
               262         262
               263         263
               264         264
               265         265
               266         266
               267         267
               268         268
               269         269
               270         270
               271         271
               272         272
               273         273
               274         274
               275         275
               276         276
               277         277
               278         278
               279         279
               280         280
               281         281
               282         282
               283         283
               284         284
               285         285
               286         286
               287         287
               288         288
               289         289
               290         290
               291         291
               292         292
               293         293
               294         294
               295         295
               296         296
               297         297
               298         298
               299         299
               300         300
               301         301
               302         302
               303         303
               304         304
               305         305
               306         306
               307         307
               308         308
               309         309
               310         310
               311         311
               312         312
               313         313
               314         314
               315         315
               316         316
               317         317
               318         318
               319         319
               320         320
               321         321
               322         322
               323         323
               324         324
               325         325

----------------------------------------------------------------------------------------

 
 
 KPOINTS: Automatic Mesh                          

Automatic generation of k-mesh.
 Grid dimensions read from file:
 generate k-points for:    3    3    1

 Generating k-lattice:

  Cartesian coordinates                     Fractional coordinates (reciprocal lattice)
     0.018456177  0.000005026 -0.000000000     0.333333333  0.000000000  0.000000000
     0.000000000  0.018454135  0.000000000     0.000000000  0.333333333  0.000000000
     0.000000000 -0.000000000  0.016003201     0.000000000  0.000000000  1.000000000

  Length of vectors
     0.018456178  0.018454135  0.016003201

  Shift w.r.t. Gamma in fractional coordinates (k-lattice)
     0.000000000  0.000000000  0.000000000

 
 Subroutine IBZKPT returns following result:
 ===========================================
 
 Found      5 irreducible k-points:
 
 Following reciprocal coordinates:
            Coordinates               Weight
  0.000000  0.000000  0.000000      1.000000
  0.333333  0.000000  0.000000      2.000000
  0.000000  0.333333  0.000000      2.000000
  0.333333  0.333333  0.000000      2.000000
 -0.333333  0.333333  0.000000      2.000000
 
 Following cartesian coordinates:
            Coordinates               Weight
  0.000000  0.000000  0.000000      1.000000
  0.018456  0.000005  0.000000      2.000000
  0.000000  0.018454  0.000000      2.000000
  0.018456  0.018459  0.000000      2.000000
 -0.018456  0.018449  0.000000      2.000000
 


--------------------------------------------------------------------------------------------------------




 Dimension of arrays:
   k-points           NKPTS =      5   k-points in BZ     NKDIM =      5   number of bands    NBANDS=    732
   number of dos      NEDOS =    301   number of ions     NIONS =    325
   non local maximal  LDIM  =      5   non local SUM 2l+1 LMDIM =     13
   total plane-waves  NPLWV = ******
   max r-space proj   IRMAX =   3336   max aug-charges    IRDMAX=  19845
   dimension x,y,z NGX =   100 NGY =  100 NGZ =  350
   dimension x,y,z NGXF=   200 NGYF=  200 NGZF=  700
   support grid    NGXF=   200 NGYF=  200 NGZF=  700
   ions per type =             143  39  47  72  24
   NGX,Y,Z   is equivalent  to a cutoff of   9.20,  9.20,  9.31 a.u.
   NGXF,Y,Z  is equivalent  to a cutoff of  18.41, 18.41, 18.62 a.u.

 SYSTEM =  PSC                                     
 POSCAR =   H  C  N  I Pb                          

 Startparameter for this run:
   NWRITE =      2    write-flag & timer
   PREC   = normal    normal or accurate (medium, high low for compatibility)
   ISTART =      0    job   : 0-new  1-cont  2-samecut
   ICHARG =      1    charge: 1-file 2-atom 10-const
   ISPIN  =      1    spin polarized calculation?
   LNONCOLLINEAR =      F non collinear calculations
   LSORBIT =      F    spin-orbit coupling
   INIWAV =      1    electr: 0-lowe 1-rand  2-diag
   LASPH  =      F    aspherical Exc in radial PAW
 Electronic Relaxation 1
   ENCUT  =  500.0 eV  36.75 Ry    6.06 a.u.  32.93 32.93113.93*2*pi/ulx,y,z
   ENINI  =  500.0     initial cutoff
   ENAUG  =  644.9 eV  augmentation charge cutoff
   NELM   =    600;   NELMIN=  2; NELMDL=  0     # of ELM steps 
   EDIFF  = 0.1E-03   stopping-criterion for ELM
   LREAL  =      T    real-space projection
   NLSPLINE    = F    spline interpolate recip. space projectors
   LCOMPAT=      F    compatible to vasp.4.4
   GGA_COMPAT  = F    GGA compatible to vasp.4.4-vasp.4.6
   LMAXPAW     = -100 max onsite density
   LMAXMIX     =    2 max onsite mixed and CHGCAR
   VOSKOWN=      0    Vosko Wilk Nusair interpolation
   ROPT   =   -0.00050  -0.00050  -0.00050  -0.00050
   ROPT   =   -0.00050
 Ionic relaxation
   EDIFFG = 0.1E-02   stopping-criterion for IOM
   NSW    =      0    number of steps for IOM
   NBLOCK =      1;   KBLOCK =      1    inner block; outer block 
   IBRION =     -1    ionic relax: 0-MD 1-quasi-New 2-CG
   NFREE  =      0    steps in history (QN), initial steepest desc. (CG)
   ISIF   =      2    stress and relaxation
   IWAVPR =     10    prediction:  0-non 1-charg 2-wave 3-comb
   ISYM   =      0    0-nonsym 1-usesym 2-fastsym
   LCORR  =      T    Harris-Foulkes like correction to forces

   POTIM  = 0.5000    time-step for ionic-motion
   TEIN   =    0.0    initial temperature
   TEBEG  =    0.0;   TEEND  =   0.0 temperature during run
   SMASS  =  -3.00    Nose mass-parameter (am)
   estimated Nose-frequenzy (Omega)   =  0.10E-29 period in steps = 0.13E+47 mass=  -0.745E-26a.u.
   SCALEE = 1.0000    scale energy and forces
   NPACO  =    256;   APACO  = 16.0  distance and # of slots for P.C.
   PSTRESS=    0.0 pullay stress

  Mass of Ions in am
   POMASS =   1.00 12.01 14.00126.90207.20
  Ionic Valenz
   ZVAL   =   1.00  4.00  5.00  7.00  4.00
  Atomic Wigner-Seitz radii
   RWIGS  =  -1.00 -1.00 -1.00 -1.00 -1.00
  virtual crystal weights 
   VCA    =   1.00  1.00  1.00  1.00  1.00
   NELECT =    1134.0000    total number of electrons
   NUPDOWN=      -1.0000    fix difference up-down

 DOS related values:
   EMIN   =  10.00;   EMAX   =-10.00  energy-range for DOS
   EFERMI =   0.00
   ISMEAR =     0;   SIGMA  =   0.05  broadening in eV -4-tet -1-fermi 0-gaus

 Electronic relaxation 2 (details)
   IALGO  =     38    algorithm
   LDIAG  =      T    sub-space diagonalisation (order eigenvalues)
   LSUBROT=      F    optimize rotation matrix (better conditioning)
   TURBO    =      0    0=normal 1=particle mesh
   IRESTART =      0    0=no restart 2=restart with 2 vectors
   NREBOOT  =      0    no. of reboots
   NMIN     =      0    reboot dimension
   EREF     =   0.00    reference energy to select bands
   IMIX   =      4    mixing-type and parameters
     AMIX     =   0.40;   BMIX     =  0.01
     AMIX_MAG =   1.60;   BMIX_MAG =  0.01
     AMIN     =   0.01
     WC   =   100.;   INIMIX=   1;  MIXPRE=   1;  MAXMIX= -45

 Intra band minimization:
   WEIMIN = 0.0000     energy-eigenvalue tresh-hold
   EBREAK =  0.34E-07  absolut break condition
   DEPER  =   0.30     relativ break condition  

   TIME   =   0.40     timestep for ELM

  volume/ion in A,a.u.               =      62.72       423.28
  Fermi-wavevector in a.u.,A,eV,Ry     =   0.624944  1.180972  5.313816  0.390554
  Thomas-Fermi vector in A             =   1.685677
 
 Write flags
   LWAVE        =      F    write WAVECAR
   LDOWNSAMPLE  =      F    k-point downsampling of WAVECAR
   LCHARG       =      T    write CHGCAR
   LVTOT        =      T    write LOCPOT, total local potential
   LVHAR        =      F    write LOCPOT, Hartree potential only
   LELF         =      F    write electronic localiz. function (ELF)
   LORBIT       =      0    0 simple, 1 ext, 2 COOP (PROOUT), +10 PAW based schemes


 Dipole corrections
   LMONO  =      F    monopole corrections only (constant potential shift)
   LDIPOL =      T    correct potential (dipole corrections)
   IDIPOL =      3    1-x, 2-y, 3-z, 4-all directions 
   EPSILON=  1.0000000 bulk dielectric constant

 Exchange correlation treatment:
   GGA     =    --    GGA type
   LEXCH   =     8    internal setting for exchange type
   VOSKOWN=      0    Vosko Wilk Nusair interpolation
   LHFCALC =     F    Hartree Fock is set to
   LHFONE  =     F    Hartree Fock one center treatment
   AEXX    =    0.0000 exact exchange contribution

 Linear response parameters
   LEPSILON=     F    determine dielectric tensor
   LRPA    =     F    only Hartree local field effects (RPA)
   LNABLA  =     F    use nabla operator in PAW spheres
   LVEL    =     F    velocity operator in full k-point grid
   LINTERFAST=   F  fast interpolation
   KINTER  =     0    interpolate to denser k-point grid
   CSHIFT  =0.1000    complex shift for real part using Kramers Kronig
   OMEGAMAX=  -1.0    maximum frequency
   DEG_THRESHOLD= 0.2000000E-02 threshold for treating states as degnerate
   RTIME   =   -0.100 relaxation time in fs
  (WPLASMAI=    0.000 imaginary part of plasma frequency in eV, 0.658/RTIME)
   DFIELD  = 0.0000000 0.0000000 0.0000000 field for delta impulse in time
 
 Orbital magnetization related:
   ORBITALMAG=     F  switch on orbital magnetization
   LCHIMAG   =     F  perturbation theory with respect to B field
   DQ        =  0.001000  dq finite difference perturbation B field
   LLRAUG    =     F  two centre corrections for induced B field



--------------------------------------------------------------------------------------------------------


 Static calculation
 charge density and potential will be updated during run
 non-spin polarized calculation
 Variant of blocked Davidson
 Davidson routine will perform the subspace rotation
 perform sub-space diagonalisation
    after iterative eigenvector-optimisation
 modified Broyden-mixing scheme, WC =      100.0
 initial mixing is a Kerker type mixing with AMIX =  0.4000 and BMIX =      0.0100
 Hartree-type preconditioning will be used
 using additional bands           165
 real space projection scheme for non local part
[...]
     13.54561      0.00000     45.35368         0.003943     -0.008267      0.013885
     13.54315      9.03140     45.35368        -0.006835      0.001171     -0.012529
     13.00657      8.01840     33.70357        -0.020673      0.027932     -0.024850
     13.37616      8.95165     32.25972        -0.033270      0.076457     -0.127767
     11.96826      9.97640     34.77209        -0.063811      0.015709      0.013875
     12.80785     11.53189     34.69004         0.043855      0.004393      0.001218
     15.39547      9.19130     35.44806        -0.017067      0.009496      0.030880
     14.31402     10.45106     36.06023        -0.038137     -0.055904     -0.022758
     15.84560     10.11180     33.17740         0.001758      0.015427      0.021951
     14.59151     11.21714     32.56397        -0.059109     -0.101311      0.001193
     15.76651      8.32636     32.35457        -0.056518      0.067417      0.036583
     15.56594      7.67454     33.97502         0.048370     -0.043231     -0.047710
     15.75897      5.88447     32.39769         0.014617      0.009415      0.022232
     14.15819      5.84748     33.11641        -0.011926     -0.033239      0.013833
     11.52748      9.96507     32.37075        -0.023356      0.049709     -0.060503
     12.53368     11.42501     32.11122         0.050457      0.053500     -0.031680
     11.04545     11.51956     33.05347         0.127546     -0.053875      0.001778
     13.76208      8.42161     37.20327        -0.044393     -0.007529      0.025003
     13.62487      7.45593     35.73453        -0.014734      0.050908     -0.009645
     12.40821      8.71156     36.11404         0.000312     -0.070228      0.037923
     14.78373     12.49169     34.82348         0.017163     -0.015154     -0.045017
     16.19586     12.50515     33.76300        -0.010986      0.004855      0.039681
     16.19990     11.43551     35.17615        -0.035034      0.008039      0.008765
     14.81229      6.88058     30.29224         0.001183     -0.014000      0.043631
     14.20440      5.27453     30.70353        -0.005922      0.079135      0.027996
     11.95840      5.47749     32.36773         0.008057     -0.106303      0.108234
     13.23262      8.33875     29.41888        -0.045391     -0.021833      0.015526
      9.66308      6.40388     32.29001         0.035653      0.029922     -0.028587
     10.92184      9.25432     29.30605         0.007791     -0.119219      0.113634
      9.13482      8.32278     30.77577         0.132016     -0.115065      0.018005
     17.96959      4.36318     34.63002         0.281924      0.009836      0.204405
      0.59498     13.89520     35.22324         0.046038     -0.065566      0.061179
      8.42403      4.11630     34.80729        -0.265056     -0.044072      0.079364
      9.07339     13.67871     34.70509         0.141569     -0.365219     -0.178862
      4.23025      9.65647     34.96420        -0.198646     -0.210950     -0.027868
      4.75768     17.93167     34.80410         0.174340     -0.024113      0.054598
     14.05277     17.76312     35.14365        -0.113338     -0.081252     -0.046098
      0.09940      4.42227     40.53303        -0.017738     -0.077246      0.476592
      0.27242     13.85937     40.82596         0.189965     -0.034872     -0.097849
      9.02460      4.47294     40.45700         0.276918     -0.234624      0.177652
      8.96419     13.58716     40.47560         0.073020     -0.057630      0.260703
      4.61511      8.99507     40.51469        -0.163816     -0.146927     -0.043700
      4.49548      0.02945     40.43031        -0.468432     -0.413586      0.039442
     13.44753      9.37544     40.81630         0.143226     -0.261697      0.102678
     13.58571     18.06040     40.59556        -0.421775     -0.386767      0.117604
      9.02897      4.51561     46.44552         0.007989      0.007811      0.021555
      9.02651     13.54701     46.44552         0.020767     -0.005437      0.037140
     18.05937      4.51561     46.44552         0.015809      0.005004      0.034004
     18.05691     13.54701     46.44552         0.017371      0.000772     -0.000272
      4.51521      0.00002     46.44421        -0.003247     -0.006266      0.047272
      4.51275      9.03142     46.44421        -0.006725     -0.006936      0.038688
     13.54561      0.00002     46.44421        -0.014288     -0.016390      0.034068
     13.54315      9.03142     46.44421        -0.011664     -0.006695      0.011306
     12.76351      6.84825     30.91050        -0.066511      0.113217     -0.112760
     11.73350      6.30682     31.69944         0.138511     -0.036056     -0.063164
     12.44742      7.90579     30.04601        -0.241982      0.052182      0.030099
     10.44381      6.82492     31.65268        -0.180314      0.115372     -0.066027
     11.14000      8.42438     29.98837         0.497122      0.116881     -0.274545
     10.14349      7.89568     30.79666        -0.303102     -0.079017      0.215842
     13.78294      8.61882     33.21313         0.042692      0.091457      0.052791
     12.61418     10.59912     34.14675        -0.079184      0.028298      0.000269
     14.34483      9.51206     35.49319         0.088087     -0.106458     -0.012914
     15.02273     10.77264     33.47014        -0.038126      0.050825     -0.045385
     15.05211      7.80459     33.01009         0.159621     -0.031631     -0.026599
     14.79317      6.41379     32.42247        -0.046696     -0.058591     -0.011566
     11.91532     10.88028     32.83327        -0.091161     -0.056375     -0.026103
     13.47420      8.46288     36.14721         0.033240      0.022895     -0.035627
     15.56595     11.85554     34.38779        -0.030883     -0.057331     -0.123909
     14.18094      6.33514     31.01437         0.013013      0.010906     -0.075732
      1.04221      4.65360     35.23138        -0.184456      0.107899     -0.091867
      0.54018     12.80872     35.95499        -0.097893     -0.006562      0.020576
      9.65621      3.78865     35.09415        -0.008356     -0.117743     -0.129587
      8.71970     12.50297     35.17034        -0.032032      0.011078      0.020553
      7.91092      5.32445     34.86589        -0.022411     -0.237122     -0.084050
      8.58504     14.81427     35.12751        -0.136679      0.303430      0.220352
     16.78723      4.53733     35.17437         0.063273      0.159599     -0.096456
     17.68253     14.77936     35.12601         0.237034     -0.006381     -0.217532
      4.11014      8.41301     35.38878         0.342650      0.250538     -0.081856
      3.55523      0.20904     35.18778         0.109233     -0.077611     -0.108134
     12.79579     17.79733     35.53355         0.359342      0.384800      0.045643
      5.83900      0.57922     35.06582        -0.287739      0.047623     -0.035632
      5.36573     10.26435     34.70989        -0.181123      0.048296     -0.063676
     14.87311      0.72660     35.12493        -0.013287     -0.246280     -0.141545
      0.90694      3.55926     41.10735         0.024941      0.007605     -0.148516
      1.06304     12.84341     41.09841        -0.360163      0.104817      0.079285
      9.84344      3.68626     41.12434        -0.174752      0.174300     -0.039315
      9.73861     12.70410     41.06533         0.039207     -0.009874      0.255955
      3.84271      8.11280     41.10460        -0.073981     -0.057008      0.129763
      3.64949     17.27602     41.03478         0.326151      0.295080      0.232689
     12.60201      8.41559     41.11388         0.081429      0.010559     -0.022184
     12.78104     17.24042     41.24064         0.203273      0.220816      0.161376
      8.16483      5.30167     40.99066        -0.210498      0.186489      0.307039
      8.20936     14.47388     41.07782        -0.045448      0.036442      0.108017
     17.24856      5.14551     41.14805         0.243205     -0.206647     -0.023252
     17.08821     13.96688     41.22474         0.081856     -0.014517     -0.009903
      5.33584      0.84349     41.00968         0.176878      0.192223      0.528047
      5.29698      9.94308     41.10747         0.305029      0.378883      0.059850
     14.39937      0.86534     41.14115         0.288343      0.273059      0.321883
     14.75111      9.29745     40.98040         0.008846     -0.165716      0.100084
      0.82731      3.68697     47.03596         0.017491     -0.027506     -0.089677
      0.82485     12.71837     47.03596         0.023468     -0.023901     -0.067327
      9.85771      3.68697     47.03596         0.024686     -0.030336     -0.078479
      9.85525     12.71837     47.03596         0.013470     -0.016625     -0.076993
      3.68432      8.20234     47.03465        -0.006302     -0.010025     -0.063742
      3.68186     17.23373     47.03465        -0.010309     -0.005357     -0.063708
     12.71472      8.20234     47.03465        -0.005644     -0.011039     -0.053166
     12.71226     17.23373     47.03465        -0.007998     -0.002514     -0.074162
      8.20068      5.34457     47.03603        -0.022209      0.015926     -0.080978
      8.19822     14.37597     47.03603        -0.025505      0.024043     -0.082280
     17.23108      5.34457     47.03603        -0.028404      0.018497     -0.100983
     17.22862     14.37597     47.03603        -0.022750      0.026382     -0.065884
      5.34365      0.82909     47.03465         0.012282      0.013751     -0.066898
      5.34119      9.86049     47.03465         0.017767      0.015105     -0.063311
     14.37405      0.82909     47.03465         0.023498      0.025257     -0.070869
     14.37159      9.86049     47.03465         0.023263      0.021447     -0.065312
     13.94437      9.86756     34.06631         0.153930      0.125237      0.035751
      9.33384      0.21259     34.57153         0.000813      0.008616     -0.014614
      8.81831      8.96458     34.55297        -0.000488      0.013921      0.002253
      0.16508      0.13670     34.37234         0.011872      0.006386      0.013312
      0.45598      9.04103     34.63951        -0.027850     -0.006493      0.039072
      4.52551      4.27995     34.54293         0.017210     -0.020586      0.015729
      4.58745     13.75291     34.51386        -0.028082      0.040081      0.014280
     13.27617      3.83208     34.73120        -0.019177     -0.006123      0.004443
     12.62594     14.38585     34.69876         0.043406     -0.034868     -0.003694
     18.02725     17.85595     40.84464        -0.014253     -0.024584      0.030869
      0.23685      8.99546     40.95429         0.010926      0.003699     -0.023986
      8.95194      0.07011     40.93215         0.000083     -0.001735      0.005471
      9.04009      8.93746     40.89145        -0.000556      0.012081     -0.028160
      4.55978      4.45151     40.91006         0.014050      0.001594     -0.026394
      4.59382     13.64479     40.88771        -0.035356     -0.019495     -0.016910
     13.49455      4.84893     40.93782         0.002416     -0.007165     -0.000942
     13.48409     13.37887     40.89914         0.017444     -0.002868      0.021594
      2.33642      2.22089     37.95146         0.016042     -0.027008     -0.006277
      2.75042     10.96347     37.97556        -0.036657     -0.000513     -0.006896
     11.54721      2.05819     38.20383         0.002699      0.011066      0.003679
     11.40962     11.17395     37.93579        -0.049003     -0.009845      0.005313
      6.51893      7.03022     37.85162         0.028955     -0.001515     -0.014612
      6.66914     16.00810     37.94005         0.011279     -0.028583     -0.009180
     16.04048      6.65365     37.98588         0.034283     -0.028659     -0.001362
     15.65822     15.93874     37.86841         0.002712     -0.007463      0.013702
      2.20091      6.58954     38.04845         0.002576      0.015908     -0.010575
      2.22368     15.81156     37.92104        -0.001140     -0.009295     -0.037296
     10.75675      6.26967     37.57731         0.030696      0.027688     -0.022217
     11.13948     15.66094     38.39658        -0.027172      0.011773     -0.026002
      7.00117      2.41329     37.94583        -0.012467      0.035233     -0.015703
      6.96960     11.48494     38.08438        -0.007158     -0.025631     -0.020750
     15.97087      2.47637     38.19175        -0.044162     -0.041332      0.009854
     16.18845     11.56119     38.33760        -0.063929      0.016646     -0.159570
      0.00000      0.00000     47.17356        -0.001459      0.006337      0.331296
     -0.00246      9.03140     47.17356        -0.003038     -0.003180      0.477913
      9.03040      0.00000     47.17356         0.001381      0.001026      0.417614
      9.02794      9.03140     47.17356        -0.003480     -0.000194      0.400612
      4.51398      4.51570     47.17425        -0.001241     -0.005100      0.422592
      4.51152     13.54710     47.17425         0.003092      0.000823      0.414525
     13.54438      4.51570     47.17425         0.007076     -0.001275      0.405961
     13.54192     13.54710     47.17425        -0.001668     -0.001887      0.408420
      2.45192      2.06295     44.04013        -0.008319     -0.033733     -0.035005
      2.44946     11.09435     44.04013         0.049907     -0.026605     -0.025838
     11.48232      2.06295     44.04013         0.028021      0.010286     -0.063687
     11.47986     11.09435     44.04013        -0.082623      0.039980     -0.040645
      6.57602      6.96845     44.04013         0.011218     -0.035408     -0.077465
      6.57356     15.99985     44.04013         0.021103      0.012660     -0.034209
     15.60642      6.96845     44.04013         0.016497     -0.026441     -0.090860
     15.60396     15.99985     44.04013        -0.037357      0.045731     -0.040836
      2.06108      6.57881     44.04000         0.043409     -0.022113     -0.027753
      2.05862     15.61021     44.04000         0.043601      0.071235     -0.037527
     11.09148      6.57881     44.04000        -0.026558     -0.039978     -0.006738
     11.08902     15.61021     44.04000        -0.029089     -0.001178     -0.035773
      6.96686      2.45259     44.04007        -0.015935     -0.016347     -0.055085
      6.96440     11.48399     44.04007        -0.005972      0.004492     -0.058381
     15.99726      2.45259     44.04007         0.023313      0.022843     -0.078155
     15.99481     11.48399     44.04007         0.037151      0.029497     -0.112593
      2.43163      2.08322     50.06849         0.002368     -0.017421      0.020970
      2.42917     11.11462     50.06849         0.015294     -0.006581      0.024373
     11.46203      2.08322     50.06849         0.012275     -0.009869      0.022090
     11.45957     11.11462     50.06849         0.009734     -0.010718      0.023883
      6.59631      6.94818     50.06849        -0.011710      0.008393      0.023397
      6.59385     15.97958     50.06849        -0.008128      0.012676      0.022578
     15.62671      6.94818     50.06849        -0.016251      0.001183      0.021274
     15.62425     15.97958     50.06849        -0.004045      0.019207      0.024215
      2.08113      6.59901     50.06905        -0.005500     -0.017248      0.022891
      2.07867     15.63041     50.06905        -0.017886     -0.001057      0.023074
     11.11153      6.59901     50.06905        -0.007894     -0.013979      0.024058
     11.10907     15.63041     50.06905        -0.011038     -0.008565      0.022651
      6.94681      2.43239     50.06905         0.010935      0.007912      0.022546
      6.94435     11.46379     50.06905         0.010181      0.010028      0.023921
     15.97721      2.43239     50.06905         0.015767      0.004539      0.021204
     15.97475     11.46379     50.06905         0.004664      0.014297      0.024329
     18.01498      0.07129     37.73082         0.019999      0.001835     -0.003076
      0.11409      9.10134     37.75645        -0.001362      0.002112      0.010175
      9.11211      0.02107     37.83384         0.008691     -0.010147     -0.030823
      9.06056      9.00808     37.73365         0.004895     -0.010947     -0.059172
      4.58745      4.49724     37.75289        -0.047352      0.020268      0.002370
      4.53556     13.59717     37.68012        -0.028202      0.011580      0.001892
     13.48085      4.53667     37.81721         0.000217      0.014864     -0.018042
     13.42918     13.65819     37.75002        -0.025140      0.005100     -0.072399
      0.00001      0.00001     44.04300        -0.003254     -0.144853      0.069843
     -0.00245      9.03141     44.04300         0.054215      0.015029      0.161387
      9.03041      0.00001     44.04300        -0.009054     -0.012832      0.175762
      9.02795      9.03141     44.04300         0.064556     -0.016764      0.172822
      4.51397      4.51569     44.04275         0.000136      0.052515      0.119352
      4.51151     13.54709     44.04275        -0.054885      0.009038      0.102479
     13.54437      4.51569     44.04275        -0.113359      0.040139      0.216873
     13.54191     13.54709     44.04275        -0.000250     -0.006030      0.129455
      0.00000      0.00000     50.44728         0.000861     -0.005047     -0.608984
     -0.00246      9.03140     50.44728         0.001535      0.003790     -0.649175
      9.03040      0.00000     50.44728        -0.002115     -0.002209     -0.631780
      9.02794      9.03140     50.44728        -0.000786      0.001799     -0.631704
      4.51397      4.51570     50.44728         0.001760      0.008904     -0.634060
      4.51151     13.54710     50.44728         0.000737     -0.010007     -0.634790
     13.54437      4.51570     50.44728        -0.003224      0.009362     -0.628092
     13.54191     13.54710     50.44728         0.000475     -0.010017     -0.634137
 -----------------------------------------------------------------------------------
    total drift:                                0.029633      0.133960      0.267718


--------------------------------------------------------------------------------------------------------



  FREE ENERGIE OF THE ION-ELECTRON SYSTEM (eV)
  ---------------------------------------------------
  free  energy   TOTEN  =     -1576.12918424 eV

  energy  without entropy=    -1576.12918424  energy(sigma->0) =    -1576.12918424
 


--------------------------------------------------------------------------------------------------------


    POTLOK:  cpu time    0.5022: real time    0.5022


--------------------------------------------------------------------------------------------------------


     LOOP+:  cpu time  267.0719: real time  267.6333
 vacuum level on the upper side and lower side of the slab         2.330         1.515
    4ORBIT:  cpu time    0.0000: real time    0.0000

 total amount of memory used by VASP MPI-rank0  8653588. kBytes
=======================================================================

   base      :      30000. kBytes
   nonlr-proj:      53626. kBytes
   fftplans  :     249280. kBytes
   grid      :     701440. kBytes
   one-center:       2636. kBytes
   wavefun   :    7616606. kBytes
 
  
  
 General timing and accounting informations for this job:
 ========================================================
  
                  Total CPU time used (sec):      484.769
                            User time (sec):      396.869
                          System time (sec):       87.900
                         Elapsed time (sec):      488.265
  
                   Maximum memory used (kb):    10300436.
                   Average memory used (kb):          N/A
  
                          Minor page faults:      3576170
                          Major page faults:           12
                 Voluntary context switches:        10679
