<?xml version="1.0" encoding="ISO-8859-1"?>
<modeling>
 <generator>
  <i name="program" type="string">vasp </i>
  <i name="version" type="string">6.2.1  </i>
  <i name="subversion" type="string">16May21 (build Nov 15 2021 14:57:28) complex                          parallel </i>
  <i name="platform" type="string">LinuxPGI </i>
  <i name="date" type="string">2023 07 30 </i>
  <i name="time" type="string">22:08:29 </i>
 </generator>
 <incar>
  <i type="string" name="SYSTEM">PSC</i>
  <i type="int" name="ISTART">     1</i>
  <i type="string" name="PREC">Normal</i>
  <i name="BMIX">      0.01000000</i>
  <i name="AMIN">      0.01000000</i>
  <i type="int" name="ICHARG">     1</i>
  <i type="int" name="NELM">   600</i>
  <i type="int" name="ISYM">     0</i>
  <i name="ENCUT">    500.00000000</i>
  <i type="string" name="LREAL">Auto</i>
  <i type="int" name="ISMEAR">     0</i>
  <i name="SIGMA">      0.05000000</i>
  <i type="logical" name="LWAVE"> F  </i>
  <i type="logical" name="LVTOT"> T  </i>
  <i type="logical" name="GGA_COMPAT"> F  </i>
  <i type="logical" name="LDIPOL"> T  </i>
  <i type="int" name="IDIPOL">     3</i>
  <i type="int" name="IVDW">    12</i>
 </incar>
 <primitive_cell>
  <structure name="primitive_cell" >
   <crystal>
    <varray name="basis" >
     <v>      18.06080055       0.00000000       0.00000000 </v>
     <v>      -0.00491865      18.06279945       0.00000000 </v>
     <v>       0.00000000       0.00000000      62.48749924 </v>
    </varray>
    <i name="volume">  20385.21054034 </i>
    <varray name="rec_basis" >
     <v>       0.05536853       0.00001508      -0.00000000 </v>
     <v>       0.00000000       0.05536240       0.00000000 </v>
     <v>       0.00000000      -0.00000000       0.01600320 </v>
    </varray>
   </crystal>
   <varray name="positions" >
    <v>       0.46660474       0.33919636       0.56359893 </v>
    <v>       0.43869100       0.82405488       0.57472842 </v>
    <v>       0.92368393       0.27744670       0.57747610 </v>
    <v>       0.93585970       0.81803583       0.57263345 </v>
    <v>       0.32074048       0.07878807       0.57044570 </v>
    <v>       0.34770116       0.54278134       0.55667805 </v>
    <v>       0.80598811       0.09213434       0.56609028 </v>
    <v>       0.10848716       0.25070063       0.55660669 </v>
    <v>       0.07479725       0.67462233       0.57670696 </v>
    <v>       0.54958870       0.15529062       0.56084521 </v>
    <v>       0.50422564       0.64383171       0.55702199 </v>
    <v>       0.37532106       0.01551117       0.55669399 </v>
    <v>       0.29558612       0.62346305       0.55155044 </v>
    <v>       0.87692186       0.03299786       0.55677854 </v>
    <v>       0.05920281       0.28191154       0.57868563 </v>
    <v>       0.98644865       0.69701669       0.58553020 </v>
    <v>       0.57186905       0.24698060       0.56734907 </v>
    <v>       0.44817499       0.68628334       0.57572013 </v>
    <v>       0.27213753       0.43678874       0.57225246 </v>
    <v>       0.18703922       0.05812466       0.57202298 </v>
    <v>       0.68497860       0.03186784       0.57505740 </v>
    <v>       0.38225396       0.29940769       0.55541944 </v>
    <v>       0.49659913       0.86938952       0.55672353 </v>
    <v>       0.88170311       0.23733365       0.55510376 </v>
    <v>       0.98947864       0.86770089       0.55442974 </v>
    <v>       0.17603443       0.44663155       0.56969604 </v>
    <v>       0.15156600       0.98034324       0.55933416 </v>
    <v>       0.68025293       0.93677616       0.56868314 </v>
    <v>       0.42926877       0.18349493       0.55200451 </v>
    <v>       0.54440646       0.75849803       0.54271182 </v>
    <v>       0.99806145       0.21822435       0.53813840 </v>
    <v>       0.08394047       0.77844468       0.55443145 </v>
    <v>       0.18241736       0.56449551       0.55653905 </v>
    <v>       0.27011277       0.94080128       0.54809486 </v>
    <v>       0.79893678       0.92966532       0.55676376 </v>
    <v>       0.44443067       0.30076726       0.67211478 </v>
    <v>       0.45054933       0.80740644       0.67363712 </v>
    <v>       0.94405052       0.28242798       0.67447798 </v>
    <v>       0.92113084       0.73434292       0.66901247 </v>
    <v>       0.30098902       0.05299678       0.67258289 </v>
    <v>       0.29469356       0.55947397       0.67405486 </v>
    <v>       0.80475909       0.05484067       0.67459471 </v>
    <v>       0.84296274       0.47002146       0.66258309 </v>
    <v>       0.08759222       0.16962216       0.64846637 </v>
    <v>       0.11313880       0.71208378       0.65299346 </v>
    <v>       0.57973904       0.17035403       0.64974135 </v>
    <v>       0.57045195       0.66904795       0.64788013 </v>
    <v>       0.18527341       0.41133595       0.64860574 </v>
    <v>       0.16912964       0.92412623       0.64749352 </v>
    <v>       0.64234385       0.47371804       0.65571733 </v>
    <v>       0.67461136       0.92034312       0.65131618 </v>
    <v>       0.05238311       0.18590028       0.67388240 </v>
    <v>       0.04287948       0.66813941       0.66728898 </v>
    <v>       0.54707925       0.20098868       0.67445417 </v>
    <v>       0.54620734       0.69823140       0.67343426 </v>
    <v>       0.20289597       0.44738973       0.67394064 </v>
    <v>       0.19737842       0.95087127       0.67296456 </v>
    <v>       0.71342785       0.41504887       0.66371423 </v>
    <v>       0.70264822       0.95184390       0.67630544 </v>
    <v>       0.41933268       0.32436240       0.64622630 </v>
    <v>       0.42379650       0.83602760       0.64813397 </v>
    <v>       0.92345912       0.31916966       0.64951181 </v>
    <v>       0.91549915       0.81729735       0.65514276 </v>
    <v>       0.32835246       0.07920360       0.64699727 </v>
    <v>       0.32389308       0.58635745       0.64860574 </v>
    <v>       0.82964508       0.07924198       0.64848926 </v>
    <v>       0.84985756       0.55747711       0.65115429 </v>
    <v>       0.01134721       0.25211502       0.63147762 </v>
    <v>       0.03763959       0.81211093       0.64337087 </v>
    <v>       0.50222424       0.24583099       0.63003281 </v>
    <v>       0.49535267       0.75177086       0.63037181 </v>
    <v>       0.24774552       0.00113865       0.62955939 </v>
    <v>       0.26013929       0.49394331       0.63098485 </v>
    <v>       0.75147186       0.99703155       0.63220659 </v>
    <v>       0.72298480       0.57049892       0.64645614 </v>
    <v>       0.44874502       0.30128397       0.76888902 </v>
    <v>       0.44874501       0.80128391       0.76888902 </v>
    <v>       0.94874497       0.30128397       0.76888902 </v>
    <v>       0.94874501       0.80128391       0.76888902 </v>
    <v>       0.30127600       0.05129450       0.76887296 </v>
    <v>       0.30127601       0.55129450       0.76887296 </v>
    <v>       0.80127594       0.05129450       0.76887296 </v>
    <v>       0.80127598       0.55129450       0.76887296 </v>
    <v>       0.07877100       0.17118050       0.74344197 </v>
    <v>       0.07877101       0.67118045       0.74344197 </v>
    <v>       0.57877100       0.17118050       0.74344197 </v>
    <v>       0.57877099       0.67118045       0.74344197 </v>
    <v>       0.17119950       0.42117448       0.74342103 </v>
    <v>       0.17119950       0.92117451       0.74342103 </v>
    <v>       0.67119951       0.42117448       0.74342103 </v>
    <v>       0.67119950       0.92117451       0.74342103 </v>
    <v>       0.05125600       0.19871499       0.76888902 </v>
    <v>       0.05125600       0.69871493       0.76888902 </v>
    <v>       0.55125603       0.19871499       0.76888902 </v>
    <v>       0.55125602       0.69871493       0.76888902 </v>
    <v>       0.19872349       0.44870397       0.76887205 </v>
    <v>       0.19872349       0.94870397       0.76887205 </v>
    <v>       0.69872352       0.44870397       0.76887205 </v>
    <v>       0.69872351       0.94870397       0.76887205 </v>
    <v>       0.42123152       0.32881747       0.74344197 </v>
    <v>       0.42123151       0.82881744       0.74344197 </v>
    <v>       0.92123147       0.32881747       0.74344197 </v>
    <v>       0.92123151       0.82881744       0.74344197 </v>
    <v>       0.32880050       0.07882500       0.74342103 </v>
    <v>       0.32880049       0.57882496       0.74342103 </v>
    <v>       0.82880048       0.07882500       0.74342103 </v>
    <v>       0.82880052       0.57882496       0.74342103 </v>
    <v>       0.00000350       0.25000148       0.72582199 </v>
    <v>       0.00000350       0.75000145       0.72582199 </v>
    <v>       0.50000351       0.25000148       0.72582199 </v>
    <v>       0.50000350       0.75000145       0.72582199 </v>
    <v>       0.25000050       0.00000000       0.72580398 </v>
    <v>       0.25000052       0.50000000       0.72580398 </v>
    <v>       0.75000050       0.00000000       0.72580398 </v>
    <v>       0.75000049       0.50000000       0.72580398 </v>
    <v>       0.72027546       0.44391817       0.53936502 </v>
    <v>       0.74075349       0.49558500       0.51625878 </v>
    <v>       0.66281533       0.55231740       0.55646469 </v>
    <v>       0.70932550       0.63843336       0.55515175 </v>
    <v>       0.85256323       0.50885259       0.56728235 </v>
    <v>       0.79270406       0.57859582       0.57707905 </v>
    <v>       0.87749991       0.55981346       0.53094464 </v>
    <v>       0.80807986       0.62100785       0.52112779 </v>
    <v>       0.87309425       0.46096729       0.51777672 </v>
    <v>       0.86197884       0.42488088       0.54370909 </v>
    <v>       0.87263965       0.32577825       0.51846674 </v>
    <v>       0.78400650       0.32373057       0.52996861 </v>
    <v>       0.63840973       0.55169011       0.51803556 </v>
    <v>       0.69414345       0.63251585       0.51388232 </v>
    <v>       0.61174409       0.63775074       0.52896133 </v>
    <v>       0.76211325       0.46624052       0.59537134 </v>
    <v>       0.75450163       0.41277806       0.57186688 </v>
    <v>       0.68715549       0.48229313       0.57794030 </v>
    <v>       0.81874157       0.69156981       0.55728718 </v>
    <v>       0.89692931       0.69231500       0.54031602 </v>
    <v>       0.89713696       0.63309757       0.56293095 </v>
    <v>       0.82023860       0.38092558       0.48477274 </v>
    <v>       0.78655629       0.29201071       0.49135478 </v>
    <v>       0.66220178       0.30324675       0.51798727 </v>
    <v>       0.73279637       0.46165340       0.47079625 </v>
    <v>       0.53512722       0.35453415       0.51674355 </v>
    <v>       0.60486575       0.51234125       0.46899062 </v>
    <v>       0.50590695       0.46076930       0.49251080 </v>
    <v>       0.99501576       0.24155625       0.55419117 </v>
    <v>       0.03315258       0.76927182       0.56368464 </v>
    <v>       0.46648809       0.22788814       0.55702804 </v>
    <v>       0.50258625       0.75728643       0.55539252 </v>
    <v>       0.23436805       0.53460557       0.55953916 </v>
    <v>       0.26369621       0.99274063       0.55697700 </v>
    <v>       0.77834906       0.98340892       0.56241089 </v>
    <v>       0.00557018       0.24482757       0.64865824 </v>
    <v>       0.01529233       0.76728832       0.65334607 </v>
    <v>       0.49974629       0.24763279       0.64744157 </v>
    <v>       0.49653871       0.75221801       0.64773917 </v>
    <v>       0.25566772       0.49798894       0.64836479 </v>
    <v>       0.24890836       0.00163054       0.64701436 </v>
    <v>       0.74471112       0.51904688       0.65319144 </v>
    <v>       0.75249337       0.99986743       0.64965893 </v>
    <v>       0.49998898       0.24999498       0.74327702 </v>
    <v>       0.49998903       0.74999496       0.74327702 </v>
    <v>       0.99998898       0.24999498       0.74327702 </v>
    <v>       0.99998903       0.74999496       0.74327702 </v>
    <v>       0.25000050       0.00000100       0.74325596 </v>
    <v>       0.25000052       0.50000100       0.74325596 </v>
    <v>       0.75000050       0.00000100       0.74325596 </v>
    <v>       0.75000049       0.50000100       0.74325596 </v>
    <v>       0.70679988       0.37913566       0.49466693 </v>
    <v>       0.64976178       0.34916063       0.50729244 </v>
    <v>       0.68931478       0.43768369       0.48083238 </v>
    <v>       0.57836156       0.37784372       0.50654413 </v>
    <v>       0.61693253       0.46639373       0.47990983 </v>
    <v>       0.56174923       0.43712393       0.49284510 </v>
    <v>       0.76327104       0.47715850       0.53151647 </v>
    <v>       0.69858830       0.58679303       0.54645732 </v>
    <v>       0.79439540       0.52661046       0.56800472 </v>
    <v>       0.83194912       0.59639915       0.53562941 </v>
    <v>       0.83353077       0.43208111       0.52826704 </v>
    <v>       0.81917269       0.35508271       0.51886336 </v>
    <v>       0.65989805       0.60235822       0.52543743 </v>
    <v>       0.74617443       0.46852512       0.57847105 </v>
    <v>       0.86204246       0.65635142       0.55031466 </v>
    <v>       0.78527327       0.35072867       0.49632922 </v>
    <v>       0.05777567       0.25763457       0.56381492 </v>
    <v>       0.03010189       0.70912146       0.57539499 </v>
    <v>       0.53470723       0.20974855       0.56161868 </v>
    <v>       0.48298538       0.69219446       0.56283804 </v>
    <v>       0.43809610       0.29477462       0.55796585 </v>
    <v>       0.47556416       0.82015334       0.56215260 </v>
    <v>       0.92955244       0.25119761       0.56290250 </v>
    <v>       0.97927873       0.81822115       0.56212861 </v>
    <v>       0.22769938       0.46576470       0.56633373 </v>
    <v>       0.19685100       0.01157277       0.56311709 </v>
    <v>       0.70875271       0.98530315       0.56865060 </v>
    <v>       0.32330560       0.03206694       0.56116540 </v>
    <v>       0.29724744       0.56825935       0.55546932 </v>
    <v>       0.82351336       0.04022630       0.56211133 </v>
    <v>       0.05026986       0.19704940       0.65784923 </v>
    <v>       0.05905263       0.71104192       0.65770607 </v>
    <v>       0.54507219       0.20408012       0.65812107 </v>
    <v>       0.53940388       0.70332944       0.65717679 </v>
    <v>       0.21288752       0.44914399       0.65780521 </v>
    <v>       0.20232731       0.95644224       0.65668780 </v>
    <v>       0.69788145       0.46590736       0.65795362 </v>
    <v>       0.70792760       0.95447094       0.65998229 </v>
    <v>       0.45215454       0.29351323       0.65598173 </v>
    <v>       0.45475828       0.80130889       0.65737654 </v>
    <v>       0.95510515       0.28486784       0.65850054 </v>
    <v>       0.94635951       0.77324031       0.65972784 </v>
    <v>       0.29545051       0.04669774       0.65628611 </v>
    <v>       0.29343575       0.55047291       0.65785106 </v>
    <v>       0.79728487       0.04790712       0.65839011 </v>
    <v>       0.81688722       0.51472929       0.65581751 </v>
    <v>       0.04586250       0.20411950       0.75272599 </v>
    <v>       0.04586250       0.70411946       0.75272599 </v>
    <v>       0.54586251       0.20411950       0.75272599 </v>
    <v>       0.54586250       0.70411946       0.75272599 </v>
    <v>       0.20411900       0.45410100       0.75270499 </v>
    <v>       0.20411899       0.95410095       0.75270499 </v>
    <v>       0.70411898       0.45410100       0.75270499 </v>
    <v>       0.70411896       0.95410095       0.75270499 </v>
    <v>       0.45414002       0.29588849       0.75272697 </v>
    <v>       0.45414001       0.79588852       0.75272697 </v>
    <v>       0.95414002       0.29588849       0.75272697 </v>
    <v>       0.95414006       0.79588852       0.75272697 </v>
    <v>       0.29588249       0.04590050       0.75270499 </v>
    <v>       0.29588248       0.54590053       0.75270499 </v>
    <v>       0.79588244       0.04590050       0.75270499 </v>
    <v>       0.79588248       0.54590053       0.75270499 </v>
    <v>       0.77222792       0.54629181       0.54516995 </v>
    <v>       0.51680440       0.01176944       0.55325507 </v>
    <v>       0.48839218       0.49630068       0.55295807 </v>
    <v>       0.00914243       0.00756805       0.55006754 </v>
    <v>       0.02538323       0.50053326       0.55434311 </v>
    <v>       0.25063518       0.23694830       0.55279752 </v>
    <v>       0.25420775       0.76139393       0.55233221 </v>
    <v>       0.73513985       0.21215315       0.55581045 </v>
    <v>       0.69929662       0.79643529       0.55529124 </v>
    <v>       0.99841145       0.98854848       0.65364502 </v>
    <v>       0.01324967       0.49801016       0.65539970 </v>
    <v>       0.49565675       0.00388169       0.65504545 </v>
    <v>       0.50067134       0.49479927       0.65439413 </v>
    <v>       0.25253518       0.24644632       0.65469198 </v>
    <v>       0.25455882       0.75540857       0.65433418 </v>
    <v>       0.74724640       0.26844849       0.65513622 </v>
    <v>       0.74679581       0.74068630       0.65451708 </v>
    <v>       0.12939765       0.12295385       0.60734480 </v>
    <v>       0.15245227       0.60696382       0.60773044 </v>
    <v>       0.63938323       0.11394633       0.61138364 </v>
    <v>       0.63190218       0.61861669       0.60709402 </v>
    <v>       0.36104949       0.38921001       0.60574707 </v>
    <v>       0.36950163       0.88624672       0.60716221 </v>
    <v>       0.88823833       0.36836223       0.60789563 </v>
    <v>       0.86721297       0.88240706       0.60601574 </v>
    <v>       0.12196046       0.36481270       0.60889699 </v>
    <v>       0.12336012       0.87536595       0.60685801 </v>
    <v>       0.59568004       0.34710416       0.60135722 </v>
    <v>       0.61701254       0.86702724       0.61446818 </v>
    <v>       0.38768071       0.13360559       0.60725476 </v>
    <v>       0.38606971       0.63583397       0.60947200 </v>
    <v>       0.88432101       0.13709763       0.61119030 </v>
    <v>       0.89650479       0.64005520       0.61352438 </v>
    <v>       0.00000000       0.00000000       0.75492797 </v>
    <v>       0.00000000       0.50000000       0.75492797 </v>
    <v>       0.50000000       0.00000000       0.75492797 </v>
    <v>       0.49999999       0.50000000       0.75492797 </v>
    <v>       0.25000050       0.25000000       0.75493902 </v>
    <v>       0.25000051       0.74999997       0.75493902 </v>
    <v>       0.75000047       0.25000000       0.75493902 </v>
    <v>       0.75000046       0.74999997       0.75493902 </v>
    <v>       0.13579050       0.11421000       0.70478299 </v>
    <v>       0.13579050       0.61420998       0.70478299 </v>
    <v>       0.63579045       0.11421000       0.70478299 </v>
    <v>       0.63579049       0.61420998       0.70478299 </v>
    <v>       0.36420952       0.38578999       0.70478299 </v>
    <v>       0.36420950       0.88578996       0.70478299 </v>
    <v>       0.86420954       0.38578999       0.70478299 </v>
    <v>       0.86420953       0.88578996       0.70478299 </v>
    <v>       0.11421799       0.36421899       0.70478098 </v>
    <v>       0.11421799       0.86421899       0.70478098 </v>
    <v>       0.61421800       0.36421899       0.70478098 </v>
    <v>       0.61421799       0.86421899       0.70478098 </v>
    <v>       0.38578201       0.13578149       0.70478202 </v>
    <v>       0.38578200       0.63578149       0.70478202 </v>
    <v>       0.88578199       0.13578149       0.70478202 </v>
    <v>       0.88578203       0.63578149       0.70478202 </v>
    <v>       0.13466700       0.11533200       0.80125603 </v>
    <v>       0.13466699       0.61533199       0.80125603 </v>
    <v>       0.63466699       0.11533200       0.80125603 </v>
    <v>       0.63466698       0.61533199       0.80125603 </v>
    <v>       0.36533300       0.38466799       0.80125603 </v>
    <v>       0.36533299       0.88466796       0.80125603 </v>
    <v>       0.86533295       0.38466799       0.80125603 </v>
    <v>       0.86533294       0.88466796       0.80125603 </v>
    <v>       0.11532850       0.36533700       0.80126500 </v>
    <v>       0.11532850       0.86533698       0.80126500 </v>
    <v>       0.61532850       0.36533700       0.80126500 </v>
    <v>       0.61532849       0.86533698       0.80126500 </v>
    <v>       0.38467151       0.13466300       0.80126500 </v>
    <v>       0.38467150       0.63466297       0.80126500 </v>
    <v>       0.88467149       0.13466300       0.80126500 </v>
    <v>       0.88467153       0.63466297       0.80126500 </v>
    <v>       0.99746415       0.00394703       0.60381382 </v>
    <v>       0.00645434       0.50387197       0.60422412 </v>
    <v>       0.50452453       0.00116660       0.60546247 </v>
    <v>       0.50180573       0.49870915       0.60385918 </v>
    <v>       0.25406823       0.24897821       0.60416711 </v>
    <v>       0.25133218       0.75277222       0.60300257 </v>
    <v>       0.74648344       0.25116076       0.60519649 </v>
    <v>       0.74375991       0.75615022       0.60412108 </v>
    <v>       0.00000050       0.00000050       0.70482896 </v>
    <v>       0.00000050       0.50000048       0.70482896 </v>
    <v>       0.50000048       0.00000050       0.70482896 </v>
    <v>       0.50000046       0.50000048       0.70482896 </v>
    <v>       0.24999999       0.24999947       0.70482499 </v>
    <v>       0.25000001       0.74999950       0.70482499 </v>
    <v>       0.74999999       0.24999947       0.70482499 </v>
    <v>       0.74999998       0.74999950       0.70482499 </v>
    <v>       0.00000000       0.00000000       0.80731797 </v>
    <v>       0.00000000       0.50000000       0.80731797 </v>
    <v>       0.50000000       0.00000000       0.80731797 </v>
    <v>       0.49999999       0.50000000       0.80731797 </v>
    <v>       0.24999999       0.25000000       0.80731797 </v>
    <v>       0.25000001       0.74999997       0.80731797 </v>
    <v>       0.74999999       0.25000000       0.80731797 </v>
    <v>       0.74999998       0.74999997       0.80731797 </v>
   </varray>
  </structure>
  <varray name="primitive_index" >
   <v type="int" >        1 </v>
   <v type="int" >        2 </v>
   <v type="int" >        3 </v>
   <v type="int" >        4 </v>
   <v type="int" >        5 </v>
   <v type="int" >        6 </v>
   <v type="int" >        7 </v>
   <v type="int" >        8 </v>
   <v type="int" >        9 </v>
   <v type="int" >       10 </v>
   <v type="int" >       11 </v>
   <v type="int" >       12 </v>
   <v type="int" >       13 </v>
   <v type="int" >       14 </v>
   <v type="int" >       15 </v>
   <v type="int" >       16 </v>
   <v type="int" >       17 </v>
   <v type="int" >       18 </v>
   <v type="int" >       19 </v>
   <v type="int" >       20 </v>
   <v type="int" >       21 </v>
   <v type="int" >       22 </v>
   <v type="int" >       23 </v>
   <v type="int" >       24 </v>
   <v type="int" >       25 </v>
   <v type="int" >       26 </v>
   <v type="int" >       27 </v>
   <v type="int" >       28 </v>
   <v type="int" >       29 </v>
   <v type="int" >       30 </v>
   <v type="int" >       31 </v>
   <v type="int" >       32 </v>
   <v type="int" >       33 </v>
   <v type="int" >       34 </v>
   <v type="int" >       35 </v>
   <v type="int" >       36 </v>
   <v type="int" >       37 </v>
   <v type="int" >       38 </v>
   <v type="int" >       39 </v>
   <v type="int" >       40 </v>
   <v type="int" >       41 </v>
   <v type="int" >       42 </v>
   <v type="int" >       43 </v>
   <v type="int" >       44 </v>
   <v type="int" >       45 </v>
   <v type="int" >       46 </v>
   <v type="int" >       47 </v>
   <v type="int" >       48 </v>
   <v type="int" >       49 </v>
   <v type="int" >       50 </v>
   <v type="int" >       51 </v>
   <v type="int" >       52 </v>
   <v type="int" >       53 </v>
   <v type="int" >       54 </v>
   <v type="int" >       55 </v>
   <v type="int" >       56 </v>
   <v type="int" >       57 </v>
   <v type="int" >       58 </v>
   <v type="int" >       59 </v>
   <v type="int" >       60 </v>
   <v type="int" >       61 </v>
   <v type="int" >       62 </v>
   <v type="int" >       63 </v>
   <v type="int" >       64 </v>
   <v type="int" >       65 </v>
   <v type="int" >       66 </v>
   <v type="int" >       67 </v>
   <v type="int" >       68 </v>
   <v type="int" >       69 </v>
   <v type="int" >       70 </v>
   <v type="int" >       71 </v>
   <v type="int" >       72 </v>
   <v type="int" >       73 </v>
   <v type="int" >       74 </v>
   <v type="int" >       75 </v>
   <v type="int" >       76 </v>
   <v type="int" >       77 </v>
   <v type="int" >       78 </v>
   <v type="int" >       79 </v>
   <v type="int" >       80 </v>
   <v type="int" >       81 </v>
   <v type="int" >       82 </v>
   <v type="int" >       83 </v>
   <v type="int" >       84 </v>
   <v type="int" >       85 </v>
   <v type="int" >       86 </v>
   <v type="int" >       87 </v>
   <v type="int" >       88 </v>
   <v type="int" >       89 </v>
   <v type="int" >       90 </v>
   <v type="int" >       91 </v>
   <v type="int" >       92 </v>
   <v type="int" >       93 </v>
   <v type="int" >       94 </v>
   <v type="int" >       95 </v>
   <v type="int" >       96 </v>
   <v type="int" >       97 </v>
   <v type="int" >       98 </v>
   <v type="int" >       99 </v>
   <v type="int" >      100 </v>
   <v type="int" >      101 </v>
   <v type="int" >      102 </v>
   <v type="int" >      103 </v>
   <v type="int" >      104 </v>
   <v type="int" >      105 </v>
   <v type="int" >      106 </v>
   <v type="int" >      107 </v>
   <v type="int" >      108 </v>
   <v type="int" >      109 </v>
   <v type="int" >      110 </v>
   <v type="int" >      111 </v>
   <v type="int" >      112 </v>
   <v type="int" >      113 </v>
   <v type="int" >      114 </v>
   <v type="int" >      115 </v>
   <v type="int" >      116 </v>
   <v type="int" >      117 </v>
   <v type="int" >      118 </v>
   <v type="int" >      119 </v>
   <v type="int" >      120 </v>
   <v type="int" >      121 </v>
   <v type="int" >      122 </v>
   <v type="int" >      123 </v>
   <v type="int" >      124 </v>
   <v type="int" >      125 </v>
   <v type="int" >      126 </v>
   <v type="int" >      127 </v>
   <v type="int" >      128 </v>
   <v type="int" >      129 </v>
   <v type="int" >      130 </v>
   <v type="int" >      131 </v>
   <v type="int" >      132 </v>
   <v type="int" >      133 </v>
   <v type="int" >      134 </v>
   <v type="int" >      135 </v>
   <v type="int" >      136 </v>
   <v type="int" >      137 </v>
   <v type="int" >      138 </v>
   <v type="int" >      139 </v>
   <v type="int" >      140 </v>
   <v type="int" >      141 </v>
   <v type="int" >      142 </v>
   <v type="int" >      143 </v>
   <v type="int" >      144 </v>
   <v type="int" >      145 </v>
   <v type="int" >      146 </v>
   <v type="int" >      147 </v>
   <v type="int" >      148 </v>
   <v type="int" >      149 </v>
   <v type="int" >      150 </v>
   <v type="int" >      151 </v>
   <v type="int" >      152 </v>
   <v type="int" >      153 </v>
   <v type="int" >      154 </v>
   <v type="int" >      155 </v>
   <v type="int" >      156 </v>
   <v type="int" >      157 </v>
   <v type="int" >      158 </v>
   <v type="int" >      159 </v>
   <v type="int" >      160 </v>
   <v type="int" >      161 </v>
   <v type="int" >      162 </v>
   <v type="int" >      163 </v>
   <v type="int" >      164 </v>
   <v type="int" >      165 </v>
   <v type="int" >      166 </v>
   <v type="int" >      167 </v>
   <v type="int" >      168 </v>
   <v type="int" >      169 </v>
   <v type="int" >      170 </v>
   <v type="int" >      171 </v>
   <v type="int" >      172 </v>
   <v type="int" >      173 </v>
   <v type="int" >      174 </v>
   <v type="int" >      175 </v>
   <v type="int" >      176 </v>
   <v type="int" >      177 </v>
   <v type="int" >      178 </v>
   <v type="int" >      179 </v>
   <v type="int" >      180 </v>
   <v type="int" >      181 </v>
   <v type="int" >      182 </v>
   <v type="int" >      183 </v>
   <v type="int" >      184 </v>
   <v type="int" >      185 </v>
   <v type="int" >      186 </v>
   <v type="int" >      187 </v>
   <v type="int" >      188 </v>
   <v type="int" >      189 </v>
   <v type="int" >      190 </v>
   <v type="int" >      191 </v>
   <v type="int" >      192 </v>
   <v type="int" >      193 </v>
   <v type="int" >      194 </v>
   <v type="int" >      195 </v>
   <v type="int" >      196 </v>
   <v type="int" >      197 </v>
   <v type="int" >      198 </v>
   <v type="int" >      199 </v>
   <v type="int" >      200 </v>
   <v type="int" >      201 </v>
   <v type="int" >      202 </v>
   <v type="int" >      203 </v>
   <v type="int" >      204 </v>
   <v type="int" >      205 </v>
   <v type="int" >      206 </v>
   <v type="int" >      207 </v>
   <v type="int" >      208 </v>
   <v type="int" >      209 </v>
   <v type="int" >      210 </v>
   <v type="int" >      211 </v>
   <v type="int" >      212 </v>
   <v type="int" >      213 </v>
   <v type="int" >      214 </v>
   <v type="int" >      215 </v>
   <v type="int" >      216 </v>
   <v type="int" >      217 </v>
   <v type="int" >      218 </v>
   <v type="int" >      219 </v>
   <v type="int" >      220 </v>
   <v type="int" >      221 </v>
   <v type="int" >      222 </v>
   <v type="int" >      223 </v>
   <v type="int" >      224 </v>
   <v type="int" >      225 </v>
   <v type="int" >      226 </v>
   <v type="int" >      227 </v>
   <v type="int" >      228 </v>
   <v type="int" >      229 </v>
   <v type="int" >      230 </v>
   <v type="int" >      231 </v>
   <v type="int" >      232 </v>
   <v type="int" >      233 </v>
   <v type="int" >      234 </v>
   <v type="int" >      235 </v>
   <v type="int" >      236 </v>
   <v type="int" >      237 </v>
   <v type="int" >      238 </v>
   <v type="int" >      239 </v>
   <v type="int" >      240 </v>
   <v type="int" >      241 </v>
   <v type="int" >      242 </v>
   <v type="int" >      243 </v>
   <v type="int" >      244 </v>
   <v type="int" >      245 </v>
   <v type="int" >      246 </v>
   <v type="int" >      247 </v>
   <v type="int" >      248 </v>
   <v type="int" >      249 </v>
   <v type="int" >      250 </v>
   <v type="int" >      251 </v>
   <v type="int" >      252 </v>
   <v type="int" >      253 </v>
   <v type="int" >      254 </v>
   <v type="int" >      255 </v>
   <v type="int" >      256 </v>
   <v type="int" >      257 </v>
   <v type="int" >      258 </v>
   <v type="int" >      259 </v>
   <v type="int" >      260 </v>
   <v type="int" >      261 </v>
   <v type="int" >      262 </v>
   <v type="int" >      263 </v>
   <v type="int" >      264 </v>
   <v type="int" >      265 </v>
   <v type="int" >      266 </v>
   <v type="int" >      267 </v>
   <v type="int" >      268 </v>
   <v type="int" >      269 </v>
   <v type="int" >      270 </v>
   <v type="int" >      271 </v>
   <v type="int" >      272 </v>
   <v type="int" >      273 </v>
   <v type="int" >      274 </v>
   <v type="int" >      275 </v>
   <v type="int" >      276 </v>
   <v type="int" >      277 </v>
   <v type="int" >      278 </v>
   <v type="int" >      279 </v>
   <v type="int" >      280 </v>
   <v type="int" >      281 </v>
   <v type="int" >      282 </v>
   <v type="int" >      283 </v>
   <v type="int" >      284 </v>
   <v type="int" >      285 </v>
   <v type="int" >      286 </v>
   <v type="int" >      287 </v>
   <v type="int" >      288 </v>
   <v type="int" >      289 </v>
   <v type="int" >      290 </v>
   <v type="int" >      291 </v>
   <v type="int" >      292 </v>
   <v type="int" >      293 </v>
   <v type="int" >      294 </v>
   <v type="int" >      295 </v>
   <v type="int" >      296 </v>
   <v type="int" >      297 </v>
   <v type="int" >      298 </v>
   <v type="int" >      299 </v>
   <v type="int" >      300 </v>
   <v type="int" >      301 </v>
   <v type="int" >      302 </v>
   <v type="int" >      303 </v>
   <v type="int" >      304 </v>
   <v type="int" >      305 </v>
   <v type="int" >      306 </v>
   <v type="int" >      307 </v>
   <v type="int" >      308 </v>
   <v type="int" >      309 </v>
   <v type="int" >      310 </v>
   <v type="int" >      311 </v>
   <v type="int" >      312 </v>
   <v type="int" >      313 </v>
   <v type="int" >      314 </v>
   <v type="int" >      315 </v>
   <v type="int" >      316 </v>
   <v type="int" >      317 </v>
   <v type="int" >      318 </v>
   <v type="int" >      319 </v>
   <v type="int" >      320 </v>
   <v type="int" >      321 </v>
   <v type="int" >      322 </v>
   <v type="int" >      323 </v>
   <v type="int" >      324 </v>
   <v type="int" >      325 </v>
  </varray>
 </primitive_cell>
 <kpoints>
  <generation param="Gamma">
   <v type="int" name="divisions">       3        3        1 </v>
   <v name="usershift">      0.00000000       0.00000000       0.00000000 </v>
   <v name="genvec1">      0.33333333       0.00000000       0.00000000 </v>
   <v name="genvec2">      0.00000000       0.33333333       0.00000000 </v>
   <v name="genvec3">      0.00000000       0.00000000       1.00000000 </v>
   <v name="shift">      0.00000000       0.00000000       0.00000000 </v>
  </generation>
  <varray name="kpointlist" >
   <v>       0.00000000       0.00000000       0.00000000 </v>
   <v>       0.33333333       0.00000000       0.00000000 </v>
   <v>       0.00000000       0.33333333       0.00000000 </v>
   <v>       0.33333333       0.33333333       0.00000000 </v>
   <v>      -0.33333333       0.33333333       0.00000000 </v>
  </varray>
  <varray name="weights" >
   <v>       0.11111111 </v>
   <v>       0.22222222 </v>
   <v>       0.22222222 </v>
   <v>       0.22222222 </v>
   <v>       0.22222222 </v>
  </varray>
 </kpoints>
 <parameters>
  <separator name="general" >
   <i type="string" name="SYSTEM">PSC</i>
   <i type="logical" name="LCOMPAT"> F  </i>
  </separator>
  <separator name="electronic" >
   <i type="string" name="PREC">normal</i>
   <i name="ENMAX">    500.00000000</i>
   <i name="ENAUG">    644.87300000</i>
   <i name="EDIFF">      0.00010000</i>
   <i type="int" name="IALGO">    38</i>
   <i type="int" name="IWAVPR">    10</i>
   <i type="int" name="NBANDS">   732</i>
   <i type="int" name="NBANDSLOW">    -1</i>
   <i type="int" name="NBANDSHIGH">    -1</i>
   <i name="NELECT">   1134.00000000</i>
   <i type="int" name="TURBO">     0</i>
   <i type="int" name="IRESTART">     0</i>
   <i type="int" name="NREBOOT">     0</i>
   <i type="int" name="NMIN">     0</i>
   <i name="EREF">      0.00000000</i>
   <separator name="electronic smearing" >
    <i type="int" name="ISMEAR">     0</i>
    <i name="SIGMA">      0.05000000</i>
    <i name="KSPACING">      0.50000000</i>
    <i type="logical" name="KGAMMA"> T  </i>
    <i type="logical" name="KBLOWUP"> T  </i>
   </separator>
   <separator name="electronic projectors" >
    <i type="logical" name="LREAL"> T  </i>
    <v name="ROPT">     -0.00050000     -0.00050000     -0.00050000     -0.00050000     -0.00050000</v>
    <i type="int" name="LMAXPAW">  -100</i>
    <i type="int" name="LMAXMIX">     2</i>
    <i type="logical" name="NLSPLINE"> F  </i>
   </separator>
   <separator name="electronic startup" >
    <i type="int" name="ISTART">     0</i>
    <i type="int" name="ICHARG">     1</i>
    <i type="int" name="INIWAV">     1</i>
   </separator>
   <separator name="electronic spin" >
    <i type="int" name="ISPIN">     1</i>
    <i type="logical" name="LNONCOLLINEAR"> F  </i>
    <v name="MAGMOM">      1.00000000      1.00000000      1.00000000      1.00000000      1.00000000      1.00000000      1.00000000      1.00000000      1.00000000      1.00000000      1.00000000      1.00000000      1.00000000      1.00000000      1.00000000      1.00000000      1.00000000      1.00000000      1.00000000      1.00000000
      1.00000000      1.00000000      1.00000000      1.00000000      1.00000000      1.00000000      1.00000000      1.00000000      1.00000000      1.00000000      1.00000000      1.00000000      1.00000000      1.00000000      1.00000000      1.00000000      1.00000000      1.00000000      1.00000000      1.00000000
      1.00000000      1.00000000      1.00000000      1.00000000      1.00000000      1.00000000      1.00000000      1.00000000      1.00000000      1.00000000      1.00000000      1.00000000      1.00000000      1.00000000      1.00000000      1.00000000      1.00000000      1.00000000      1.00000000      1.00000000
      1.00000000      1.00000000      1.00000000      1.00000000      1.00000000      1.00000000      1.00000000      1.00000000      1.00000000      1.00000000      1.00000000      1.00000000      1.00000000      1.00000000      1.00000000      1.00000000      1.00000000      1.00000000      1.00000000      1.00000000
      1.00000000      1.00000000      1.00000000      1.00000000      1.00000000      1.00000000      1.00000000      1.00000000      1.00000000      1.00000000      1.00000000      1.00000000      1.00000000      1.00000000      1.00000000      1.00000000      1.00000000      1.00000000      1.00000000      1.00000000
      1.00000000      1.00000000      1.00000000      1.00000000      1.00000000      1.00000000      1.00000000      1.00000000      1.00000000      1.00000000      1.00000000      1.00000000      1.00000000      1.00000000      1.00000000      1.00000000      1.00000000      1.00000000      1.00000000      1.00000000
      1.00000000      1.00000000      1.00000000      1.00000000      1.00000000      1.00000000      1.00000000      1.00000000      1.00000000      1.00000000      1.00000000      1.00000000      1.00000000      1.00000000      1.00000000      1.00000000      1.00000000      1.00000000      1.00000000      1.00000000
      1.00000000      1.00000000      1.00000000      1.00000000      1.00000000      1.00000000      1.00000000      1.00000000      1.00000000      1.00000000      1.00000000      1.00000000      1.00000000      1.00000000      1.00000000      1.00000000      1.00000000      1.00000000      1.00000000      1.00000000
      1.00000000      1.00000000      1.00000000      1.00000000      1.00000000      1.00000000      1.00000000      1.00000000      1.00000000      1.00000000      1.00000000      1.00000000      1.00000000      1.00000000      1.00000000      1.00000000      1.00000000      1.00000000      1.00000000      1.00000000
      1.00000000      1.00000000      1.00000000      1.00000000      1.00000000      1.00000000      1.00000000      1.00000000      1.00000000      1.00000000      1.00000000      1.00000000      1.00000000      1.00000000      1.00000000      1.00000000      1.00000000      1.00000000      1.00000000      1.00000000
      1.00000000      1.00000000      1.00000000      1.00000000      1.00000000      1.00000000      1.00000000      1.00000000      1.00000000      1.00000000      1.00000000      1.00000000      1.00000000      1.00000000      1.00000000      1.00000000      1.00000000      1.00000000      1.00000000      1.00000000
      1.00000000      1.00000000      1.00000000      1.00000000      1.00000000      1.00000000      1.00000000      1.00000000      1.00000000      1.00000000      1.00000000      1.00000000      1.00000000      1.00000000      1.00000000      1.00000000      1.00000000      1.00000000      1.00000000      1.00000000
      1.00000000      1.00000000      1.00000000      1.00000000      1.00000000      1.00000000      1.00000000      1.00000000      1.00000000      1.00000000      1.00000000      1.00000000      1.00000000      1.00000000      1.00000000      1.00000000      1.00000000      1.00000000      1.00000000      1.00000000
      1.00000000      1.00000000      1.00000000      1.00000000      1.00000000      1.00000000      1.00000000      1.00000000      1.00000000      1.00000000      1.00000000      1.00000000      1.00000000      1.00000000      1.00000000      1.00000000      1.00000000      1.00000000      1.00000000      1.00000000
      1.00000000      1.00000000      1.00000000      1.00000000      1.00000000      1.00000000      1.00000000      1.00000000      1.00000000      1.00000000      1.00000000      1.00000000      1.00000000      1.00000000      1.00000000      1.00000000      1.00000000      1.00000000      1.00000000      1.00000000
      1.00000000      1.00000000      1.00000000      1.00000000      1.00000000      1.00000000      1.00000000      1.00000000      1.00000000      1.00000000      1.00000000      1.00000000      1.00000000      1.00000000      1.00000000      1.00000000      1.00000000      1.00000000      1.00000000      1.00000000
      1.00000000      1.00000000      1.00000000      1.00000000      1.00000000</v>
    <i name="NUPDOWN">     -1.00000000</i>
    <i type="logical" name="LSORBIT"> F  </i>
    <v name="SAXIS">      0.00000000      0.00000000      1.00000000</v>
    <i type="logical" name="LSPIRAL"> F  </i>
    <v name="QSPIRAL">      0.00000000      0.00000000      0.00000000</v>
    <i type="logical" name="LZEROZ"> F  </i>
   </separator>
   <separator name="electronic exchange-correlation" >
    <i type="logical" name="LASPH"> F  </i>
    <i type="logical" name="LMETAGGA"> F  </i>
   </separator>
   <separator name="electronic convergence" >
    <i type="int" name="NELM">   600</i>
    <i type="int" name="NELMDL">     0</i>
    <i type="int" name="NELMIN">     2</i>
    <i name="ENINI">    500.00000000</i>
    <separator name="electronic convergence detail" >
     <i type="logical" name="LDIAG"> T  </i>
     <i type="logical" name="LSUBROT"> F  </i>
     <i name="WEIMIN">      0.00000000</i>
     <i name="EBREAK">      0.00000003</i>
     <i name="DEPER">      0.30000000</i>
     <i type="int" name="NRMM">     4</i>
     <i name="TIME">      0.40000000</i>
    </separator>
   </separator>
   <separator name="electronic mixer" >
    <i name="AMIX">      0.40000000</i>
    <i name="BMIX">      0.01000000</i>
    <i name="AMIN">      0.01000000</i>
    <i name="AMIX_MAG">      1.60000000</i>
    <i name="BMIX_MAG">      0.01000000</i>
    <separator name="electronic mixer details" >
     <i type="int" name="IMIX">     4</i>
     <i type="logical" name="MIXFIRST"> F  </i>
     <i type="int" name="MAXMIX">   -45</i>
     <i name="WC">    100.00000000</i>
     <i type="int" name="INIMIX">     1</i>
     <i type="int" name="MIXPRE">     1</i>
     <i type="int" name="MREMOVE">     5</i>
    </separator>
   </separator>
   <separator name="electronic dipolcorrection" >
    <i type="logical" name="LDIPOL"> T  </i>
    <i type="logical" name="LMONO"> F  </i>
    <i type="int" name="IDIPOL">     3</i>
    <i name="EPSILON">      1.00000000</i>
    <v name="DIPOL">   -100.00000000   -100.00000000   -100.00000000</v>
    <i name="EFIELD">      0.00000000</i>
   </separator>
  </separator>
  <separator name="grids" >
   <i type="int" name="NGX">   100</i>
   <i type="int" name="NGY">   100</i>
   <i type="int" name="NGZ">   350</i>
   <i type="int" name="NGXF">   200</i>
   <i type="int" name="NGYF">   200</i>
   <i type="int" name="NGZF">   700</i>
   <i type="logical" name="ADDGRID"> F  </i>
  </separator>
  <separator name="ionic" >
   <i type="int" name="NSW">     0</i>
   <i type="int" name="IBRION">    -1</i>
   <i type="int" name="MDALGO">     0</i>
   <i type="int" name="ISIF">     2</i>
   <i name="PSTRESS">      0.00000000</i>
   <i name="EDIFFG">      0.00100000</i>
   <i type="int" name="NFREE">     0</i>
   <i name="POTIM">      0.50000000</i>
   <i name="SMASS">     -3.00000000</i>
   <i name="SCALEE">      1.00000000</i>
  </separator>
  <separator name="ionic md" >
   <i name="TEBEG">      0.00010000</i>
   <i name="TEEND">      0.00010000</i>
   <i type="int" name="NBLOCK">     1</i>
   <i type="int" name="KBLOCK">     1</i>
   <i type="int" name="NPACO">   256</i>
   <i name="APACO">     16.00000000</i>
  </separator>
  <separator name="symmetry" >
   <i type="int" name="ISYM">     0</i>
   <i name="SYMPREC">      0.00001000</i>
  </separator>
  <separator name="dos" >
   <i type="int" name="LORBIT">     0</i>
   <v name="RWIGS">     -1.00000000     -1.00000000     -1.00000000     -1.00000000     -1.00000000</v>
   <i type="int" name="NEDOS">   301</i>
   <i name="EMIN">     10.00000000</i>
   <i name="EMAX">    -10.00000000</i>
   <i name="EFERMI">      0.00000000</i>
  </separator>
  <separator name="writing" >
   <i type="int" name="NWRITE">     2</i>
   <i type="logical" name="LWAVE"> F  </i>
   <i type="logical" name="LDOWNSAMPLE"> F  </i>
   <i type="logical" name="LCHARG"> T  </i>
   <i type="logical" name="LPARD"> F  </i>
   <i type="logical" name="LVTOT"> T  </i>
   <i type="logical" name="LVHAR"> F  </i>
   <i type="logical" name="LELF"> F  </i>
   <i type="logical" name="LOPTICS"> F  </i>
   <v name="STM">      0.00000000      0.00000000      0.00000000      0.00000000      0.00000000      0.00000000      0.00000000</v>
  </separator>
  <separator name="performance" >
   <i type="int" name="NPAR">     4</i>
   <i type="int" name="NSIM">     4</i>
   <i type="int" name="NBLK">    -1</i>
   <i type="logical" name="LPLANE"> T  </i>
   <i type="logical" name="LSCALAPACK"> T  </i>
   <i type="logical" name="LSCAAWARE"> F  </i>
   <i type="logical" name="LSCALU"> F  </i>
   <i type="logical" name="LASYNC"> F  </i>
   <i type="logical" name="LORBITALREAL"> F  </i>
  </separator>
  <separator name="miscellaneous" >
   <i type="int" name="IDIOT">     3</i>
   <i type="int" name="PHON_NSTRUCT">    -1</i>
   <i type="logical" name="LMUSIC"> F  </i>
   <v name="POMASS">      1.00000000     12.01100000     14.00100000    126.90400000    207.20000000</v>
   <v name="DARWINR">      0.00000000      0.00000000      0.00000000      0.00000000      0.00000000</v>
   <v name="DARWINV">      1.00000000      1.00000000      1.00000000      1.00000000      1.00000000</v>
   <i type="logical" name="LCORR"> T  </i>
  </separator>
  <i type="logical" name="GGA_COMPAT"> F  </i>
  <i type="logical" name="LBERRY"> F  </i>
  <i type="int" name="ICORELEVEL">     0</i>
  <i type="logical" name="LDAU"> F  </i>
  <i type="int" name="I_CONSTRAINED_M">     0</i>
  <separator name="electronic exchange-correlation" >
   <i type="string" name="GGA">--</i>
   <i type="int" name="VOSKOWN">     0</i>
   <i type="logical" name="LHFCALC"> F  </i>
   <i type="string" name="PRECFOCK"></i>
   <i type="logical" name="LSYMGRAD"> F  </i>
   <i type="logical" name="LHFONE"> F  </i>
   <i type="logical" name="LRHFCALC"> F  </i>
   <i type="logical" name="LTHOMAS"> F  </i>
   <i type="logical" name="LMODELHF"> F  </i>
   <i type="logical" name="LFOCKACE"> F  </i>
   <i name="ENCUT4O">     -1.00000000</i>
   <i type="int" name="EXXOEP">     0</i>
   <i type="int" name="FOURORBIT">     0</i>
   <i name="AEXX">      0.00000000</i>
   <i name="HFALPHA">      0.00000000</i>
   <i name="MCALPHA">      0.00000000</i>
   <i name="ALDAX">      1.00000000</i>
   <i name="AGGAX">      1.00000000</i>
   <i name="ALDAC">      1.00000000</i>
   <i name="AGGAC">      1.00000000</i>
   <i type="int" name="NKREDX">     1</i>
   <i type="int" name="NKREDY">     1</i>
   <i type="int" name="NKREDZ">     1</i>
   <i type="logical" name="SHIFTRED"> F  </i>
   <i type="logical" name="ODDONLY"> F  </i>
   <i type="logical" name="EVENONLY"> F  </i>
   <i type="int" name="LMAXFOCK">     0</i>
   <i type="int" name="NMAXFOCKAE">     0</i>
   <i type="logical" name="LFOCKAEDFT"> F  </i>
   <i name="HFSCREEN">      0.00000000</i>
   <i name="HFSCREENC">      0.00000000</i>
   <i type="int" name="NBANDSGWLOW">     0</i>
  </separator>
  <separator name="vdW DFT" >
   <i type="logical" name="LUSE_VDW"> F  </i>
   <i name="Zab_VDW">     -0.84910000</i>
   <i name="PARAM1">      0.12340000</i>
   <i name="PARAM2">      1.00000000</i>
   <i name="PARAM3">      0.00000000</i>
  </separator>
  <separator name="model GW" >
   <i type="int" name="MODEL_GW">     0</i>
   <i name="MODEL_EPS0">     37.63423484</i>
   <i name="MODEL_ALPHA">      1.00000000</i>
  </separator>
  <separator name="linear response parameters" >
   <i type="logical" name="LEPSILON"> F  </i>
   <i type="logical" name="LRPA"> F  </i>
   <i type="logical" name="LNABLA"> F  </i>
   <i type="logical" name="LVEL"> F  </i>
   <i type="int" name="KINTER">     0</i>
   <i name="CSHIFT">      0.10000000</i>
   <i name="OMEGAMAX">     -1.00000000</i>
   <i name="DEG_THRESHOLD">      0.00200000</i>
   <i name="RTIME">     -0.10000000</i>
   <i name="WPLASMAI">      0.00000000</i>
   <v name="DFIELD">      0.00000000      0.00000000      0.00000000</v>
   <v name="WPLASMA">      0.00000000      0.00000000      0.00000000      0.00000000      0.00000000      0.00000000      0.00000000      0.00000000      0.00000000</v>
  </separator>
  <separator name="orbital magnetization" >
   <i type="logical" name="NUCIND"> F  </i>
   <v name="MAGPOS">      0.00000000      0.00000000      0.00000000</v>
   <i type="logical" name="LNICSALL"> T  </i>
   <i type="logical" name="ORBITALMAG"> F  </i>
   <i type="logical" name="LMAGBLOCH"> F  </i>
   <i type="logical" name="LCHIMAG"> F  </i>
   <i type="logical" name="LGAUGE"> T  </i>
   <i type="int" name="MAGATOM">     0</i>
   <v name="MAGDIPOL">      0.00000000      0.00000000      0.00000000</v>
   <v name="AVECCONST">      0.00000000      0.00000000      0.00000000</v>
  </separator>
  <separator name="response functions" >
   <i type="logical" name="LFINITE_TEMPERATURE"> F  </i>
   <i type="logical" name="LADDER"> F  </i>
   <i type="logical" name="LRPAFORCE"> F  </i>
   <i type="logical" name="LFXC"> F  </i>
   <i type="logical" name="LHARTREE"> T  </i>
   <i type="int" name="IBSE">     0</i>
   <v type="int" name="KPOINT">    -1     0     0     0</v>
   <i type="logical" name="LTCTC"> F  </i>
   <i type="logical" name="LTCTE"> F  </i>
   <i type="logical" name="LTETE"> F  </i>
   <i type="logical" name="LTRIPLET"> F  </i>
   <i type="logical" name="LFXCEPS"> F  </i>
   <i type="logical" name="LFXHEG"> F  </i>
   <i type="int" name="NATURALO">     2</i>
   <i type="logical" name="LHOLEGF"> F  </i>
   <i type="logical" name="L2ORDER"> F  </i>
   <i type="logical" name="LDMP1"> F  </i>
   <i type="logical" name="LMP2LT"> F  </i>
   <i type="logical" name="LSMP2LT"> F  </i>
   <i type="logical" name="LGWLF"> F  </i>
   <i name="ENCUTGW">     -2.00000000</i>
   <i name="ENCUTGWSOFT">     -2.00000000</i>
   <i name="ENCUTLF">     -1.00000000</i>
   <i type="logical" name="LESF_SPLINES"> F  </i>
   <i type="int" name="LMAXMP2">    -1</i>
   <i name="SCISSOR">      0.00000000</i>
   <i type="int" name="NOMEGA">     0</i>
   <i type="int" name="NOMEGAR">     0</i>
   <i type="int" name="NBANDSGW">    -1</i>
   <i type="int" name="NBANDSO">    -1</i>
   <i type="int" name="NBANDSV">    -1</i>
   <i type="int" name="NELM">   600</i>
   <i type="int" name="NELMHF">     1</i>
   <i type="int" name="DIM">     3</i>
   <i type="int" name="IESPILON">     4</i>
   <i type="int" name="ANTIRES">     0</i>
   <i name="OMEGAMAX">    -30.00000000</i>
   <i name="OMEGAMIN">    -30.00000000</i>
   <i name="OMEGATL">   -200.00000000</i>
   <i type="int" name="OMEGAGRID">     0</i>
   <i name="CSHIFT">     -0.10000000</i>
   <i type="logical" name="LSELFENERGY"> F  </i>
   <i type="logical" name="LSPECTRAL"> F  </i>
   <i type="logical" name="LSPECTRALGW"> F  </i>
   <i type="logical" name="LSINGLES"> F  </i>
   <i type="logical" name="LFERMIGW"> F  </i>
   <i type="logical" name="ODDONLYGW"> F  </i>
   <i type="logical" name="EVENONLYGW"> F  </i>
   <i type="int" name="NKREDLFX">     1</i>
   <i type="int" name="NKREDLFY">     1</i>
   <i type="int" name="NKREDLFZ">     1</i>
   <i type="int" name="MAXMEM">  2800</i>
   <i type="int" name="TELESCOPE">     0</i>
   <i type="int" name="NTAUPAR">    -1</i>
   <i type="int" name="NOMEGAPAR">    -1</i>
   <i name="DAMP_NEWTON">      0.80000001</i>
   <i name="LAMBDA">      1.00000000</i>
  </separator>
  <separator name="External order field" >
   <i name="OFIELD_KAPPA">      0.00000000</i>
   <v name="OFIELD_K">      0.00000000      0.00000000      0.00000000</v>
   <i name="OFIELD_Q6_NEAR">      0.00000000</i>
   <i name="OFIELD_Q6_FAR">      0.00000000</i>
   <i name="OFIELD_A">      0.00000000</i>
  </separator>
 </parameters>
 <atominfo>
  <atoms>     325 </atoms>
  <types>       5 </types>
  <array name="atoms" >
   <dimension dim="1">ion</dimension>
   <field type="string">element</field>
   <field type="int">atomtype</field>
   <set>
    <rc><c>H </c><c>   1</c></rc>
    <rc><c>H </c><c>   1</c></rc>
    <rc><c>H </c><c>   1</c></rc>
    <rc><c>H </c><c>   1</c></rc>
    <rc><c>H </c><c>   1</c></rc>
    <rc><c>H </c><c>   1</c></rc>
    <rc><c>H </c><c>   1</c></rc>
    <rc><c>H </c><c>   1</c></rc>
    <rc><c>H </c><c>   1</c></rc>
    <rc><c>H </c><c>   1</c></rc>
    <rc><c>H </c><c>   1</c></rc>
    <rc><c>H </c><c>   1</c></rc>
    <rc><c>H </c><c>   1</c></rc>
    <rc><c>H </c><c>   1</c></rc>
    <rc><c>H </c><c>   1</c></rc>
    <rc><c>H </c><c>   1</c></rc>
    <rc><c>H </c><c>   1</c></rc>
    <rc><c>H </c><c>   1</c></rc>
    <rc><c>H </c><c>   1</c></rc>
    <rc><c>H </c><c>   1</c></rc>
    <rc><c>H </c><c>   1</c></rc>
    <rc><c>H </c><c>   1</c></rc>
    <rc><c>H </c><c>   1</c></rc>
    <rc><c>H </c><c>   1</c></rc>
    <rc><c>H </c><c>   1</c></rc>
    <rc><c>H </c><c>   1</c></rc>
    <rc><c>H </c><c>   1</c></rc>
    <rc><c>H </c><c>   1</c></rc>
    <rc><c>H </c><c>   1</c></rc>
    <rc><c>H </c><c>   1</c></rc>
    <rc><c>H </c><c>   1</c></rc>
    <rc><c>H </c><c>   1</c></rc>
    <rc><c>H </c><c>   1</c></rc>
    <rc><c>H </c><c>   1</c></rc>
    <rc><c>H </c><c>   1</c></rc>
    <rc><c>H </c><c>   1</c></rc>
    <rc><c>H </c><c>   1</c></rc>
    <rc><c>H </c><c>   1</c></rc>
    <rc><c>H </c><c>   1</c></rc>
    <rc><c>H </c><c>   1</c></rc>
    <rc><c>H </c><c>   1</c></rc>
    <rc><c>H </c><c>   1</c></rc>
    <rc><c>H </c><c>   1</c></rc>
    <rc><c>H </c><c>   1</c></rc>
    <rc><c>H </c><c>   1</c></rc>
    <rc><c>H </c><c>   1</c></rc>
    <rc><c>H </c><c>   1</c></rc>
    <rc><c>H </c><c>   1</c></rc>
    <rc><c>H </c><c>   1</c></rc>
    <rc><c>H </c><c>   1</c></rc>
    <rc><c>H </c><c>   1</c></rc>
    <rc><c>H </c><c>   1</c></rc>
    <rc><c>H </c><c>   1</c></rc>
    <rc><c>H </c><c>   1</c></rc>
    <rc><c>H </c><c>   1</c></rc>
    <rc><c>H </c><c>   1</c></rc>
    <rc><c>H </c><c>   1</c></rc>
    <rc><c>H </c><c>   1</c></rc>
    <rc><c>H </c><c>   1</c></rc>
    <rc><c>H </c><c>   1</c></rc>
    <rc><c>H </c><c>   1</c></rc>
    <rc><c>H </c><c>   1</c></rc>
    <rc><c>H </c><c>   1</c></rc>
    <rc><c>H </c><c>   1</c></rc>
    <rc><c>H </c><c>   1</c></rc>
    <rc><c>H </c><c>   1</c></rc>
    <rc><c>H </c><c>   1</c></rc>
    <rc><c>H </c><c>   1</c></rc>
    <rc><c>H </c><c>   1</c></rc>
    <rc><c>H </c><c>   1</c></rc>
    <rc><c>H </c><c>   1</c></rc>
    <rc><c>H </c><c>   1</c></rc>
    <rc><c>H </c><c>   1</c></rc>
    <rc><c>H </c><c>   1</c></rc>
    <rc><c>H </c><c>   1</c></rc>
    <rc><c>H </c><c>   1</c></rc>
    <rc><c>H </c><c>   1</c></rc>
    <rc><c>H </c><c>   1</c></rc>
    <rc><c>H </c><c>   1</c></rc>
    <rc><c>H </c><c>   1</c></rc>
    <rc><c>H </c><c>   1</c></rc>
    <rc><c>H </c><c>   1</c></rc>
    <rc><c>H </c><c>   1</c></rc>
    <rc><c>H </c><c>   1</c></rc>
    <rc><c>H </c><c>   1</c></rc>
    <rc><c>H </c><c>   1</c></rc>
    <rc><c>H </c><c>   1</c></rc>
    <rc><c>H </c><c>   1</c></rc>
    <rc><c>H </c><c>   1</c></rc>
    <rc><c>H </c><c>   1</c></rc>
    <rc><c>H </c><c>   1</c></rc>
    <rc><c>H </c><c>   1</c></rc>
    <rc><c>H </c><c>   1</c></rc>
    <rc><c>H </c><c>   1</c></rc>
    <rc><c>H </c><c>   1</c></rc>
    <rc><c>H </c><c>   1</c></rc>
    <rc><c>H </c><c>   1</c></rc>
    <rc><c>H </c><c>   1</c></rc>
    <rc><c>H </c><c>   1</c></rc>
    <rc><c>H </c><c>   1</c></rc>
    <rc><c>H </c><c>   1</c></rc>
    <rc><c>H </c><c>   1</c></rc>
    <rc><c>H </c><c>   1</c></rc>
    <rc><c>H </c><c>   1</c></rc>
    <rc><c>H </c><c>   1</c></rc>
    <rc><c>H </c><c>   1</c></rc>
    <rc><c>H </c><c>   1</c></rc>
    <rc><c>H </c><c>   1</c></rc>
    <rc><c>H </c><c>   1</c></rc>
    <rc><c>H </c><c>   1</c></rc>
    <rc><c>H </c><c>   1</c></rc>
    <rc><c>H </c><c>   1</c></rc>
    <rc><c>H </c><c>   1</c></rc>
    <rc><c>H </c><c>   1</c></rc>
    <rc><c>H </c><c>   1</c></rc>
    <rc><c>H </c><c>   1</c></rc>
    <rc><c>H </c><c>   1</c></rc>
    <rc><c>H </c><c>   1</c></rc>
    <rc><c>H </c><c>   1</c></rc>
    <rc><c>H </c><c>   1</c></rc>
    <rc><c>H </c><c>   1</c></rc>
    <rc><c>H </c><c>   1</c></rc>
    <rc><c>H </c><c>   1</c></rc>
    <rc><c>H </c><c>   1</c></rc>
    <rc><c>H </c><c>   1</c></rc>
    <rc><c>H </c><c>   1</c></rc>
    <rc><c>H </c><c>   1</c></rc>
    <rc><c>H </c><c>   1</c></rc>
    <rc><c>H </c><c>   1</c></rc>
    <rc><c>H </c><c>   1</c></rc>
    <rc><c>H </c><c>   1</c></rc>
    <rc><c>H </c><c>   1</c></rc>
    <rc><c>H </c><c>   1</c></rc>
    <rc><c>H </c><c>   1</c></rc>
    <rc><c>H </c><c>   1</c></rc>
    <rc><c>H </c><c>   1</c></rc>
    <rc><c>H </c><c>   1</c></rc>
    <rc><c>H </c><c>   1</c></rc>
    <rc><c>H </c><c>   1</c></rc>
    <rc><c>H </c><c>   1</c></rc>
    <rc><c>H </c><c>   1</c></rc>
    <rc><c>H </c><c>   1</c></rc>
    <rc><c>H </c><c>   1</c></rc>
    <rc><c>C </c><c>   2</c></rc>
    <rc><c>C </c><c>   2</c></rc>
    <rc><c>C </c><c>   2</c></rc>
    <rc><c>C </c><c>   2</c></rc>
    <rc><c>C </c><c>   2</c></rc>
    <rc><c>C </c><c>   2</c></rc>
    <rc><c>C </c><c>   2</c></rc>
    <rc><c>C </c><c>   2</c></rc>
    <rc><c>C </c><c>   2</c></rc>
    <rc><c>C </c><c>   2</c></rc>
    <rc><c>C </c><c>   2</c></rc>
    <rc><c>C </c><c>   2</c></rc>
    <rc><c>C </c><c>   2</c></rc>
    <rc><c>C </c><c>   2</c></rc>
    <rc><c>C </c><c>   2</c></rc>
    <rc><c>C </c><c>   2</c></rc>
    <rc><c>C </c><c>   2</c></rc>
    <rc><c>C </c><c>   2</c></rc>
    <rc><c>C </c><c>   2</c></rc>
    <rc><c>C </c><c>   2</c></rc>
    <rc><c>C </c><c>   2</c></rc>
    <rc><c>C </c><c>   2</c></rc>
    <rc><c>C </c><c>   2</c></rc>
    <rc><c>C </c><c>   2</c></rc>
    <rc><c>C </c><c>   2</c></rc>
    <rc><c>C </c><c>   2</c></rc>
    <rc><c>C </c><c>   2</c></rc>
    <rc><c>C </c><c>   2</c></rc>
    <rc><c>C </c><c>   2</c></rc>
    <rc><c>C </c><c>   2</c></rc>
    <rc><c>C </c><c>   2</c></rc>
    <rc><c>C </c><c>   2</c></rc>
    <rc><c>C </c><c>   2</c></rc>
    <rc><c>C </c><c>   2</c></rc>
    <rc><c>C </c><c>   2</c></rc>
    <rc><c>C </c><c>   2</c></rc>
    <rc><c>C </c><c>   2</c></rc>
    <rc><c>C </c><c>   2</c></rc>
    <rc><c>C </c><c>   2</c></rc>
    <rc><c>N </c><c>   3</c></rc>
    <rc><c>N </c><c>   3</c></rc>
    <rc><c>N </c><c>   3</c></rc>
    <rc><c>N </c><c>   3</c></rc>
    <rc><c>N </c><c>   3</c></rc>
    <rc><c>N </c><c>   3</c></rc>
    <rc><c>N </c><c>   3</c></rc>
    <rc><c>N </c><c>   3</c></rc>
    <rc><c>N </c><c>   3</c></rc>
    <rc><c>N </c><c>   3</c></rc>
    <rc><c>N </c><c>   3</c></rc>
    <rc><c>N </c><c>   3</c></rc>
    <rc><c>N </c><c>   3</c></rc>
    <rc><c>N </c><c>   3</c></rc>
    <rc><c>N </c><c>   3</c></rc>
    <rc><c>N </c><c>   3</c></rc>
    <rc><c>N </c><c>   3</c></rc>
    <rc><c>N </c><c>   3</c></rc>
    <rc><c>N </c><c>   3</c></rc>
    <rc><c>N </c><c>   3</c></rc>
    <rc><c>N </c><c>   3</c></rc>
    <rc><c>N </c><c>   3</c></rc>
    <rc><c>N </c><c>   3</c></rc>
    <rc><c>N </c><c>   3</c></rc>
    <rc><c>N </c><c>   3</c></rc>
    <rc><c>N </c><c>   3</c></rc>
    <rc><c>N </c><c>   3</c></rc>
    <rc><c>N </c><c>   3</c></rc>
    <rc><c>N </c><c>   3</c></rc>
    <rc><c>N </c><c>   3</c></rc>
    <rc><c>N </c><c>   3</c></rc>
    <rc><c>N </c><c>   3</c></rc>
    <rc><c>N </c><c>   3</c></rc>
    <rc><c>N </c><c>   3</c></rc>
    <rc><c>N </c><c>   3</c></rc>
    <rc><c>N </c><c>   3</c></rc>
    <rc><c>N </c><c>   3</c></rc>
    <rc><c>N </c><c>   3</c></rc>
    <rc><c>N </c><c>   3</c></rc>
    <rc><c>N </c><c>   3</c></rc>
    <rc><c>N </c><c>   3</c></rc>
    <rc><c>N </c><c>   3</c></rc>
    <rc><c>N </c><c>   3</c></rc>
    <rc><c>N </c><c>   3</c></rc>
    <rc><c>N </c><c>   3</c></rc>
    <rc><c>N </c><c>   3</c></rc>
    <rc><c>N </c><c>   3</c></rc>
    <rc><c>I </c><c>   4</c></rc>
    <rc><c>I </c><c>   4</c></rc>
    <rc><c>I </c><c>   4</c></rc>
    <rc><c>I </c><c>   4</c></rc>
    <rc><c>I </c><c>   4</c></rc>
    <rc><c>I </c><c>   4</c></rc>
    <rc><c>I </c><c>   4</c></rc>
    <rc><c>I </c><c>   4</c></rc>
    <rc><c>I </c><c>   4</c></rc>
    <rc><c>I </c><c>   4</c></rc>
    <rc><c>I </c><c>   4</c></rc>
    <rc><c>I </c><c>   4</c></rc>
    <rc><c>I </c><c>   4</c></rc>
    <rc><c>I </c><c>   4</c></rc>
    <rc><c>I </c><c>   4</c></rc>
    <rc><c>I </c><c>   4</c></rc>
    <rc><c>I </c><c>   4</c></rc>
    <rc><c>I </c><c>   4</c></rc>
    <rc><c>I </c><c>   4</c></rc>
    <rc><c>I </c><c>   4</c></rc>
    <rc><c>I </c><c>   4</c></rc>
    <rc><c>I </c><c>   4</c></rc>
    <rc><c>I </c><c>   4</c></rc>
    <rc><c>I </c><c>   4</c></rc>
    <rc><c>I </c><c>   4</c></rc>
    <rc><c>I </c><c>   4</c></rc>
    <rc><c>I </c><c>   4</c></rc>
    <rc><c>I </c><c>   4</c></rc>
    <rc><c>I </c><c>   4</c></rc>
    <rc><c>I </c><c>   4</c></rc>
    <rc><c>I </c><c>   4</c></rc>
    <rc><c>I </c><c>   4</c></rc>
    <rc><c>I </c><c>   4</c></rc>
    <rc><c>I </c><c>   4</c></rc>
    <rc><c>I </c><c>   4</c></rc>
    <rc><c>I </c><c>   4</c></rc>
    <rc><c>I </c><c>   4</c></rc>
    <rc><c>I </c><c>   4</c></rc>
    <rc><c>I </c><c>   4</c></rc>
    <rc><c>I </c><c>   4</c></rc>
    <rc><c>I </c><c>   4</c></rc>
    <rc><c>I </c><c>   4</c></rc>
    <rc><c>I </c><c>   4</c></rc>
    <rc><c>I </c><c>   4</c></rc>
    <rc><c>I </c><c>   4</c></rc>
    <rc><c>I </c><c>   4</c></rc>
    <rc><c>I </c><c>   4</c></rc>
    <rc><c>I </c><c>   4</c></rc>
    <rc><c>I </c><c>   4</c></rc>
    <rc><c>I </c><c>   4</c></rc>
    <rc><c>I </c><c>   4</c></rc>
    <rc><c>I </c><c>   4</c></rc>
    <rc><c>I </c><c>   4</c></rc>
    <rc><c>I </c><c>   4</c></rc>
    <rc><c>I </c><c>   4</c></rc>
    <rc><c>I </c><c>   4</c></rc>
    <rc><c>I </c><c>   4</c></rc>
    <rc><c>I </c><c>   4</c></rc>
    <rc><c>I </c><c>   4</c></rc>
    <rc><c>I </c><c>   4</c></rc>
    <rc><c>I </c><c>   4</c></rc>
    <rc><c>I </c><c>   4</c></rc>
    <rc><c>I </c><c>   4</c></rc>
    <rc><c>I </c><c>   4</c></rc>
    <rc><c>I </c><c>   4</c></rc>
    <rc><c>I </c><c>   4</c></rc>
    <rc><c>I </c><c>   4</c></rc>
    <rc><c>I </c><c>   4</c></rc>
    <rc><c>I </c><c>   4</c></rc>
    <rc><c>I </c><c>   4</c></rc>
    <rc><c>I </c><c>   4</c></rc>
    <rc><c>I </c><c>   4</c></rc>
    <rc><c>Pb</c><c>   5</c></rc>
    <rc><c>Pb</c><c>   5</c></rc>
    <rc><c>Pb</c><c>   5</c></rc>
    <rc><c>Pb</c><c>   5</c></rc>
    <rc><c>Pb</c><c>   5</c></rc>
    <rc><c>Pb</c><c>   5</c></rc>
    <rc><c>Pb</c><c>   5</c></rc>
    <rc><c>Pb</c><c>   5</c></rc>
    <rc><c>Pb</c><c>   5</c></rc>
    <rc><c>Pb</c><c>   5</c></rc>
    <rc><c>Pb</c><c>   5</c></rc>
    <rc><c>Pb</c><c>   5</c></rc>
    <rc><c>Pb</c><c>   5</c></rc>
    <rc><c>Pb</c><c>   5</c></rc>
    <rc><c>Pb</c><c>   5</c></rc>
    <rc><c>Pb</c><c>   5</c></rc>
    <rc><c>Pb</c><c>   5</c></rc>
    <rc><c>Pb</c><c>   5</c></rc>
    <rc><c>Pb</c><c>   5</c></rc>
    <rc><c>Pb</c><c>   5</c></rc>
    <rc><c>Pb</c><c>   5</c></rc>
    <rc><c>Pb</c><c>   5</c></rc>
    <rc><c>Pb</c><c>   5</c></rc>
    <rc><c>Pb</c><c>   5</c></rc>
   </set>
  </array>
  <array name="atomtypes" >
   <dimension dim="1">type</dimension>
   <field type="int">atomspertype</field>
   <field type="string">element</field>
   <field>mass</field>
   <field>valence</field>
   <field type="string">pseudopotential</field>
   <set>
    <rc><c> 143</c><c>H </c><c>      1.00000000</c><c>      1.00000000</c><c>  PAW_PBE H 15Jun2001                   </c></rc>
    <rc><c>  39</c><c>C </c><c>     12.01100000</c><c>      4.00000000</c><c>  PAW_PBE C 08Apr2002                   </c></rc>
    <rc><c>  47</c><c>N </c><c>     14.00100000</c><c>      5.00000000</c><c>  PAW_PBE N 08Apr2002                   </c></rc>
    <rc><c>  72</c><c>I </c><c>    126.90400000</c><c>      7.00000000</c><c>  PAW_PBE I 08Apr2002                   </c></rc>
    <rc><c>  24</c><c>Pb</c><c>    207.20000000</c><c>      4.00000000</c><c>  PAW_PBE Pb 08Apr2002                  </c></rc>
   </set>
  </array>
 </atominfo>
 <structure name="initialpos" >
  <crystal>
   <varray name="basis" >
    <v>      18.06080055       0.00000000       0.00000000 </v>
    <v>      -0.00491865      18.06279945       0.00000000 </v>
    <v>       0.00000000       0.00000000      62.48749924 </v>
   </varray>
   <i name="volume">  20385.21054034 </i>
   <varray name="rec_basis" >
    <v>       0.05536853       0.00001508      -0.00000000 </v>
    <v>       0.00000000       0.05536240       0.00000000 </v>
    <v>       0.00000000      -0.00000000       0.01600320 </v>
   </varray>
  </crystal>
  <varray name="positions" >
   <v>       0.46660474       0.33919636       0.56359893 </v>
   <v>       0.43869100       0.82405488       0.57472842 </v>
   <v>       0.92368393       0.27744670       0.57747610 </v>
   <v>       0.93585970       0.81803583       0.57263345 </v>
   <v>       0.32074048       0.07878807       0.57044570 </v>
   <v>       0.34770116       0.54278134       0.55667805 </v>
   <v>       0.80598811       0.09213434       0.56609028 </v>
   <v>       0.10848716       0.25070063       0.55660669 </v>
   <v>       0.07479725       0.67462233       0.57670696 </v>
   <v>       0.54958870       0.15529062       0.56084521 </v>
   <v>       0.50422564       0.64383171       0.55702199 </v>
   <v>       0.37532106       0.01551117       0.55669399 </v>
   <v>       0.29558612       0.62346305       0.55155044 </v>
   <v>       0.87692186       0.03299786       0.55677854 </v>
   <v>       0.05920281       0.28191154       0.57868563 </v>
   <v>       0.98644865       0.69701669       0.58553020 </v>
   <v>       0.57186905       0.24698060       0.56734907 </v>
   <v>       0.44817499       0.68628334       0.57572013 </v>
   <v>       0.27213753       0.43678874       0.57225246 </v>
   <v>       0.18703922       0.05812466       0.57202298 </v>
   <v>       0.68497860       0.03186784       0.57505740 </v>
   <v>       0.38225396       0.29940769       0.55541944 </v>
   <v>       0.49659913       0.86938952       0.55672353 </v>
   <v>       0.88170311       0.23733365       0.55510376 </v>
   <v>       0.98947864       0.86770089       0.55442974 </v>
   <v>       0.17603443       0.44663155       0.56969604 </v>
   <v>       0.15156600       0.98034324       0.55933416 </v>
   <v>       0.68025293       0.93677616       0.56868314 </v>
   <v>       0.42926877       0.18349493       0.55200451 </v>
   <v>       0.54440646       0.75849803       0.54271182 </v>
   <v>       0.99806145       0.21822435       0.53813840 </v>
   <v>       0.08394047       0.77844468       0.55443145 </v>
   <v>       0.18241736       0.56449551       0.55653905 </v>
   <v>       0.27011277       0.94080128       0.54809486 </v>
   <v>       0.79893678       0.92966532       0.55676376 </v>
   <v>       0.44443067       0.30076726       0.67211478 </v>
   <v>       0.45054933       0.80740644       0.67363712 </v>
   <v>       0.94405052       0.28242798       0.67447798 </v>
   <v>       0.92113084       0.73434292       0.66901247 </v>
   <v>       0.30098902       0.05299678       0.67258289 </v>
   <v>       0.29469356       0.55947397       0.67405486 </v>
   <v>       0.80475909       0.05484067       0.67459471 </v>
   <v>       0.84296274       0.47002146       0.66258309 </v>
   <v>       0.08759222       0.16962216       0.64846637 </v>
   <v>       0.11313880       0.71208378       0.65299346 </v>
   <v>       0.57973904       0.17035403       0.64974135 </v>
   <v>       0.57045195       0.66904795       0.64788013 </v>
   <v>       0.18527341       0.41133595       0.64860574 </v>
   <v>       0.16912964       0.92412623       0.64749352 </v>
   <v>       0.64234385       0.47371804       0.65571733 </v>
   <v>       0.67461136       0.92034312       0.65131618 </v>
   <v>       0.05238311       0.18590028       0.67388240 </v>
   <v>       0.04287948       0.66813941       0.66728898 </v>
   <v>       0.54707925       0.20098868       0.67445417 </v>
   <v>       0.54620734       0.69823140       0.67343426 </v>
   <v>       0.20289597       0.44738973       0.67394064 </v>
   <v>       0.19737842       0.95087127       0.67296456 </v>
   <v>       0.71342785       0.41504887       0.66371423 </v>
   <v>       0.70264822       0.95184390       0.67630544 </v>
   <v>       0.41933268       0.32436240       0.64622630 </v>
   <v>       0.42379650       0.83602760       0.64813397 </v>
   <v>       0.92345912       0.31916966       0.64951181 </v>
   <v>       0.91549915       0.81729735       0.65514276 </v>
   <v>       0.32835246       0.07920360       0.64699727 </v>
   <v>       0.32389308       0.58635745       0.64860574 </v>
   <v>       0.82964508       0.07924198       0.64848926 </v>
   <v>       0.84985756       0.55747711       0.65115429 </v>
   <v>       0.01134721       0.25211502       0.63147762 </v>
   <v>       0.03763959       0.81211093       0.64337087 </v>
   <v>       0.50222424       0.24583099       0.63003281 </v>
   <v>       0.49535267       0.75177086       0.63037181 </v>
   <v>       0.24774552       0.00113865       0.62955939 </v>
   <v>       0.26013929       0.49394331       0.63098485 </v>
   <v>       0.75147186       0.99703155       0.63220659 </v>
   <v>       0.72298480       0.57049892       0.64645614 </v>
   <v>       0.44874502       0.30128397       0.76888902 </v>
   <v>       0.44874501       0.80128391       0.76888902 </v>
   <v>       0.94874497       0.30128397       0.76888902 </v>
   <v>       0.94874501       0.80128391       0.76888902 </v>
   <v>       0.30127600       0.05129450       0.76887296 </v>
   <v>       0.30127601       0.55129450       0.76887296 </v>
   <v>       0.80127594       0.05129450       0.76887296 </v>
   <v>       0.80127598       0.55129450       0.76887296 </v>
   <v>       0.07877100       0.17118050       0.74344197 </v>
   <v>       0.07877101       0.67118045       0.74344197 </v>
   <v>       0.57877100       0.17118050       0.74344197 </v>
   <v>       0.57877099       0.67118045       0.74344197 </v>
   <v>       0.17119950       0.42117448       0.74342103 </v>
   <v>       0.17119950       0.92117451       0.74342103 </v>
   <v>       0.67119951       0.42117448       0.74342103 </v>
   <v>       0.67119950       0.92117451       0.74342103 </v>
   <v>       0.05125600       0.19871499       0.76888902 </v>
   <v>       0.05125600       0.69871493       0.76888902 </v>
   <v>       0.55125603       0.19871499       0.76888902 </v>
   <v>       0.55125602       0.69871493       0.76888902 </v>
   <v>       0.19872349       0.44870397       0.76887205 </v>
   <v>       0.19872349       0.94870397       0.76887205 </v>
   <v>       0.69872352       0.44870397       0.76887205 </v>
   <v>       0.69872351       0.94870397       0.76887205 </v>
   <v>       0.42123152       0.32881747       0.74344197 </v>
   <v>       0.42123151       0.82881744       0.74344197 </v>
   <v>       0.92123147       0.32881747       0.74344197 </v>
   <v>       0.92123151       0.82881744       0.74344197 </v>
   <v>       0.32880050       0.07882500       0.74342103 </v>
   <v>       0.32880049       0.57882496       0.74342103 </v>
   <v>       0.82880048       0.07882500       0.74342103 </v>
   <v>       0.82880052       0.57882496       0.74342103 </v>
   <v>       0.00000350       0.25000148       0.72582199 </v>
   <v>       0.00000350       0.75000145       0.72582199 </v>
   <v>       0.50000351       0.25000148       0.72582199 </v>
   <v>       0.50000350       0.75000145       0.72582199 </v>
   <v>       0.25000050       0.00000000       0.72580398 </v>
   <v>       0.25000052       0.50000000       0.72580398 </v>
   <v>       0.75000050       0.00000000       0.72580398 </v>
   <v>       0.75000049       0.50000000       0.72580398 </v>
   <v>       0.72027546       0.44391817       0.53936502 </v>
   <v>       0.74075349       0.49558500       0.51625878 </v>
   <v>       0.66281533       0.55231740       0.55646469 </v>
   <v>       0.70932550       0.63843336       0.55515175 </v>
   <v>       0.85256323       0.50885259       0.56728235 </v>
   <v>       0.79270406       0.57859582       0.57707905 </v>
   <v>       0.87749991       0.55981346       0.53094464 </v>
   <v>       0.80807986       0.62100785       0.52112779 </v>
   <v>       0.87309425       0.46096729       0.51777672 </v>
   <v>       0.86197884       0.42488088       0.54370909 </v>
   <v>       0.87263965       0.32577825       0.51846674 </v>
   <v>       0.78400650       0.32373057       0.52996861 </v>
   <v>       0.63840973       0.55169011       0.51803556 </v>
   <v>       0.69414345       0.63251585       0.51388232 </v>
   <v>       0.61174409       0.63775074       0.52896133 </v>
   <v>       0.76211325       0.46624052       0.59537134 </v>
   <v>       0.75450163       0.41277806       0.57186688 </v>
   <v>       0.68715549       0.48229313       0.57794030 </v>
   <v>       0.81874157       0.69156981       0.55728718 </v>
   <v>       0.89692931       0.69231500       0.54031602 </v>
   <v>       0.89713696       0.63309757       0.56293095 </v>
   <v>       0.82023860       0.38092558       0.48477274 </v>
   <v>       0.78655629       0.29201071       0.49135478 </v>
   <v>       0.66220178       0.30324675       0.51798727 </v>
   <v>       0.73279637       0.46165340       0.47079625 </v>
   <v>       0.53512722       0.35453415       0.51674355 </v>
   <v>       0.60486575       0.51234125       0.46899062 </v>
   <v>       0.50590695       0.46076930       0.49251080 </v>
   <v>       0.99501576       0.24155625       0.55419117 </v>
   <v>       0.03315258       0.76927182       0.56368464 </v>
   <v>       0.46648809       0.22788814       0.55702804 </v>
   <v>       0.50258625       0.75728643       0.55539252 </v>
   <v>       0.23436805       0.53460557       0.55953916 </v>
   <v>       0.26369621       0.99274063       0.55697700 </v>
   <v>       0.77834906       0.98340892       0.56241089 </v>
   <v>       0.00557018       0.24482757       0.64865824 </v>
   <v>       0.01529233       0.76728832       0.65334607 </v>
   <v>       0.49974629       0.24763279       0.64744157 </v>
   <v>       0.49653871       0.75221801       0.64773917 </v>
   <v>       0.25566772       0.49798894       0.64836479 </v>
   <v>       0.24890836       0.00163054       0.64701436 </v>
   <v>       0.74471112       0.51904688       0.65319144 </v>
   <v>       0.75249337       0.99986743       0.64965893 </v>
   <v>       0.49998898       0.24999498       0.74327702 </v>
   <v>       0.49998903       0.74999496       0.74327702 </v>
   <v>       0.99998898       0.24999498       0.74327702 </v>
   <v>       0.99998903       0.74999496       0.74327702 </v>
   <v>       0.25000050       0.00000100       0.74325596 </v>
   <v>       0.25000052       0.50000100       0.74325596 </v>
   <v>       0.75000050       0.00000100       0.74325596 </v>
   <v>       0.75000049       0.50000100       0.74325596 </v>
   <v>       0.70679988       0.37913566       0.49466693 </v>
   <v>       0.64976178       0.34916063       0.50729244 </v>
   <v>       0.68931478       0.43768369       0.48083238 </v>
   <v>       0.57836156       0.37784372       0.50654413 </v>
   <v>       0.61693253       0.46639373       0.47990983 </v>
   <v>       0.56174923       0.43712393       0.49284510 </v>
   <v>       0.76327104       0.47715850       0.53151647 </v>
   <v>       0.69858830       0.58679303       0.54645732 </v>
   <v>       0.79439540       0.52661046       0.56800472 </v>
   <v>       0.83194912       0.59639915       0.53562941 </v>
   <v>       0.83353077       0.43208111       0.52826704 </v>
   <v>       0.81917269       0.35508271       0.51886336 </v>
   <v>       0.65989805       0.60235822       0.52543743 </v>
   <v>       0.74617443       0.46852512       0.57847105 </v>
   <v>       0.86204246       0.65635142       0.55031466 </v>
   <v>       0.78527327       0.35072867       0.49632922 </v>
   <v>       0.05777567       0.25763457       0.56381492 </v>
   <v>       0.03010189       0.70912146       0.57539499 </v>
   <v>       0.53470723       0.20974855       0.56161868 </v>
   <v>       0.48298538       0.69219446       0.56283804 </v>
   <v>       0.43809610       0.29477462       0.55796585 </v>
   <v>       0.47556416       0.82015334       0.56215260 </v>
   <v>       0.92955244       0.25119761       0.56290250 </v>
   <v>       0.97927873       0.81822115       0.56212861 </v>
   <v>       0.22769938       0.46576470       0.56633373 </v>
   <v>       0.19685100       0.01157277       0.56311709 </v>
   <v>       0.70875271       0.98530315       0.56865060 </v>
   <v>       0.32330560       0.03206694       0.56116540 </v>
   <v>       0.29724744       0.56825935       0.55546932 </v>
   <v>       0.82351336       0.04022630       0.56211133 </v>
   <v>       0.05026986       0.19704940       0.65784923 </v>
   <v>       0.05905263       0.71104192       0.65770607 </v>
   <v>       0.54507219       0.20408012       0.65812107 </v>
   <v>       0.53940388       0.70332944       0.65717679 </v>
   <v>       0.21288752       0.44914399       0.65780521 </v>
   <v>       0.20232731       0.95644224       0.65668780 </v>
   <v>       0.69788145       0.46590736       0.65795362 </v>
   <v>       0.70792760       0.95447094       0.65998229 </v>
   <v>       0.45215454       0.29351323       0.65598173 </v>
   <v>       0.45475828       0.80130889       0.65737654 </v>
   <v>       0.95510515       0.28486784       0.65850054 </v>
   <v>       0.94635951       0.77324031       0.65972784 </v>
   <v>       0.29545051       0.04669774       0.65628611 </v>
   <v>       0.29343575       0.55047291       0.65785106 </v>
   <v>       0.79728487       0.04790712       0.65839011 </v>
   <v>       0.81688722       0.51472929       0.65581751 </v>
   <v>       0.04586250       0.20411950       0.75272599 </v>
   <v>       0.04586250       0.70411946       0.75272599 </v>
   <v>       0.54586251       0.20411950       0.75272599 </v>
   <v>       0.54586250       0.70411946       0.75272599 </v>
   <v>       0.20411900       0.45410100       0.75270499 </v>
   <v>       0.20411899       0.95410095       0.75270499 </v>
   <v>       0.70411898       0.45410100       0.75270499 </v>
   <v>       0.70411896       0.95410095       0.75270499 </v>
   <v>       0.45414002       0.29588849       0.75272697 </v>
   <v>       0.45414001       0.79588852       0.75272697 </v>
   <v>       0.95414002       0.29588849       0.75272697 </v>
[...]
   <v>       0.54958870       0.15529062       0.56084521 </v>
   <v>       0.50422564       0.64383171       0.55702199 </v>
   <v>       0.37532106       0.01551117       0.55669399 </v>
   <v>       0.29558612       0.62346305       0.55155044 </v>
   <v>       0.87692186       0.03299786       0.55677854 </v>
   <v>       0.05920281       0.28191154       0.57868563 </v>
   <v>       0.98644865       0.69701669       0.58553020 </v>
   <v>       0.57186905       0.24698060       0.56734907 </v>
   <v>       0.44817499       0.68628334       0.57572013 </v>
   <v>       0.27213753       0.43678874       0.57225246 </v>
   <v>       0.18703922       0.05812466       0.57202298 </v>
   <v>       0.68497860       0.03186784       0.57505740 </v>
   <v>       0.38225396       0.29940769       0.55541944 </v>
   <v>       0.49659913       0.86938952       0.55672353 </v>
   <v>       0.88170311       0.23733365       0.55510376 </v>
   <v>       0.98947864       0.86770089       0.55442974 </v>
   <v>       0.17603443       0.44663155       0.56969604 </v>
   <v>       0.15156600       0.98034324       0.55933416 </v>
   <v>       0.68025293       0.93677616       0.56868314 </v>
   <v>       0.42926877       0.18349493       0.55200451 </v>
   <v>       0.54440646       0.75849803       0.54271182 </v>
   <v>       0.99806145       0.21822435       0.53813840 </v>
   <v>       0.08394047       0.77844468       0.55443145 </v>
   <v>       0.18241736       0.56449551       0.55653905 </v>
   <v>       0.27011277       0.94080128       0.54809486 </v>
   <v>       0.79893678       0.92966532       0.55676376 </v>
   <v>       0.44443067       0.30076726       0.67211478 </v>
   <v>       0.45054933       0.80740644       0.67363712 </v>
   <v>       0.94405052       0.28242798       0.67447798 </v>
   <v>       0.92113084       0.73434292       0.66901247 </v>
   <v>       0.30098902       0.05299678       0.67258289 </v>
   <v>       0.29469356       0.55947397       0.67405486 </v>
   <v>       0.80475909       0.05484067       0.67459471 </v>
   <v>       0.84296274       0.47002146       0.66258309 </v>
   <v>       0.08759222       0.16962216       0.64846637 </v>
   <v>       0.11313880       0.71208378       0.65299346 </v>
   <v>       0.57973904       0.17035403       0.64974135 </v>
   <v>       0.57045195       0.66904795       0.64788013 </v>
   <v>       0.18527341       0.41133595       0.64860574 </v>
   <v>       0.16912964       0.92412623       0.64749352 </v>
   <v>       0.64234385       0.47371804       0.65571733 </v>
   <v>       0.67461136       0.92034312       0.65131618 </v>
   <v>       0.05238311       0.18590028       0.67388240 </v>
   <v>       0.04287948       0.66813941       0.66728898 </v>
   <v>       0.54707925       0.20098868       0.67445417 </v>
   <v>       0.54620734       0.69823140       0.67343426 </v>
   <v>       0.20289597       0.44738973       0.67394064 </v>
   <v>       0.19737842       0.95087127       0.67296456 </v>
   <v>       0.71342785       0.41504887       0.66371423 </v>
   <v>       0.70264822       0.95184390       0.67630544 </v>
   <v>       0.41933268       0.32436240       0.64622630 </v>
   <v>       0.42379650       0.83602760       0.64813397 </v>
   <v>       0.92345912       0.31916966       0.64951181 </v>
   <v>       0.91549915       0.81729735       0.65514276 </v>
   <v>       0.32835246       0.07920360       0.64699727 </v>
   <v>       0.32389308       0.58635745       0.64860574 </v>
   <v>       0.82964508       0.07924198       0.64848926 </v>
   <v>       0.84985756       0.55747711       0.65115429 </v>
   <v>       0.01134721       0.25211502       0.63147762 </v>
   <v>       0.03763959       0.81211093       0.64337087 </v>
   <v>       0.50222424       0.24583099       0.63003281 </v>
   <v>       0.49535267       0.75177086       0.63037181 </v>
   <v>       0.24774552       0.00113865       0.62955939 </v>
   <v>       0.26013929       0.49394331       0.63098485 </v>
   <v>       0.75147186       0.99703155       0.63220659 </v>
   <v>       0.72298480       0.57049892       0.64645614 </v>
   <v>       0.44874502       0.30128397       0.76888902 </v>
   <v>       0.44874501       0.80128391       0.76888902 </v>
   <v>       0.94874497       0.30128397       0.76888902 </v>
   <v>       0.94874501       0.80128391       0.76888902 </v>
   <v>       0.30127600       0.05129450       0.76887296 </v>
   <v>       0.30127601       0.55129450       0.76887296 </v>
   <v>       0.80127594       0.05129450       0.76887296 </v>
   <v>       0.80127598       0.55129450       0.76887296 </v>
   <v>       0.07877100       0.17118050       0.74344197 </v>
   <v>       0.07877101       0.67118045       0.74344197 </v>
   <v>       0.57877100       0.17118050       0.74344197 </v>
   <v>       0.57877099       0.67118045       0.74344197 </v>
   <v>       0.17119950       0.42117448       0.74342103 </v>
   <v>       0.17119950       0.92117451       0.74342103 </v>
   <v>       0.67119951       0.42117448       0.74342103 </v>
   <v>       0.67119950       0.92117451       0.74342103 </v>
   <v>       0.05125600       0.19871499       0.76888902 </v>
   <v>       0.05125600       0.69871493       0.76888902 </v>
   <v>       0.55125603       0.19871499       0.76888902 </v>
   <v>       0.55125602       0.69871493       0.76888902 </v>
   <v>       0.19872349       0.44870397       0.76887205 </v>
   <v>       0.19872349       0.94870397       0.76887205 </v>
   <v>       0.69872352       0.44870397       0.76887205 </v>
   <v>       0.69872351       0.94870397       0.76887205 </v>
   <v>       0.42123152       0.32881747       0.74344197 </v>
   <v>       0.42123151       0.82881744       0.74344197 </v>
   <v>       0.92123147       0.32881747       0.74344197 </v>
   <v>       0.92123151       0.82881744       0.74344197 </v>
   <v>       0.32880050       0.07882500       0.74342103 </v>
   <v>       0.32880049       0.57882496       0.74342103 </v>
   <v>       0.82880048       0.07882500       0.74342103 </v>
   <v>       0.82880052       0.57882496       0.74342103 </v>
   <v>       0.00000350       0.25000148       0.72582199 </v>
   <v>       0.00000350       0.75000145       0.72582199 </v>
   <v>       0.50000351       0.25000148       0.72582199 </v>
   <v>       0.50000350       0.75000145       0.72582199 </v>
   <v>       0.25000050       0.00000000       0.72580398 </v>
   <v>       0.25000052       0.50000000       0.72580398 </v>
   <v>       0.75000050       0.00000000       0.72580398 </v>
   <v>       0.75000049       0.50000000       0.72580398 </v>
   <v>       0.72027546       0.44391817       0.53936502 </v>
   <v>       0.74075349       0.49558500       0.51625878 </v>
   <v>       0.66281533       0.55231740       0.55646469 </v>
   <v>       0.70932550       0.63843336       0.55515175 </v>
   <v>       0.85256323       0.50885259       0.56728235 </v>
   <v>       0.79270406       0.57859582       0.57707905 </v>
   <v>       0.87749991       0.55981346       0.53094464 </v>
   <v>       0.80807986       0.62100785       0.52112779 </v>
   <v>       0.87309425       0.46096729       0.51777672 </v>
   <v>       0.86197884       0.42488088       0.54370909 </v>
   <v>       0.87263965       0.32577825       0.51846674 </v>
   <v>       0.78400650       0.32373057       0.52996861 </v>
   <v>       0.63840973       0.55169011       0.51803556 </v>
   <v>       0.69414345       0.63251585       0.51388232 </v>
   <v>       0.61174409       0.63775074       0.52896133 </v>
   <v>       0.76211325       0.46624052       0.59537134 </v>
   <v>       0.75450163       0.41277806       0.57186688 </v>
   <v>       0.68715549       0.48229313       0.57794030 </v>
   <v>       0.81874157       0.69156981       0.55728718 </v>
   <v>       0.89692931       0.69231500       0.54031602 </v>
   <v>       0.89713696       0.63309757       0.56293095 </v>
   <v>       0.82023860       0.38092558       0.48477274 </v>
   <v>       0.78655629       0.29201071       0.49135478 </v>
   <v>       0.66220178       0.30324675       0.51798727 </v>
   <v>       0.73279637       0.46165340       0.47079625 </v>
   <v>       0.53512722       0.35453415       0.51674355 </v>
   <v>       0.60486575       0.51234125       0.46899062 </v>
   <v>       0.50590695       0.46076930       0.49251080 </v>
   <v>       0.99501576       0.24155625       0.55419117 </v>
   <v>       0.03315258       0.76927182       0.56368464 </v>
   <v>       0.46648809       0.22788814       0.55702804 </v>
   <v>       0.50258625       0.75728643       0.55539252 </v>
   <v>       0.23436805       0.53460557       0.55953916 </v>
   <v>       0.26369621       0.99274063       0.55697700 </v>
   <v>       0.77834906       0.98340892       0.56241089 </v>
   <v>       0.00557018       0.24482757       0.64865824 </v>
   <v>       0.01529233       0.76728832       0.65334607 </v>
   <v>       0.49974629       0.24763279       0.64744157 </v>
   <v>       0.49653871       0.75221801       0.64773917 </v>
   <v>       0.25566772       0.49798894       0.64836479 </v>
   <v>       0.24890836       0.00163054       0.64701436 </v>
   <v>       0.74471112       0.51904688       0.65319144 </v>
   <v>       0.75249337       0.99986743       0.64965893 </v>
   <v>       0.49998898       0.24999498       0.74327702 </v>
   <v>       0.49998903       0.74999496       0.74327702 </v>
   <v>       0.99998898       0.24999498       0.74327702 </v>
   <v>       0.99998903       0.74999496       0.74327702 </v>
   <v>       0.25000050       0.00000100       0.74325596 </v>
   <v>       0.25000052       0.50000100       0.74325596 </v>
   <v>       0.75000050       0.00000100       0.74325596 </v>
   <v>       0.75000049       0.50000100       0.74325596 </v>
   <v>       0.70679988       0.37913566       0.49466693 </v>
   <v>       0.64976178       0.34916063       0.50729244 </v>
   <v>       0.68931478       0.43768369       0.48083238 </v>
   <v>       0.57836156       0.37784372       0.50654413 </v>
   <v>       0.61693253       0.46639373       0.47990983 </v>
   <v>       0.56174923       0.43712393       0.49284510 </v>
   <v>       0.76327104       0.47715850       0.53151647 </v>
   <v>       0.69858830       0.58679303       0.54645732 </v>
   <v>       0.79439540       0.52661046       0.56800472 </v>
   <v>       0.83194912       0.59639915       0.53562941 </v>
   <v>       0.83353077       0.43208111       0.52826704 </v>
   <v>       0.81917269       0.35508271       0.51886336 </v>
   <v>       0.65989805       0.60235822       0.52543743 </v>
   <v>       0.74617443       0.46852512       0.57847105 </v>
   <v>       0.86204246       0.65635142       0.55031466 </v>
   <v>       0.78527327       0.35072867       0.49632922 </v>
   <v>       0.05777567       0.25763457       0.56381492 </v>
   <v>       0.03010189       0.70912146       0.57539499 </v>
   <v>       0.53470723       0.20974855       0.56161868 </v>
   <v>       0.48298538       0.69219446       0.56283804 </v>
   <v>       0.43809610       0.29477462       0.55796585 </v>
   <v>       0.47556416       0.82015334       0.56215260 </v>
   <v>       0.92955244       0.25119761       0.56290250 </v>
   <v>       0.97927873       0.81822115       0.56212861 </v>
   <v>       0.22769938       0.46576470       0.56633373 </v>
   <v>       0.19685100       0.01157277       0.56311709 </v>
   <v>       0.70875271       0.98530315       0.56865060 </v>
   <v>       0.32330560       0.03206694       0.56116540 </v>
   <v>       0.29724744       0.56825935       0.55546932 </v>
   <v>       0.82351336       0.04022630       0.56211133 </v>
   <v>       0.05026986       0.19704940       0.65784923 </v>
   <v>       0.05905263       0.71104192       0.65770607 </v>
   <v>       0.54507219       0.20408012       0.65812107 </v>
   <v>       0.53940388       0.70332944       0.65717679 </v>
   <v>       0.21288752       0.44914399       0.65780521 </v>
   <v>       0.20232731       0.95644224       0.65668780 </v>
   <v>       0.69788145       0.46590736       0.65795362 </v>
   <v>       0.70792760       0.95447094       0.65998229 </v>
   <v>       0.45215454       0.29351323       0.65598173 </v>
   <v>       0.45475828       0.80130889       0.65737654 </v>
   <v>       0.95510515       0.28486784       0.65850054 </v>
   <v>       0.94635951       0.77324031       0.65972784 </v>
   <v>       0.29545051       0.04669774       0.65628611 </v>
   <v>       0.29343575       0.55047291       0.65785106 </v>
   <v>       0.79728487       0.04790712       0.65839011 </v>
   <v>       0.81688722       0.51472929       0.65581751 </v>
   <v>       0.04586250       0.20411950       0.75272599 </v>
   <v>       0.04586250       0.70411946       0.75272599 </v>
   <v>       0.54586251       0.20411950       0.75272599 </v>
   <v>       0.54586250       0.70411946       0.75272599 </v>
   <v>       0.20411900       0.45410100       0.75270499 </v>
   <v>       0.20411899       0.95410095       0.75270499 </v>
   <v>       0.70411898       0.45410100       0.75270499 </v>
   <v>       0.70411896       0.95410095       0.75270499 </v>
   <v>       0.45414002       0.29588849       0.75272697 </v>
   <v>       0.45414001       0.79588852       0.75272697 </v>
   <v>       0.95414002       0.29588849       0.75272697 </v>
   <v>       0.95414006       0.79588852       0.75272697 </v>
   <v>       0.29588249       0.04590050       0.75270499 </v>
   <v>       0.29588248       0.54590053       0.75270499 </v>
   <v>       0.79588244       0.04590050       0.75270499 </v>
   <v>       0.79588248       0.54590053       0.75270499 </v>
   <v>       0.77222792       0.54629181       0.54516995 </v>
   <v>       0.51680440       0.01176944       0.55325507 </v>
   <v>       0.48839218       0.49630068       0.55295807 </v>
   <v>       0.00914243       0.00756805       0.55006754 </v>
   <v>       0.02538323       0.50053326       0.55434311 </v>
   <v>       0.25063518       0.23694830       0.55279752 </v>
   <v>       0.25420775       0.76139393       0.55233221 </v>
   <v>       0.73513985       0.21215315       0.55581045 </v>
   <v>       0.69929662       0.79643529       0.55529124 </v>
   <v>       0.99841145       0.98854848       0.65364502 </v>
   <v>       0.01324967       0.49801016       0.65539970 </v>
   <v>       0.49565675       0.00388169       0.65504545 </v>
   <v>       0.50067134       0.49479927       0.65439413 </v>
   <v>       0.25253518       0.24644632       0.65469198 </v>
   <v>       0.25455882       0.75540857       0.65433418 </v>
   <v>       0.74724640       0.26844849       0.65513622 </v>
   <v>       0.74679581       0.74068630       0.65451708 </v>
   <v>       0.12939765       0.12295385       0.60734480 </v>
   <v>       0.15245227       0.60696382       0.60773044 </v>
   <v>       0.63938323       0.11394633       0.61138364 </v>
   <v>       0.63190218       0.61861669       0.60709402 </v>
   <v>       0.36104949       0.38921001       0.60574707 </v>
   <v>       0.36950163       0.88624672       0.60716221 </v>
   <v>       0.88823833       0.36836223       0.60789563 </v>
   <v>       0.86721297       0.88240706       0.60601574 </v>
   <v>       0.12196046       0.36481270       0.60889699 </v>
   <v>       0.12336012       0.87536595       0.60685801 </v>
   <v>       0.59568004       0.34710416       0.60135722 </v>
   <v>       0.61701254       0.86702724       0.61446818 </v>
   <v>       0.38768071       0.13360559       0.60725476 </v>
   <v>       0.38606971       0.63583397       0.60947200 </v>
   <v>       0.88432101       0.13709763       0.61119030 </v>
   <v>       0.89650479       0.64005520       0.61352438 </v>
   <v>       0.00000000       0.00000000       0.75492797 </v>
   <v>       0.00000000       0.50000000       0.75492797 </v>
   <v>       0.50000000       0.00000000       0.75492797 </v>
   <v>       0.49999999       0.50000000       0.75492797 </v>
   <v>       0.25000050       0.25000000       0.75493902 </v>
   <v>       0.25000051       0.74999997       0.75493902 </v>
   <v>       0.75000047       0.25000000       0.75493902 </v>
   <v>       0.75000046       0.74999997       0.75493902 </v>
   <v>       0.13579050       0.11421000       0.70478299 </v>
   <v>       0.13579050       0.61420998       0.70478299 </v>
   <v>       0.63579045       0.11421000       0.70478299 </v>
   <v>       0.63579049       0.61420998       0.70478299 </v>
   <v>       0.36420952       0.38578999       0.70478299 </v>
   <v>       0.36420950       0.88578996       0.70478299 </v>
   <v>       0.86420954       0.38578999       0.70478299 </v>
   <v>       0.86420953       0.88578996       0.70478299 </v>
   <v>       0.11421799       0.36421899       0.70478098 </v>
   <v>       0.11421799       0.86421899       0.70478098 </v>
   <v>       0.61421800       0.36421899       0.70478098 </v>
   <v>       0.61421799       0.86421899       0.70478098 </v>
   <v>       0.38578201       0.13578149       0.70478202 </v>
   <v>       0.38578200       0.63578149       0.70478202 </v>
   <v>       0.88578199       0.13578149       0.70478202 </v>
   <v>       0.88578203       0.63578149       0.70478202 </v>
   <v>       0.13466700       0.11533200       0.80125603 </v>
   <v>       0.13466699       0.61533199       0.80125603 </v>
   <v>       0.63466699       0.11533200       0.80125603 </v>
   <v>       0.63466698       0.61533199       0.80125603 </v>
   <v>       0.36533300       0.38466799       0.80125603 </v>
   <v>       0.36533299       0.88466796       0.80125603 </v>
   <v>       0.86533295       0.38466799       0.80125603 </v>
   <v>       0.86533294       0.88466796       0.80125603 </v>
   <v>       0.11532850       0.36533700       0.80126500 </v>
   <v>       0.11532850       0.86533698       0.80126500 </v>
   <v>       0.61532850       0.36533700       0.80126500 </v>
   <v>       0.61532849       0.86533698       0.80126500 </v>
   <v>       0.38467151       0.13466300       0.80126500 </v>
   <v>       0.38467150       0.63466297       0.80126500 </v>
   <v>       0.88467149       0.13466300       0.80126500 </v>
   <v>       0.88467153       0.63466297       0.80126500 </v>
   <v>       0.99746415       0.00394703       0.60381382 </v>
   <v>       0.00645434       0.50387197       0.60422412 </v>
   <v>       0.50452453       0.00116660       0.60546247 </v>
   <v>       0.50180573       0.49870915       0.60385918 </v>
   <v>       0.25406823       0.24897821       0.60416711 </v>
   <v>       0.25133218       0.75277222       0.60300257 </v>
   <v>       0.74648344       0.25116076       0.60519649 </v>
   <v>       0.74375991       0.75615022       0.60412108 </v>
   <v>       0.00000050       0.00000050       0.70482896 </v>
   <v>       0.00000050       0.50000048       0.70482896 </v>
   <v>       0.50000048       0.00000050       0.70482896 </v>
   <v>       0.50000046       0.50000048       0.70482896 </v>
   <v>       0.24999999       0.24999947       0.70482499 </v>
   <v>       0.25000001       0.74999950       0.70482499 </v>
   <v>       0.74999999       0.24999947       0.70482499 </v>
   <v>       0.74999998       0.74999950       0.70482499 </v>
   <v>       0.00000000       0.00000000       0.80731797 </v>
   <v>       0.00000000       0.50000000       0.80731797 </v>
   <v>       0.50000000       0.00000000       0.80731797 </v>
   <v>       0.49999999       0.50000000       0.80731797 </v>
   <v>       0.24999999       0.25000000       0.80731797 </v>
   <v>       0.25000001       0.74999997       0.80731797 </v>
   <v>       0.74999999       0.25000000       0.80731797 </v>
   <v>       0.74999998       0.74999997       0.80731797 </v>
  </varray>
 </structure>
</modeling>
