<?xml version="1.0" encoding="ISO-8859-1"?>
<modeling>
 <generator>
  <i name="program" type="string">vasp </i>
  <i name="version" type="string">6.2.1  </i>
  <i name="subversion" type="string">16May21 (build Nov 15 2021 14:57:28) complex                          parallel </i>
  <i name="platform" type="string">LinuxPGI </i>
  <i name="date" type="string">2023 07 30 </i>
  <i name="time" type="string">14:50:34 </i>
 </generator>
 <incar>
  <i type="string" name="SYSTEM">PSC</i>
  <i type="int" name="ISTART">     1</i>
  <i type="string" name="PREC">Normal</i>
  <i name="BMIX">      0.01000000</i>
  <i name="AMIN">      0.01000000</i>
  <i type="int" name="ICHARG">     1</i>
  <i type="int" name="NELM">   600</i>
  <i type="int" name="ISYM">     0</i>
  <i name="ENCUT">    500.00000000</i>
  <i type="string" name="LREAL">Auto</i>
  <i type="int" name="ISMEAR">     0</i>
  <i name="SIGMA">      0.05000000</i>
  <i type="logical" name="LWAVE"> F  </i>
  <i type="logical" name="LVTOT"> T  </i>
  <i type="logical" name="GGA_COMPAT"> F  </i>
  <i type="logical" name="LDIPOL"> T  </i>
  <i type="int" name="IDIPOL">     3</i>
  <i type="int" name="IVDW">    12</i>
 </incar>
 <primitive_cell>
  <structure name="primitive_cell" >
   <crystal>
    <varray name="basis" >
     <v>      18.06080055       0.00000000       0.00000000 </v>
     <v>      -0.00491865      18.06279945       0.00000000 </v>
     <v>       0.00000000       0.00000000      62.48749924 </v>
    </varray>
    <i name="volume">  20385.21054034 </i>
    <varray name="rec_basis" >
     <v>       0.05536853       0.00001508      -0.00000000 </v>
     <v>       0.00000000       0.05536240       0.00000000 </v>
     <v>       0.00000000      -0.00000000       0.01600320 </v>
    </varray>
   </crystal>
   <varray name="positions" >
    <v>       0.40718222       0.28504096       0.55945260 </v>
    <v>       0.41692938       0.69624679       0.57057366 </v>
    <v>       0.92397811       0.29281960       0.57882408 </v>
    <v>       0.92450360       0.81318177       0.57281605 </v>
    <v>       0.32247827       0.09061905       0.56246186 </v>
    <v>       0.32603375       0.56974835       0.56755004 </v>
    <v>       0.79418054       0.10583961       0.56386754 </v>
    <v>       0.10821222       0.24122624       0.56174090 </v>
    <v>       0.07909572       0.68490738       0.56865567 </v>
    <v>       0.58103357       0.18491233       0.56497567 </v>
    <v>       0.59889242       0.76908851       0.55947793 </v>
    <v>       0.37947632       0.01712452       0.55435972 </v>
    <v>       0.25634523       0.62087976       0.55490939 </v>
    <v>       0.87269995       0.05392601       0.55595385 </v>
    <v>       0.06202672       0.29035299       0.58138948 </v>
    <v>       0.99254895       0.69356377       0.58073413 </v>
    <v>       0.48652343       0.17356052       0.56943506 </v>
    <v>       0.55321333       0.69927981       0.57342609 </v>
    <v>       0.30539808       0.43473306       0.57159150 </v>
    <v>       0.19060622       0.06493649       0.56835898 </v>
    <v>       0.68149310       0.02996572       0.57347927 </v>
    <v>       0.45779391       0.36585212       0.55356629 </v>
    <v>       0.37418615       0.75964970       0.55358332 </v>
    <v>       0.88344471       0.24441881       0.55750586 </v>
    <v>       0.96927065       0.87362875       0.55548110 </v>
    <v>       0.22873876       0.39776902       0.55893088 </v>
    <v>       0.15851091       0.97778867       0.56153553 </v>
    <v>       0.68682569       0.93616415       0.56637476 </v>
    <v>       0.57050806       0.30581881       0.55472906 </v>
    <v>       0.48875778       0.81557382       0.54476857 </v>
    <v>       0.99900048       0.20416985       0.54447578 </v>
    <v>       0.06906708       0.79470363       0.54975150 </v>
    <v>       0.18637008       0.51381674       0.54734287 </v>
    <v>       0.27741392       0.93547697       0.55219974 </v>
    <v>       0.80708914       0.94291078       0.55530650 </v>
    <v>       0.45526936       0.29989671       0.67305686 </v>
    <v>       0.44087967       0.81511010       0.67075867 </v>
    <v>       0.95557047       0.28428833       0.67622754 </v>
    <v>       0.91221550       0.74075182       0.66154803 </v>
    <v>       0.29519004       0.04072889       0.67525298 </v>
    <v>       0.30091952       0.56172442       0.67280113 </v>
    <v>       0.79742034       0.05150101       0.67512942 </v>
    <v>       0.83298518       0.46592658       0.66451511 </v>
    <v>       0.09050090       0.17005050       0.64720831 </v>
    <v>       0.10867412       0.70028930       0.65535264 </v>
    <v>       0.57632779       0.16576171       0.64624345 </v>
    <v>       0.57329525       0.67539207       0.65176855 </v>
    <v>       0.18501816       0.41193325       0.65139207 </v>
    <v>       0.16442968       0.93177915       0.64322289 </v>
    <v>       0.63416009       0.48728563       0.65528732 </v>
    <v>       0.67254757       0.91758883       0.64922946 </v>
    <v>       0.06275851       0.18809296       0.67350190 </v>
    <v>       0.02380649       0.65474991       0.65882617 </v>
    <v>       0.54904688       0.19112027       0.67192632 </v>
    <v>       0.54433404       0.71458011       0.67562836 </v>
    <v>       0.21138392       0.44881590       0.67588586 </v>
    <v>       0.18269053       0.95294272       0.66988545 </v>
    <v>       0.69718033       0.43162526       0.66916302 </v>
    <v>       0.69854100       0.94507690       0.67482449 </v>
    <v>       0.43401168       0.33747706       0.64822542 </v>
    <v>       0.41566571       0.82942778       0.64411913 </v>
    <v>       0.92506201       0.31781677       0.65162588 </v>
    <v>       0.93092451       0.83474594       0.65728625 </v>
    <v>       0.34232194       0.06286886       0.65207384 </v>
    <v>       0.32144347       0.58683448       0.64653447 </v>
    <v>       0.82314299       0.08129488       0.64958848 </v>
    <v>       0.85106532       0.54053475       0.64775041 </v>
    <v>       0.00624514       0.25013038       0.63176204 </v>
    <v>       0.05578469       0.81680058       0.65244226 </v>
    <v>       0.50777489       0.25627060       0.62927961 </v>
    <v>       0.49510420       0.74215988       0.63050386 </v>
    <v>       0.26272728       0.99764755       0.62986719 </v>
    <v>       0.25128296       0.49498823       0.63118966 </v>
    <v>       0.74836479       0.99994701       0.63172987 </v>
    <v>       0.72626437       0.56021050       0.64001754 </v>
    <v>       0.44874502       0.30128397       0.76888902 </v>
    <v>       0.44874501       0.80128391       0.76888902 </v>
    <v>       0.94874497       0.30128397       0.76888902 </v>
    <v>       0.94874501       0.80128391       0.76888902 </v>
    <v>       0.30127600       0.05129450       0.76887296 </v>
    <v>       0.30127601       0.55129450       0.76887296 </v>
    <v>       0.80127594       0.05129450       0.76887296 </v>
    <v>       0.80127598       0.55129450       0.76887296 </v>
    <v>       0.07877100       0.17118050       0.74344197 </v>
    <v>       0.07877101       0.67118045       0.74344197 </v>
    <v>       0.57877100       0.17118050       0.74344197 </v>
    <v>       0.57877099       0.67118045       0.74344197 </v>
    <v>       0.17119950       0.42117448       0.74342103 </v>
    <v>       0.17119950       0.92117451       0.74342103 </v>
    <v>       0.67119951       0.42117448       0.74342103 </v>
    <v>       0.67119950       0.92117451       0.74342103 </v>
    <v>       0.05125600       0.19871499       0.76888902 </v>
    <v>       0.05125600       0.69871493       0.76888902 </v>
    <v>       0.55125603       0.19871499       0.76888902 </v>
    <v>       0.55125602       0.69871493       0.76888902 </v>
    <v>       0.19872349       0.44870397       0.76887205 </v>
    <v>       0.19872349       0.94870397       0.76887205 </v>
    <v>       0.69872352       0.44870397       0.76887205 </v>
    <v>       0.69872351       0.94870397       0.76887205 </v>
    <v>       0.42123152       0.32881747       0.74344197 </v>
    <v>       0.42123151       0.82881744       0.74344197 </v>
    <v>       0.92123147       0.32881747       0.74344197 </v>
    <v>       0.92123151       0.82881744       0.74344197 </v>
    <v>       0.32880050       0.07882500       0.74342103 </v>
    <v>       0.32880049       0.57882496       0.74342103 </v>
    <v>       0.82880048       0.07882500       0.74342103 </v>
    <v>       0.82880052       0.57882496       0.74342103 </v>
    <v>       0.00000350       0.25000148       0.72582199 </v>
    <v>       0.00000350       0.75000145       0.72582199 </v>
    <v>       0.50000351       0.25000148       0.72582199 </v>
    <v>       0.50000350       0.75000145       0.72582199 </v>
    <v>       0.25000050       0.00000000       0.72580398 </v>
    <v>       0.25000052       0.50000000       0.72580398 </v>
    <v>       0.75000050       0.00000000       0.72580398 </v>
    <v>       0.75000049       0.50000000       0.72580398 </v>
    <v>       0.79979147       0.50692247       0.51368099 </v>
    <v>       0.87815267       0.49954605       0.53074989 </v>
    <v>       0.75675122       0.61792483       0.53202530 </v>
    <v>       0.75299466       0.61788307       0.56018834 </v>
    <v>       0.68645468       0.43867251       0.54845974 </v>
    <v>       0.66607727       0.53038941       0.55625506 </v>
    <v>       0.79476078       0.42009865       0.56565702 </v>
    <v>       0.86235008       0.49016923       0.56807584 </v>
    <v>       0.85904503       0.37296825       0.53785324 </v>
    <v>       0.76472557       0.37462644       0.53090593 </v>
    <v>       0.78817918       0.38359147       0.49358679 </v>
    <v>       0.88125786       0.41003282       0.49703371 </v>
    <v>       0.89527923       0.61450322       0.53278442 </v>
    <v>       0.89410407       0.60531331       0.56114861 </v>
    <v>       0.85937521       0.68686738       0.54889476 </v>
    <v>       0.60156363       0.50226856       0.52355876 </v>
    <v>       0.68297928       0.47695692       0.50949338 </v>
    <v>       0.66752229       0.57129606       0.51728053 </v>
    <v>       0.70296117       0.49566225       0.58653620 </v>
    <v>       0.77178884       0.56638028       0.59001755 </v>
    <v>       0.78477110       0.47753447       0.60077519 </v>
    <v>       0.82376358       0.25810094       0.51138817 </v>
    <v>       0.84954892       0.27514462       0.48469430 </v>
    <v>       0.92561002       0.15813154       0.49909925 </v>
    <v>       0.97538904       0.38479892       0.51536950 </v>
    <v>       0.05709045       0.12484224       0.50456076 </v>
    <v>       0.10558307       0.35152101       0.52092347 </v>
    <v>       0.14896409       0.22223028       0.51506444 </v>
    <v>       0.99635125       0.23918180       0.55868724 </v>
    <v>       0.02286407       0.77682084       0.55992181 </v>
    <v>       0.52016402       0.27466516       0.55823531 </v>
    <v>       0.48696856       0.76663579       0.55502434 </v>
    <v>       0.23936352       0.50946526       0.55570581 </v>
    <v>       0.26908032       0.99309243       0.55705087 </v>
    <v>       0.77994300       0.99375138       0.56065059 </v>
    <v>       0.00749047       0.24410722       0.64914107 </v>
    <v>       0.02072043       0.76907499       0.65567613 </v>
    <v>       0.50528933       0.25165579       0.64664618 </v>
    <v>       0.49380713       0.75164710       0.64770316 </v>
    <v>       0.25344643       0.49936162       0.64861209 </v>
    <v>       0.25277552       0.99809726       0.64708371 </v>
    <v>       0.74218872       0.51528272       0.65074191 </v>
    <v>       0.74831201       0.99942737       0.64923398 </v>
    <v>       0.49998898       0.24999498       0.74327702 </v>
    <v>       0.49998903       0.74999496       0.74327702 </v>
    <v>       0.99998898       0.24999498       0.74327702 </v>
    <v>       0.99998903       0.74999496       0.74327702 </v>
    <v>       0.25000050       0.00000100       0.74325596 </v>
    <v>       0.25000052       0.50000100       0.74325596 </v>
    <v>       0.75000050       0.00000100       0.74325596 </v>
    <v>       0.75000049       0.50000100       0.74325596 </v>
    <v>       0.94021224       0.27457527       0.50631013 </v>
    <v>       0.96528426       0.20106114       0.50362945 </v>
    <v>       0.99196712       0.32773361       0.51260283 </v>
    <v>       0.03942956       0.18220887       0.50673069 </v>
    <v>       0.06654276       0.30923818       0.51561582 </v>
    <v>       0.09087707       0.23676137       0.51259496 </v>
    <v>       0.82089319       0.48130602       0.52830458 </v>
    <v>       0.78471909       0.59772343       0.54645677 </v>
    <v>       0.69375121       0.49695785       0.54399498 </v>
    <v>       0.80248213       0.47998175       0.56736452 </v>
    <v>       0.81925023       0.39722478       0.52650521 </v>
    <v>       0.83752497       0.37361956       0.50353248 </v>
    <v>       0.86339581       0.62648001       0.54729483 </v>
    <v>       0.66122271       0.51308602       0.52213397 </v>
    <v>       0.76234847       0.50746501       0.58695608 </v>
    <v>       0.86042103       0.29264811       0.50131743 </v>
    <v>       0.05879595       0.25689593       0.56812602 </v>
    <v>       0.03042343       0.71286450       0.56970513 </v>
    <v>       0.52852245       0.20468538       0.56333802 </v>
    <v>       0.54994342       0.74212493       0.56265526 </v>
    <v>       0.45682824       0.30980889       0.55647269 </v>
    <v>       0.42235216       0.73709775       0.55928820 </v>
    <v>       0.93057111       0.26006071       0.56537694 </v>
    <v>       0.96508454       0.82106600       0.56161477 </v>
    <v>       0.26013594       0.44327483       0.56197202 </v>
    <v>       0.20165312       0.01372747       0.56234630 </v>
    <v>       0.71044618       0.98748382       0.56654776 </v>
    <v>       0.32679817       0.03715061       0.55728480 </v>
    <v>       0.27741283       0.57052490       0.55901892 </v>
    <v>       0.81784314       0.05568045       0.56028137 </v>
    <v>       0.05581383       0.19803327       0.65742904 </v>
    <v>       0.05221872       0.70362633       0.65683041 </v>
    <v>       0.54573737       0.20026654       0.65575909 </v>
    <v>       0.53912458       0.71160163       0.65927371 </v>
    <v>       0.21478613       0.45037444       0.65952498 </v>
    <v>       0.19640008       0.95887772       0.65410330 </v>
    <v>       0.68859734       0.47472125       0.65873686 </v>
    <v>       0.70467804       0.95086984       0.65859053 </v>
    <v>       0.46253037       0.29889176       0.65679769 </v>
    <v>       0.44704583       0.80104891       0.65494704 </v>
    <v>       0.96013368       0.28444329       0.65998149 </v>
    <v>       0.94941468       0.78150515       0.65793103 </v>
    <v>       0.29890244       0.03681146       0.65897757 </v>
    <v>       0.29404188       0.55240082       0.65672193 </v>
    <v>       0.79155643       0.04716455       0.65885779 </v>
    <v>       0.81296890       0.50649142       0.65469845 </v>
    <v>       0.04586250       0.20411950       0.75272599 </v>
    <v>       0.04586250       0.70411946       0.75272599 </v>
    <v>       0.54586251       0.20411950       0.75272599 </v>
    <v>       0.54586250       0.70411946       0.75272599 </v>
    <v>       0.20411900       0.45410100       0.75270499 </v>
    <v>       0.20411899       0.95410095       0.75270499 </v>
    <v>       0.70411898       0.45410100       0.75270499 </v>
    <v>       0.70411896       0.95410095       0.75270499 </v>
    <v>       0.45414002       0.29588849       0.75272697 </v>
    <v>       0.45414001       0.79588852       0.75272697 </v>
    <v>       0.95414002       0.29588849       0.75272697 </v>
    <v>       0.95414006       0.79588852       0.75272697 </v>
    <v>       0.29588249       0.04590050       0.75270499 </v>
    <v>       0.29588248       0.54590053       0.75270499 </v>
    <v>       0.79588244       0.04590050       0.75270499 </v>
    <v>       0.79588248       0.54590053       0.75270499 </v>
    <v>       0.77598876       0.51376325       0.54647173 </v>
    <v>       0.51470009       0.98411655       0.55331428 </v>
    <v>       0.47523682       0.51088942       0.55312711 </v>
    <v>       0.00555512       0.01252684       0.55158194 </v>
    <v>       0.02995491       0.48531416       0.55407457 </v>
    <v>       0.25944491       0.23815579       0.55353100 </v>
    <v>       0.22965351       0.76445862       0.55060256 </v>
    <v>       0.73375341       0.23219749       0.55438853 </v>
    <v>       0.73558560       0.79452042       0.55396120 </v>
    <v>       0.99526856       0.98654258       0.65432112 </v>
    <v>       0.01059477       0.50448416       0.65495546 </v>
    <v>       0.49682960       0.00320739       0.65486328 </v>
    <v>       0.49537858       0.50546414       0.65394684 </v>
    <v>       0.26248658       0.24281616       0.65502493 </v>
    <v>       0.24576753       0.75490177       0.65359789 </v>
    <v>       0.74601088       0.27144875       0.65517346 </v>
    <v>       0.75050483       0.73349124       0.65423425 </v>
    <v>       0.13477920       0.11641167       0.60817523 </v>
    <v>       0.14660067       0.60864458       0.60625438 </v>
    <v>       0.63618435       0.11415106       0.60789930 </v>
    <v>       0.61946968       0.63119004       0.60651633 </v>
    <v>       0.36779156       0.38397063       0.60771066 </v>
    <v>       0.36455132       0.88468602       0.60483112 </v>
    <v>       0.88773070       0.36766528       0.61090905 </v>
    <v>       0.86190762       0.89086166       0.60705318 </v>
    <v>       0.12670866       0.36776604       0.61190620 </v>
    <v>       0.11542460       0.87332384       0.60581911 </v>
    <v>       0.61136494       0.36465837       0.60256168 </v>
    <v>       0.61709915       0.86453593       0.61264109 </v>
    <v>       0.39477731       0.13703794       0.60401516 </v>
    <v>       0.37960226       0.63457765       0.60690740 </v>
    <v>       0.88179383       0.13633333       0.61216858 </v>
    <v>       0.90176592       0.64623485       0.60951547 </v>
    <v>       0.00000000       0.00000000       0.75492797 </v>
    <v>       0.00000000       0.50000000       0.75492797 </v>
    <v>       0.50000000       0.00000000       0.75492797 </v>
    <v>       0.49999999       0.50000000       0.75492797 </v>
    <v>       0.25000050       0.25000000       0.75493902 </v>
    <v>       0.25000051       0.74999997       0.75493902 </v>
    <v>       0.75000047       0.25000000       0.75493902 </v>
    <v>       0.75000046       0.74999997       0.75493902 </v>
    <v>       0.13579050       0.11421000       0.70478299 </v>
    <v>       0.13579050       0.61420998       0.70478299 </v>
    <v>       0.63579045       0.11421000       0.70478299 </v>
    <v>       0.63579049       0.61420998       0.70478299 </v>
    <v>       0.36420952       0.38578999       0.70478299 </v>
    <v>       0.36420950       0.88578996       0.70478299 </v>
    <v>       0.86420954       0.38578999       0.70478299 </v>
    <v>       0.86420953       0.88578996       0.70478299 </v>
    <v>       0.11421799       0.36421899       0.70478098 </v>
    <v>       0.11421799       0.86421899       0.70478098 </v>
    <v>       0.61421800       0.36421899       0.70478098 </v>
    <v>       0.61421799       0.86421899       0.70478098 </v>
    <v>       0.38578201       0.13578149       0.70478202 </v>
    <v>       0.38578200       0.63578149       0.70478202 </v>
    <v>       0.88578199       0.13578149       0.70478202 </v>
    <v>       0.88578203       0.63578149       0.70478202 </v>
    <v>       0.13466700       0.11533200       0.80125603 </v>
    <v>       0.13466699       0.61533199       0.80125603 </v>
    <v>       0.63466699       0.11533200       0.80125603 </v>
    <v>       0.63466698       0.61533199       0.80125603 </v>
    <v>       0.36533300       0.38466799       0.80125603 </v>
    <v>       0.36533299       0.88466796       0.80125603 </v>
    <v>       0.86533295       0.38466799       0.80125603 </v>
    <v>       0.86533294       0.88466796       0.80125603 </v>
    <v>       0.11532850       0.36533700       0.80126500 </v>
    <v>       0.11532850       0.86533698       0.80126500 </v>
    <v>       0.61532850       0.36533700       0.80126500 </v>
    <v>       0.61532849       0.86533698       0.80126500 </v>
    <v>       0.38467151       0.13466300       0.80126500 </v>
    <v>       0.38467150       0.63466297       0.80126500 </v>
    <v>       0.88467149       0.13466300       0.80126500 </v>
    <v>       0.88467153       0.63466297       0.80126500 </v>
    <v>       0.99620811       0.00667656       0.60390491 </v>
    <v>       0.01074078       0.50119597       0.60357458 </v>
    <v>       0.50193761       0.99333543       0.60361225 </v>
    <v>       0.50024073       0.50041309       0.60287852 </v>
    <v>       0.25615803       0.24692596       0.60539703 </v>
    <v>       0.24263635       0.75498133       0.60291856 </v>
    <v>       0.74711951       0.25214628       0.60573450 </v>
    <v>       0.75219296       0.75714002       0.60390424 </v>
    <v>       0.00000050       0.00000050       0.70482896 </v>
    <v>       0.00000050       0.50000048       0.70482896 </v>
    <v>       0.50000048       0.00000050       0.70482896 </v>
    <v>       0.50000046       0.50000048       0.70482896 </v>
    <v>       0.24999999       0.24999947       0.70482499 </v>
    <v>       0.25000001       0.74999950       0.70482499 </v>
    <v>       0.74999999       0.24999947       0.70482499 </v>
    <v>       0.74999998       0.74999950       0.70482499 </v>
    <v>       0.00000000       0.00000000       0.80731797 </v>
    <v>       0.00000000       0.50000000       0.80731797 </v>
    <v>       0.50000000       0.00000000       0.80731797 </v>
    <v>       0.49999999       0.50000000       0.80731797 </v>
    <v>       0.24999999       0.25000000       0.80731797 </v>
    <v>       0.25000001       0.74999997       0.80731797 </v>
    <v>       0.74999999       0.25000000       0.80731797 </v>
    <v>       0.74999998       0.74999997       0.80731797 </v>
   </varray>
  </structure>
  <varray name="primitive_index" >
   <v type="int" >        1 </v>
   <v type="int" >        2 </v>
   <v type="int" >        3 </v>
   <v type="int" >        4 </v>
   <v type="int" >        5 </v>
   <v type="int" >        6 </v>
   <v type="int" >        7 </v>
   <v type="int" >        8 </v>
   <v type="int" >        9 </v>
   <v type="int" >       10 </v>
   <v type="int" >       11 </v>
   <v type="int" >       12 </v>
   <v type="int" >       13 </v>
   <v type="int" >       14 </v>
   <v type="int" >       15 </v>
   <v type="int" >       16 </v>
   <v type="int" >       17 </v>
   <v type="int" >       18 </v>
   <v type="int" >       19 </v>
   <v type="int" >       20 </v>
   <v type="int" >       21 </v>
   <v type="int" >       22 </v>
   <v type="int" >       23 </v>
   <v type="int" >       24 </v>
   <v type="int" >       25 </v>
   <v type="int" >       26 </v>
   <v type="int" >       27 </v>
   <v type="int" >       28 </v>
   <v type="int" >       29 </v>
   <v type="int" >       30 </v>
   <v type="int" >       31 </v>
   <v type="int" >       32 </v>
   <v type="int" >       33 </v>
   <v type="int" >       34 </v>
   <v type="int" >       35 </v>
   <v type="int" >       36 </v>
   <v type="int" >       37 </v>
   <v type="int" >       38 </v>
   <v type="int" >       39 </v>
   <v type="int" >       40 </v>
   <v type="int" >       41 </v>
   <v type="int" >       42 </v>
   <v type="int" >       43 </v>
   <v type="int" >       44 </v>
   <v type="int" >       45 </v>
   <v type="int" >       46 </v>
   <v type="int" >       47 </v>
   <v type="int" >       48 </v>
   <v type="int" >       49 </v>
   <v type="int" >       50 </v>
   <v type="int" >       51 </v>
   <v type="int" >       52 </v>
   <v type="int" >       53 </v>
   <v type="int" >       54 </v>
   <v type="int" >       55 </v>
   <v type="int" >       56 </v>
   <v type="int" >       57 </v>
   <v type="int" >       58 </v>
   <v type="int" >       59 </v>
   <v type="int" >       60 </v>
   <v type="int" >       61 </v>
   <v type="int" >       62 </v>
   <v type="int" >       63 </v>
   <v type="int" >       64 </v>
   <v type="int" >       65 </v>
   <v type="int" >       66 </v>
   <v type="int" >       67 </v>
   <v type="int" >       68 </v>
   <v type="int" >       69 </v>
   <v type="int" >       70 </v>
   <v type="int" >       71 </v>
   <v type="int" >       72 </v>
   <v type="int" >       73 </v>
   <v type="int" >       74 </v>
   <v type="int" >       75 </v>
   <v type="int" >       76 </v>
   <v type="int" >       77 </v>
   <v type="int" >       78 </v>
   <v type="int" >       79 </v>
   <v type="int" >       80 </v>
   <v type="int" >       81 </v>
   <v type="int" >       82 </v>
   <v type="int" >       83 </v>
   <v type="int" >       84 </v>
   <v type="int" >       85 </v>
   <v type="int" >       86 </v>
   <v type="int" >       87 </v>
   <v type="int" >       88 </v>
   <v type="int" >       89 </v>
   <v type="int" >       90 </v>
   <v type="int" >       91 </v>
   <v type="int" >       92 </v>
   <v type="int" >       93 </v>
   <v type="int" >       94 </v>
   <v type="int" >       95 </v>
   <v type="int" >       96 </v>
   <v type="int" >       97 </v>
   <v type="int" >       98 </v>
   <v type="int" >       99 </v>
   <v type="int" >      100 </v>
   <v type="int" >      101 </v>
   <v type="int" >      102 </v>
   <v type="int" >      103 </v>
   <v type="int" >      104 </v>
   <v type="int" >      105 </v>
   <v type="int" >      106 </v>
   <v type="int" >      107 </v>
   <v type="int" >      108 </v>
   <v type="int" >      109 </v>
   <v type="int" >      110 </v>
   <v type="int" >      111 </v>
   <v type="int" >      112 </v>
   <v type="int" >      113 </v>
   <v type="int" >      114 </v>
   <v type="int" >      115 </v>
   <v type="int" >      116 </v>
   <v type="int" >      117 </v>
   <v type="int" >      118 </v>
   <v type="int" >      119 </v>
   <v type="int" >      120 </v>
   <v type="int" >      121 </v>
   <v type="int" >      122 </v>
   <v type="int" >      123 </v>
   <v type="int" >      124 </v>
   <v type="int" >      125 </v>
   <v type="int" >      126 </v>
   <v type="int" >      127 </v>
   <v type="int" >      128 </v>
   <v type="int" >      129 </v>
   <v type="int" >      130 </v>
   <v type="int" >      131 </v>
   <v type="int" >      132 </v>
   <v type="int" >      133 </v>
   <v type="int" >      134 </v>
   <v type="int" >      135 </v>
   <v type="int" >      136 </v>
   <v type="int" >      137 </v>
   <v type="int" >      138 </v>
   <v type="int" >      139 </v>
   <v type="int" >      140 </v>
   <v type="int" >      141 </v>
   <v type="int" >      142 </v>
   <v type="int" >      143 </v>
   <v type="int" >      144 </v>
   <v type="int" >      145 </v>
   <v type="int" >      146 </v>
   <v type="int" >      147 </v>
   <v type="int" >      148 </v>
   <v type="int" >      149 </v>
   <v type="int" >      150 </v>
   <v type="int" >      151 </v>
   <v type="int" >      152 </v>
   <v type="int" >      153 </v>
   <v type="int" >      154 </v>
   <v type="int" >      155 </v>
   <v type="int" >      156 </v>
   <v type="int" >      157 </v>
   <v type="int" >      158 </v>
   <v type="int" >      159 </v>
   <v type="int" >      160 </v>
   <v type="int" >      161 </v>
   <v type="int" >      162 </v>
   <v type="int" >      163 </v>
   <v type="int" >      164 </v>
   <v type="int" >      165 </v>
   <v type="int" >      166 </v>
   <v type="int" >      167 </v>
   <v type="int" >      168 </v>
   <v type="int" >      169 </v>
   <v type="int" >      170 </v>
   <v type="int" >      171 </v>
   <v type="int" >      172 </v>
   <v type="int" >      173 </v>
   <v type="int" >      174 </v>
   <v type="int" >      175 </v>
   <v type="int" >      176 </v>
   <v type="int" >      177 </v>
   <v type="int" >      178 </v>
   <v type="int" >      179 </v>
   <v type="int" >      180 </v>
   <v type="int" >      181 </v>
   <v type="int" >      182 </v>
   <v type="int" >      183 </v>
   <v type="int" >      184 </v>
   <v type="int" >      185 </v>
   <v type="int" >      186 </v>
   <v type="int" >      187 </v>
   <v type="int" >      188 </v>
   <v type="int" >      189 </v>
   <v type="int" >      190 </v>
   <v type="int" >      191 </v>
   <v type="int" >      192 </v>
   <v type="int" >      193 </v>
   <v type="int" >      194 </v>
   <v type="int" >      195 </v>
   <v type="int" >      196 </v>
   <v type="int" >      197 </v>
   <v type="int" >      198 </v>
   <v type="int" >      199 </v>
   <v type="int" >      200 </v>
   <v type="int" >      201 </v>
   <v type="int" >      202 </v>
   <v type="int" >      203 </v>
   <v type="int" >      204 </v>
   <v type="int" >      205 </v>
   <v type="int" >      206 </v>
   <v type="int" >      207 </v>
   <v type="int" >      208 </v>
   <v type="int" >      209 </v>
   <v type="int" >      210 </v>
   <v type="int" >      211 </v>
   <v type="int" >      212 </v>
   <v type="int" >      213 </v>
   <v type="int" >      214 </v>
   <v type="int" >      215 </v>
   <v type="int" >      216 </v>
   <v type="int" >      217 </v>
   <v type="int" >      218 </v>
   <v type="int" >      219 </v>
   <v type="int" >      220 </v>
   <v type="int" >      221 </v>
   <v type="int" >      222 </v>
   <v type="int" >      223 </v>
   <v type="int" >      224 </v>
   <v type="int" >      225 </v>
   <v type="int" >      226 </v>
   <v type="int" >      227 </v>
   <v type="int" >      228 </v>
   <v type="int" >      229 </v>
   <v type="int" >      230 </v>
   <v type="int" >      231 </v>
   <v type="int" >      232 </v>
   <v type="int" >      233 </v>
   <v type="int" >      234 </v>
   <v type="int" >      235 </v>
   <v type="int" >      236 </v>
   <v type="int" >      237 </v>
   <v type="int" >      238 </v>
   <v type="int" >      239 </v>
   <v type="int" >      240 </v>
   <v type="int" >      241 </v>
   <v type="int" >      242 </v>
   <v type="int" >      243 </v>
   <v type="int" >      244 </v>
   <v type="int" >      245 </v>
   <v type="int" >      246 </v>
   <v type="int" >      247 </v>
   <v type="int" >      248 </v>
   <v type="int" >      249 </v>
   <v type="int" >      250 </v>
   <v type="int" >      251 </v>
   <v type="int" >      252 </v>
   <v type="int" >      253 </v>
   <v type="int" >      254 </v>
   <v type="int" >      255 </v>
   <v type="int" >      256 </v>
   <v type="int" >      257 </v>
   <v type="int" >      258 </v>
   <v type="int" >      259 </v>
   <v type="int" >      260 </v>
   <v type="int" >      261 </v>
   <v type="int" >      262 </v>
   <v type="int" >      263 </v>
   <v type="int" >      264 </v>
   <v type="int" >      265 </v>
   <v type="int" >      266 </v>
   <v type="int" >      267 </v>
   <v type="int" >      268 </v>
   <v type="int" >      269 </v>
   <v type="int" >      270 </v>
   <v type="int" >      271 </v>
   <v type="int" >      272 </v>
   <v type="int" >      273 </v>
   <v type="int" >      274 </v>
   <v type="int" >      275 </v>
   <v type="int" >      276 </v>
   <v type="int" >      277 </v>
   <v type="int" >      278 </v>
   <v type="int" >      279 </v>
   <v type="int" >      280 </v>
   <v type="int" >      281 </v>
   <v type="int" >      282 </v>
   <v type="int" >      283 </v>
   <v type="int" >      284 </v>
   <v type="int" >      285 </v>
   <v type="int" >      286 </v>
   <v type="int" >      287 </v>
   <v type="int" >      288 </v>
   <v type="int" >      289 </v>
   <v type="int" >      290 </v>
   <v type="int" >      291 </v>
   <v type="int" >      292 </v>
   <v type="int" >      293 </v>
   <v type="int" >      294 </v>
   <v type="int" >      295 </v>
   <v type="int" >      296 </v>
   <v type="int" >      297 </v>
   <v type="int" >      298 </v>
   <v type="int" >      299 </v>
   <v type="int" >      300 </v>
   <v type="int" >      301 </v>
   <v type="int" >      302 </v>
   <v type="int" >      303 </v>
   <v type="int" >      304 </v>
   <v type="int" >      305 </v>
   <v type="int" >      306 </v>
   <v type="int" >      307 </v>
   <v type="int" >      308 </v>
   <v type="int" >      309 </v>
   <v type="int" >      310 </v>
   <v type="int" >      311 </v>
   <v type="int" >      312 </v>
   <v type="int" >      313 </v>
   <v type="int" >      314 </v>
   <v type="int" >      315 </v>
   <v type="int" >      316 </v>
   <v type="int" >      317 </v>
   <v type="int" >      318 </v>
   <v type="int" >      319 </v>
   <v type="int" >      320 </v>
   <v type="int" >      321 </v>
   <v type="int" >      322 </v>
   <v type="int" >      323 </v>
   <v type="int" >      324 </v>
   <v type="int" >      325 </v>
  </varray>
 </primitive_cell>
 <kpoints>
  <generation param="Gamma">
   <v type="int" name="divisions">       3        3        1 </v>
   <v name="usershift">      0.00000000       0.00000000       0.00000000 </v>
   <v name="genvec1">      0.33333333       0.00000000       0.00000000 </v>
   <v name="genvec2">      0.00000000       0.33333333       0.00000000 </v>
   <v name="genvec3">      0.00000000       0.00000000       1.00000000 </v>
   <v name="shift">      0.00000000       0.00000000       0.00000000 </v>
  </generation>
  <varray name="kpointlist" >
   <v>       0.00000000       0.00000000       0.00000000 </v>
   <v>       0.33333333       0.00000000       0.00000000 </v>
   <v>       0.00000000       0.33333333       0.00000000 </v>
   <v>       0.33333333       0.33333333       0.00000000 </v>
   <v>      -0.33333333       0.33333333       0.00000000 </v>
  </varray>
  <varray name="weights" >
   <v>       0.11111111 </v>
   <v>       0.22222222 </v>
   <v>       0.22222222 </v>
   <v>       0.22222222 </v>
   <v>       0.22222222 </v>
  </varray>
 </kpoints>
 <parameters>
  <separator name="general" >
   <i type="string" name="SYSTEM">PSC</i>
   <i type="logical" name="LCOMPAT"> F  </i>
  </separator>
  <separator name="electronic" >
   <i type="string" name="PREC">normal</i>
   <i name="ENMAX">    500.00000000</i>
   <i name="ENAUG">    644.87300000</i>
   <i name="EDIFF">      0.00010000</i>
   <i type="int" name="IALGO">    38</i>
   <i type="int" name="IWAVPR">    10</i>
   <i type="int" name="NBANDS">   732</i>
   <i type="int" name="NBANDSLOW">    -1</i>
   <i type="int" name="NBANDSHIGH">    -1</i>
   <i name="NELECT">   1134.00000000</i>
   <i type="int" name="TURBO">     0</i>
   <i type="int" name="IRESTART">     0</i>
   <i type="int" name="NREBOOT">     0</i>
   <i type="int" name="NMIN">     0</i>
   <i name="EREF">      0.00000000</i>
   <separator name="electronic smearing" >
    <i type="int" name="ISMEAR">     0</i>
    <i name="SIGMA">      0.05000000</i>
    <i name="KSPACING">      0.50000000</i>
    <i type="logical" name="KGAMMA"> T  </i>
    <i type="logical" name="KBLOWUP"> T  </i>
   </separator>
   <separator name="electronic projectors" >
    <i type="logical" name="LREAL"> T  </i>
    <v name="ROPT">     -0.00050000     -0.00050000     -0.00050000     -0.00050000     -0.00050000</v>
    <i type="int" name="LMAXPAW">  -100</i>
    <i type="int" name="LMAXMIX">     2</i>
    <i type="logical" name="NLSPLINE"> F  </i>
   </separator>
   <separator name="electronic startup" >
    <i type="int" name="ISTART">     0</i>
    <i type="int" name="ICHARG">     1</i>
    <i type="int" name="INIWAV">     1</i>
   </separator>
   <separator name="electronic spin" >
    <i type="int" name="ISPIN">     1</i>
    <i type="logical" name="LNONCOLLINEAR"> F  </i>
    <v name="MAGMOM">      1.00000000      1.00000000      1.00000000      1.00000000      1.00000000      1.00000000      1.00000000      1.00000000      1.00000000      1.00000000      1.00000000      1.00000000      1.00000000      1.00000000      1.00000000      1.00000000      1.00000000      1.00000000      1.00000000      1.00000000
      1.00000000      1.00000000      1.00000000      1.00000000      1.00000000      1.00000000      1.00000000      1.00000000      1.00000000      1.00000000      1.00000000      1.00000000      1.00000000      1.00000000      1.00000000      1.00000000      1.00000000      1.00000000      1.00000000      1.00000000
      1.00000000      1.00000000      1.00000000      1.00000000      1.00000000      1.00000000      1.00000000      1.00000000      1.00000000      1.00000000      1.00000000      1.00000000      1.00000000      1.00000000      1.00000000      1.00000000      1.00000000      1.00000000      1.00000000      1.00000000
      1.00000000      1.00000000      1.00000000      1.00000000      1.00000000      1.00000000      1.00000000      1.00000000      1.00000000      1.00000000      1.00000000      1.00000000      1.00000000      1.00000000      1.00000000      1.00000000      1.00000000      1.00000000      1.00000000      1.00000000
      1.00000000      1.00000000      1.00000000      1.00000000      1.00000000      1.00000000      1.00000000      1.00000000      1.00000000      1.00000000      1.00000000      1.00000000      1.00000000      1.00000000      1.00000000      1.00000000      1.00000000      1.00000000      1.00000000      1.00000000
      1.00000000      1.00000000      1.00000000      1.00000000      1.00000000      1.00000000      1.00000000      1.00000000      1.00000000      1.00000000      1.00000000      1.00000000      1.00000000      1.00000000      1.00000000      1.00000000      1.00000000      1.00000000      1.00000000      1.00000000
      1.00000000      1.00000000      1.00000000      1.00000000      1.00000000      1.00000000      1.00000000      1.00000000      1.00000000      1.00000000      1.00000000      1.00000000      1.00000000      1.00000000      1.00000000      1.00000000      1.00000000      1.00000000      1.00000000      1.00000000
      1.00000000      1.00000000      1.00000000      1.00000000      1.00000000      1.00000000      1.00000000      1.00000000      1.00000000      1.00000000      1.00000000      1.00000000      1.00000000      1.00000000      1.00000000      1.00000000      1.00000000      1.00000000      1.00000000      1.00000000
      1.00000000      1.00000000      1.00000000      1.00000000      1.00000000      1.00000000      1.00000000      1.00000000      1.00000000      1.00000000      1.00000000      1.00000000      1.00000000      1.00000000      1.00000000      1.00000000      1.00000000      1.00000000      1.00000000      1.00000000
      1.00000000      1.00000000      1.00000000      1.00000000      1.00000000      1.00000000      1.00000000      1.00000000      1.00000000      1.00000000      1.00000000      1.00000000      1.00000000      1.00000000      1.00000000      1.00000000      1.00000000      1.00000000      1.00000000      1.00000000
      1.00000000      1.00000000      1.00000000      1.00000000      1.00000000      1.00000000      1.00000000      1.00000000      1.00000000      1.00000000      1.00000000      1.00000000      1.00000000      1.00000000      1.00000000      1.00000000      1.00000000      1.00000000      1.00000000      1.00000000
      1.00000000      1.00000000      1.00000000      1.00000000      1.00000000      1.00000000      1.00000000      1.00000000      1.00000000      1.00000000      1.00000000      1.00000000      1.00000000      1.00000000      1.00000000      1.00000000      1.00000000      1.00000000      1.00000000      1.00000000
      1.00000000      1.00000000      1.00000000      1.00000000      1.00000000      1.00000000      1.00000000      1.00000000      1.00000000      1.00000000      1.00000000      1.00000000      1.00000000      1.00000000      1.00000000      1.00000000      1.00000000      1.00000000      1.00000000      1.00000000
      1.00000000      1.00000000      1.00000000      1.00000000      1.00000000      1.00000000      1.00000000      1.00000000      1.00000000      1.00000000      1.00000000      1.00000000      1.00000000      1.00000000      1.00000000      1.00000000      1.00000000      1.00000000      1.00000000      1.00000000
      1.00000000      1.00000000      1.00000000      1.00000000      1.00000000      1.00000000      1.00000000      1.00000000      1.00000000      1.00000000      1.00000000      1.00000000      1.00000000      1.00000000      1.00000000      1.00000000      1.00000000      1.00000000      1.00000000      1.00000000
      1.00000000      1.00000000      1.00000000      1.00000000      1.00000000      1.00000000      1.00000000      1.00000000      1.00000000      1.00000000      1.00000000      1.00000000      1.00000000      1.00000000      1.00000000      1.00000000      1.00000000      1.00000000      1.00000000      1.00000000
      1.00000000      1.00000000      1.00000000      1.00000000      1.00000000</v>
    <i name="NUPDOWN">     -1.00000000</i>
    <i type="logical" name="LSORBIT"> F  </i>
    <v name="SAXIS">      0.00000000      0.00000000      1.00000000</v>
    <i type="logical" name="LSPIRAL"> F  </i>
    <v name="QSPIRAL">      0.00000000      0.00000000      0.00000000</v>
    <i type="logical" name="LZEROZ"> F  </i>
   </separator>
   <separator name="electronic exchange-correlation" >
    <i type="logical" name="LASPH"> F  </i>
    <i type="logical" name="LMETAGGA"> F  </i>
   </separator>
   <separator name="electronic convergence" >
    <i type="int" name="NELM">   600</i>
    <i type="int" name="NELMDL">     0</i>
    <i type="int" name="NELMIN">     2</i>
    <i name="ENINI">    500.00000000</i>
    <separator name="electronic convergence detail" >
     <i type="logical" name="LDIAG"> T  </i>
     <i type="logical" name="LSUBROT"> F  </i>
     <i name="WEIMIN">      0.00000000</i>
     <i name="EBREAK">      0.00000003</i>
     <i name="DEPER">      0.30000000</i>
     <i type="int" name="NRMM">     4</i>
     <i name="TIME">      0.40000000</i>
    </separator>
   </separator>
   <separator name="electronic mixer" >
    <i name="AMIX">      0.40000000</i>
    <i name="BMIX">      0.01000000</i>
    <i name="AMIN">      0.01000000</i>
    <i name="AMIX_MAG">      1.60000000</i>
    <i name="BMIX_MAG">      0.01000000</i>
    <separator name="electronic mixer details" >
     <i type="int" name="IMIX">     4</i>
     <i type="logical" name="MIXFIRST"> F  </i>
     <i type="int" name="MAXMIX">   -45</i>
     <i name="WC">    100.00000000</i>
     <i type="int" name="INIMIX">     1</i>
     <i type="int" name="MIXPRE">     1</i>
     <i type="int" name="MREMOVE">     5</i>
    </separator>
   </separator>
   <separator name="electronic dipolcorrection" >
    <i type="logical" name="LDIPOL"> T  </i>
    <i type="logical" name="LMONO"> F  </i>
    <i type="int" name="IDIPOL">     3</i>
    <i name="EPSILON">      1.00000000</i>
    <v name="DIPOL">   -100.00000000   -100.00000000   -100.00000000</v>
    <i name="EFIELD">      0.00000000</i>
   </separator>
  </separator>
  <separator name="grids" >
   <i type="int" name="NGX">   100</i>
   <i type="int" name="NGY">   100</i>
   <i type="int" name="NGZ">   350</i>
   <i type="int" name="NGXF">   200</i>
   <i type="int" name="NGYF">   200</i>
   <i type="int" name="NGZF">   700</i>
   <i type="logical" name="ADDGRID"> F  </i>
  </separator>
  <separator name="ionic" >
   <i type="int" name="NSW">     0</i>
   <i type="int" name="IBRION">    -1</i>
   <i type="int" name="MDALGO">     0</i>
   <i type="int" name="ISIF">     2</i>
   <i name="PSTRESS">      0.00000000</i>
   <i name="EDIFFG">      0.00100000</i>
   <i type="int" name="NFREE">     0</i>
   <i name="POTIM">      0.50000000</i>
   <i name="SMASS">     -3.00000000</i>
   <i name="SCALEE">      1.00000000</i>
  </separator>
  <separator name="ionic md" >
   <i name="TEBEG">      0.00010000</i>
   <i name="TEEND">      0.00010000</i>
   <i type="int" name="NBLOCK">     1</i>
   <i type="int" name="KBLOCK">     1</i>
   <i type="int" name="NPACO">   256</i>
   <i name="APACO">     16.00000000</i>
  </separator>
  <separator name="symmetry" >
   <i type="int" name="ISYM">     0</i>
   <i name="SYMPREC">      0.00001000</i>
  </separator>
  <separator name="dos" >
   <i type="int" name="LORBIT">     0</i>
   <v name="RWIGS">     -1.00000000     -1.00000000     -1.00000000     -1.00000000     -1.00000000</v>
   <i type="int" name="NEDOS">   301</i>
   <i name="EMIN">     10.00000000</i>
   <i name="EMAX">    -10.00000000</i>
   <i name="EFERMI">      0.00000000</i>
  </separator>
  <separator name="writing" >
   <i type="int" name="NWRITE">     2</i>
   <i type="logical" name="LWAVE"> F  </i>
   <i type="logical" name="LDOWNSAMPLE"> F  </i>
   <i type="logical" name="LCHARG"> T  </i>
   <i type="logical" name="LPARD"> F  </i>
   <i type="logical" name="LVTOT"> T  </i>
   <i type="logical" name="LVHAR"> F  </i>
   <i type="logical" name="LELF"> F  </i>
   <i type="logical" name="LOPTICS"> F  </i>
   <v name="STM">      0.00000000      0.00000000      0.00000000      0.00000000      0.00000000      0.00000000      0.00000000</v>
  </separator>
  <separator name="performance" >
   <i type="int" name="NPAR">     4</i>
   <i type="int" name="NSIM">     4</i>
   <i type="int" name="NBLK">    -1</i>
   <i type="logical" name="LPLANE"> T  </i>
   <i type="logical" name="LSCALAPACK"> T  </i>
   <i type="logical" name="LSCAAWARE"> F  </i>
   <i type="logical" name="LSCALU"> F  </i>
   <i type="logical" name="LASYNC"> F  </i>
   <i type="logical" name="LORBITALREAL"> F  </i>
  </separator>
  <separator name="miscellaneous" >
   <i type="int" name="IDIOT">     3</i>
   <i type="int" name="PHON_NSTRUCT">    -1</i>
   <i type="logical" name="LMUSIC"> F  </i>
   <v name="POMASS">      1.00000000     12.01100000     14.00100000    126.90400000    207.20000000</v>
   <v name="DARWINR">      0.00000000      0.00000000      0.00000000      0.00000000      0.00000000</v>
   <v name="DARWINV">      1.00000000      1.00000000      1.00000000      1.00000000      1.00000000</v>
   <i type="logical" name="LCORR"> T  </i>
  </separator>
  <i type="logical" name="GGA_COMPAT"> F  </i>
  <i type="logical" name="LBERRY"> F  </i>
  <i type="int" name="ICORELEVEL">     0</i>
  <i type="logical" name="LDAU"> F  </i>
  <i type="int" name="I_CONSTRAINED_M">     0</i>
  <separator name="electronic exchange-correlation" >
   <i type="string" name="GGA">--</i>
   <i type="int" name="VOSKOWN">     0</i>
   <i type="logical" name="LHFCALC"> F  </i>
   <i type="string" name="PRECFOCK"></i>
   <i type="logical" name="LSYMGRAD"> F  </i>
   <i type="logical" name="LHFONE"> F  </i>
   <i type="logical" name="LRHFCALC"> F  </i>
   <i type="logical" name="LTHOMAS"> F  </i>
   <i type="logical" name="LMODELHF"> F  </i>
   <i type="logical" name="LFOCKACE"> F  </i>
   <i name="ENCUT4O">     -1.00000000</i>
   <i type="int" name="EXXOEP">     0</i>
   <i type="int" name="FOURORBIT">     0</i>
   <i name="AEXX">      0.00000000</i>
   <i name="HFALPHA">      0.00000000</i>
   <i name="MCALPHA">      0.00000000</i>
   <i name="ALDAX">      1.00000000</i>
   <i name="AGGAX">      1.00000000</i>
   <i name="ALDAC">      1.00000000</i>
   <i name="AGGAC">      1.00000000</i>
   <i type="int" name="NKREDX">     1</i>
   <i type="int" name="NKREDY">     1</i>
   <i type="int" name="NKREDZ">     1</i>
   <i type="logical" name="SHIFTRED"> F  </i>
   <i type="logical" name="ODDONLY"> F  </i>
   <i type="logical" name="EVENONLY"> F  </i>
   <i type="int" name="LMAXFOCK">     0</i>
   <i type="int" name="NMAXFOCKAE">     0</i>
   <i type="logical" name="LFOCKAEDFT"> F  </i>
   <i name="HFSCREEN">      0.00000000</i>
   <i name="HFSCREENC">      0.00000000</i>
   <i type="int" name="NBANDSGWLOW">     0</i>
  </separator>
  <separator name="vdW DFT" >
   <i type="logical" name="LUSE_VDW"> F  </i>
   <i name="Zab_VDW">     -0.84910000</i>
   <i name="PARAM1">      0.12340000</i>
   <i name="PARAM2">      1.00000000</i>
   <i name="PARAM3">      0.00000000</i>
  </separator>
  <separator name="model GW" >
   <i type="int" name="MODEL_GW">     0</i>
   <i name="MODEL_EPS0">     37.63423484</i>
   <i name="MODEL_ALPHA">      1.00000000</i>
  </separator>
  <separator name="linear response parameters" >
   <i type="logical" name="LEPSILON"> F  </i>
   <i type="logical" name="LRPA"> F  </i>
   <i type="logical" name="LNABLA"> F  </i>
   <i type="logical" name="LVEL"> F  </i>
   <i type="int" name="KINTER">     0</i>
   <i name="CSHIFT">      0.10000000</i>
   <i name="OMEGAMAX">     -1.00000000</i>
   <i name="DEG_THRESHOLD">      0.00200000</i>
   <i name="RTIME">     -0.10000000</i>
   <i name="WPLASMAI">      0.00000000</i>
   <v name="DFIELD">      0.00000000      0.00000000      0.00000000</v>
   <v name="WPLASMA">      0.00000000      0.00000000      0.00000000      0.00000000      0.00000000      0.00000000      0.00000000      0.00000000      0.00000000</v>
  </separator>
  <separator name="orbital magnetization" >
   <i type="logical" name="NUCIND"> F  </i>
   <v name="MAGPOS">      0.00000000      0.00000000      0.00000000</v>
   <i type="logical" name="LNICSALL"> T  </i>
   <i type="logical" name="ORBITALMAG"> F  </i>
   <i type="logical" name="LMAGBLOCH"> F  </i>
   <i type="logical" name="LCHIMAG"> F  </i>
   <i type="logical" name="LGAUGE"> T  </i>
   <i type="int" name="MAGATOM">     0</i>
   <v name="MAGDIPOL">      0.00000000      0.00000000      0.00000000</v>
   <v name="AVECCONST">      0.00000000      0.00000000      0.00000000</v>
  </separator>
  <separator name="response functions" >
   <i type="logical" name="LFINITE_TEMPERATURE"> F  </i>
   <i type="logical" name="LADDER"> F  </i>
   <i type="logical" name="LRPAFORCE"> F  </i>
   <i type="logical" name="LFXC"> F  </i>
   <i type="logical" name="LHARTREE"> T  </i>
   <i type="int" name="IBSE">     0</i>
   <v type="int" name="KPOINT">    -1     0     0     0</v>
   <i type="logical" name="LTCTC"> F  </i>
   <i type="logical" name="LTCTE"> F  </i>
   <i type="logical" name="LTETE"> F  </i>
   <i type="logical" name="LTRIPLET"> F  </i>
   <i type="logical" name="LFXCEPS"> F  </i>
   <i type="logical" name="LFXHEG"> F  </i>
   <i type="int" name="NATURALO">     2</i>
   <i type="logical" name="LHOLEGF"> F  </i>
   <i type="logical" name="L2ORDER"> F  </i>
   <i type="logical" name="LDMP1"> F  </i>
   <i type="logical" name="LMP2LT"> F  </i>
   <i type="logical" name="LSMP2LT"> F  </i>
   <i type="logical" name="LGWLF"> F  </i>
   <i name="ENCUTGW">     -2.00000000</i>
   <i name="ENCUTGWSOFT">     -2.00000000</i>
   <i name="ENCUTLF">     -1.00000000</i>
   <i type="logical" name="LESF_SPLINES"> F  </i>
   <i type="int" name="LMAXMP2">    -1</i>
   <i name="SCISSOR">      0.00000000</i>
   <i type="int" name="NOMEGA">     0</i>
   <i type="int" name="NOMEGAR">     0</i>
   <i type="int" name="NBANDSGW">    -1</i>
   <i type="int" name="NBANDSO">    -1</i>
   <i type="int" name="NBANDSV">    -1</i>
   <i type="int" name="NELM">   600</i>
   <i type="int" name="NELMHF">     1</i>
   <i type="int" name="DIM">     3</i>
   <i type="int" name="IESPILON">     4</i>
   <i type="int" name="ANTIRES">     0</i>
   <i name="OMEGAMAX">    -30.00000000</i>
   <i name="OMEGAMIN">    -30.00000000</i>
   <i name="OMEGATL">   -200.00000000</i>
   <i type="int" name="OMEGAGRID">     0</i>
   <i name="CSHIFT">     -0.10000000</i>
   <i type="logical" name="LSELFENERGY"> F  </i>
   <i type="logical" name="LSPECTRAL"> F  </i>
   <i type="logical" name="LSPECTRALGW"> F  </i>
   <i type="logical" name="LSINGLES"> F  </i>
   <i type="logical" name="LFERMIGW"> F  </i>
   <i type="logical" name="ODDONLYGW"> F  </i>
   <i type="logical" name="EVENONLYGW"> F  </i>
   <i type="int" name="NKREDLFX">     1</i>
   <i type="int" name="NKREDLFY">     1</i>
   <i type="int" name="NKREDLFZ">     1</i>
   <i type="int" name="MAXMEM">  2800</i>
   <i type="int" name="TELESCOPE">     0</i>
   <i type="int" name="NTAUPAR">    -1</i>
   <i type="int" name="NOMEGAPAR">    -1</i>
   <i name="DAMP_NEWTON">      0.80000001</i>
   <i name="LAMBDA">      1.00000000</i>
  </separator>
  <separator name="External order field" >
   <i name="OFIELD_KAPPA">      0.00000000</i>
   <v name="OFIELD_K">      0.00000000      0.00000000      0.00000000</v>
   <i name="OFIELD_Q6_NEAR">      0.00000000</i>
   <i name="OFIELD_Q6_FAR">      0.00000000</i>
   <i name="OFIELD_A">      0.00000000</i>
  </separator>
 </parameters>
 <atominfo>
  <atoms>     325 </atoms>
  <types>       5 </types>
  <array name="atoms" >
   <dimension dim="1">ion</dimension>
   <field type="string">element</field>
   <field type="int">atomtype</field>
   <set>
    <rc><c>H </c><c>   1</c></rc>
    <rc><c>H </c><c>   1</c></rc>
    <rc><c>H </c><c>   1</c></rc>
    <rc><c>H </c><c>   1</c></rc>
    <rc><c>H </c><c>   1</c></rc>
    <rc><c>H </c><c>   1</c></rc>
    <rc><c>H </c><c>   1</c></rc>
    <rc><c>H </c><c>   1</c></rc>
    <rc><c>H </c><c>   1</c></rc>
    <rc><c>H </c><c>   1</c></rc>
    <rc><c>H </c><c>   1</c></rc>
    <rc><c>H </c><c>   1</c></rc>
    <rc><c>H </c><c>   1</c></rc>
    <rc><c>H </c><c>   1</c></rc>
    <rc><c>H </c><c>   1</c></rc>
    <rc><c>H </c><c>   1</c></rc>
    <rc><c>H </c><c>   1</c></rc>
    <rc><c>H </c><c>   1</c></rc>
    <rc><c>H </c><c>   1</c></rc>
    <rc><c>H </c><c>   1</c></rc>
    <rc><c>H </c><c>   1</c></rc>
    <rc><c>H </c><c>   1</c></rc>
    <rc><c>H </c><c>   1</c></rc>
    <rc><c>H </c><c>   1</c></rc>
    <rc><c>H </c><c>   1</c></rc>
    <rc><c>H </c><c>   1</c></rc>
    <rc><c>H </c><c>   1</c></rc>
    <rc><c>H </c><c>   1</c></rc>
    <rc><c>H </c><c>   1</c></rc>
    <rc><c>H </c><c>   1</c></rc>
    <rc><c>H </c><c>   1</c></rc>
    <rc><c>H </c><c>   1</c></rc>
    <rc><c>H </c><c>   1</c></rc>
    <rc><c>H </c><c>   1</c></rc>
    <rc><c>H </c><c>   1</c></rc>
    <rc><c>H </c><c>   1</c></rc>
    <rc><c>H </c><c>   1</c></rc>
    <rc><c>H </c><c>   1</c></rc>
    <rc><c>H </c><c>   1</c></rc>
    <rc><c>H </c><c>   1</c></rc>
    <rc><c>H </c><c>   1</c></rc>
    <rc><c>H </c><c>   1</c></rc>
    <rc><c>H </c><c>   1</c></rc>
    <rc><c>H </c><c>   1</c></rc>
    <rc><c>H </c><c>   1</c></rc>
    <rc><c>H </c><c>   1</c></rc>
    <rc><c>H </c><c>   1</c></rc>
    <rc><c>H </c><c>   1</c></rc>
    <rc><c>H </c><c>   1</c></rc>
    <rc><c>H </c><c>   1</c></rc>
    <rc><c>H </c><c>   1</c></rc>
    <rc><c>H </c><c>   1</c></rc>
    <rc><c>H </c><c>   1</c></rc>
    <rc><c>H </c><c>   1</c></rc>
    <rc><c>H </c><c>   1</c></rc>
    <rc><c>H </c><c>   1</c></rc>
    <rc><c>H </c><c>   1</c></rc>
    <rc><c>H </c><c>   1</c></rc>
    <rc><c>H </c><c>   1</c></rc>
    <rc><c>H </c><c>   1</c></rc>
    <rc><c>H </c><c>   1</c></rc>
    <rc><c>H </c><c>   1</c></rc>
    <rc><c>H </c><c>   1</c></rc>
    <rc><c>H </c><c>   1</c></rc>
    <rc><c>H </c><c>   1</c></rc>
    <rc><c>H </c><c>   1</c></rc>
    <rc><c>H </c><c>   1</c></rc>
    <rc><c>H </c><c>   1</c></rc>
    <rc><c>H </c><c>   1</c></rc>
    <rc><c>H </c><c>   1</c></rc>
    <rc><c>H </c><c>   1</c></rc>
    <rc><c>H </c><c>   1</c></rc>
    <rc><c>H </c><c>   1</c></rc>
    <rc><c>H </c><c>   1</c></rc>
    <rc><c>H </c><c>   1</c></rc>
    <rc><c>H </c><c>   1</c></rc>
    <rc><c>H </c><c>   1</c></rc>
    <rc><c>H </c><c>   1</c></rc>
    <rc><c>H </c><c>   1</c></rc>
    <rc><c>H </c><c>   1</c></rc>
    <rc><c>H </c><c>   1</c></rc>
    <rc><c>H </c><c>   1</c></rc>
    <rc><c>H </c><c>   1</c></rc>
    <rc><c>H </c><c>   1</c></rc>
    <rc><c>H </c><c>   1</c></rc>
    <rc><c>H </c><c>   1</c></rc>
    <rc><c>H </c><c>   1</c></rc>
    <rc><c>H </c><c>   1</c></rc>
    <rc><c>H </c><c>   1</c></rc>
    <rc><c>H </c><c>   1</c></rc>
    <rc><c>H </c><c>   1</c></rc>
    <rc><c>H </c><c>   1</c></rc>
    <rc><c>H </c><c>   1</c></rc>
    <rc><c>H </c><c>   1</c></rc>
    <rc><c>H </c><c>   1</c></rc>
    <rc><c>H </c><c>   1</c></rc>
    <rc><c>H </c><c>   1</c></rc>
    <rc><c>H </c><c>   1</c></rc>
    <rc><c>H </c><c>   1</c></rc>
    <rc><c>H </c><c>   1</c></rc>
    <rc><c>H </c><c>   1</c></rc>
    <rc><c>H </c><c>   1</c></rc>
    <rc><c>H </c><c>   1</c></rc>
    <rc><c>H </c><c>   1</c></rc>
    <rc><c>H </c><c>   1</c></rc>
    <rc><c>H </c><c>   1</c></rc>
    <rc><c>H </c><c>   1</c></rc>
    <rc><c>H </c><c>   1</c></rc>
    <rc><c>H </c><c>   1</c></rc>
    <rc><c>H </c><c>   1</c></rc>
    <rc><c>H </c><c>   1</c></rc>
    <rc><c>H </c><c>   1</c></rc>
    <rc><c>H </c><c>   1</c></rc>
    <rc><c>H </c><c>   1</c></rc>
    <rc><c>H </c><c>   1</c></rc>
    <rc><c>H </c><c>   1</c></rc>
    <rc><c>H </c><c>   1</c></rc>
    <rc><c>H </c><c>   1</c></rc>
    <rc><c>H </c><c>   1</c></rc>
    <rc><c>H </c><c>   1</c></rc>
    <rc><c>H </c><c>   1</c></rc>
    <rc><c>H </c><c>   1</c></rc>
    <rc><c>H </c><c>   1</c></rc>
    <rc><c>H </c><c>   1</c></rc>
    <rc><c>H </c><c>   1</c></rc>
    <rc><c>H </c><c>   1</c></rc>
    <rc><c>H </c><c>   1</c></rc>
    <rc><c>H </c><c>   1</c></rc>
    <rc><c>H </c><c>   1</c></rc>
    <rc><c>H </c><c>   1</c></rc>
    <rc><c>H </c><c>   1</c></rc>
    <rc><c>H </c><c>   1</c></rc>
    <rc><c>H </c><c>   1</c></rc>
    <rc><c>H </c><c>   1</c></rc>
    <rc><c>H </c><c>   1</c></rc>
    <rc><c>H </c><c>   1</c></rc>
    <rc><c>H </c><c>   1</c></rc>
    <rc><c>H </c><c>   1</c></rc>
    <rc><c>H </c><c>   1</c></rc>
    <rc><c>H </c><c>   1</c></rc>
    <rc><c>H </c><c>   1</c></rc>
    <rc><c>H </c><c>   1</c></rc>
    <rc><c>H </c><c>   1</c></rc>
    <rc><c>C </c><c>   2</c></rc>
    <rc><c>C </c><c>   2</c></rc>
    <rc><c>C </c><c>   2</c></rc>
    <rc><c>C </c><c>   2</c></rc>
    <rc><c>C </c><c>   2</c></rc>
    <rc><c>C </c><c>   2</c></rc>
    <rc><c>C </c><c>   2</c></rc>
    <rc><c>C </c><c>   2</c></rc>
    <rc><c>C </c><c>   2</c></rc>
    <rc><c>C </c><c>   2</c></rc>
    <rc><c>C </c><c>   2</c></rc>
    <rc><c>C </c><c>   2</c></rc>
    <rc><c>C </c><c>   2</c></rc>
    <rc><c>C </c><c>   2</c></rc>
    <rc><c>C </c><c>   2</c></rc>
    <rc><c>C </c><c>   2</c></rc>
    <rc><c>C </c><c>   2</c></rc>
    <rc><c>C </c><c>   2</c></rc>
    <rc><c>C </c><c>   2</c></rc>
    <rc><c>C </c><c>   2</c></rc>
    <rc><c>C </c><c>   2</c></rc>
    <rc><c>C </c><c>   2</c></rc>
    <rc><c>C </c><c>   2</c></rc>
    <rc><c>C </c><c>   2</c></rc>
    <rc><c>C </c><c>   2</c></rc>
    <rc><c>C </c><c>   2</c></rc>
    <rc><c>C </c><c>   2</c></rc>
    <rc><c>C </c><c>   2</c></rc>
    <rc><c>C </c><c>   2</c></rc>
    <rc><c>C </c><c>   2</c></rc>
    <rc><c>C </c><c>   2</c></rc>
    <rc><c>C </c><c>   2</c></rc>
    <rc><c>C </c><c>   2</c></rc>
    <rc><c>C </c><c>   2</c></rc>
    <rc><c>C </c><c>   2</c></rc>
    <rc><c>C </c><c>   2</c></rc>
    <rc><c>C </c><c>   2</c></rc>
    <rc><c>C </c><c>   2</c></rc>
    <rc><c>C </c><c>   2</c></rc>
    <rc><c>N </c><c>   3</c></rc>
    <rc><c>N </c><c>   3</c></rc>
    <rc><c>N </c><c>   3</c></rc>
    <rc><c>N </c><c>   3</c></rc>
    <rc><c>N </c><c>   3</c></rc>
    <rc><c>N </c><c>   3</c></rc>
    <rc><c>N </c><c>   3</c></rc>
    <rc><c>N </c><c>   3</c></rc>
    <rc><c>N </c><c>   3</c></rc>
    <rc><c>N </c><c>   3</c></rc>
    <rc><c>N </c><c>   3</c></rc>
    <rc><c>N </c><c>   3</c></rc>
    <rc><c>N </c><c>   3</c></rc>
    <rc><c>N </c><c>   3</c></rc>
    <rc><c>N </c><c>   3</c></rc>
    <rc><c>N </c><c>   3</c></rc>
    <rc><c>N </c><c>   3</c></rc>
    <rc><c>N </c><c>   3</c></rc>
    <rc><c>N </c><c>   3</c></rc>
    <rc><c>N </c><c>   3</c></rc>
    <rc><c>N </c><c>   3</c></rc>
    <rc><c>N </c><c>   3</c></rc>
    <rc><c>N </c><c>   3</c></rc>
    <rc><c>N </c><c>   3</c></rc>
    <rc><c>N </c><c>   3</c></rc>
    <rc><c>N </c><c>   3</c></rc>
    <rc><c>N </c><c>   3</c></rc>
    <rc><c>N </c><c>   3</c></rc>
    <rc><c>N </c><c>   3</c></rc>
    <rc><c>N </c><c>   3</c></rc>
    <rc><c>N </c><c>   3</c></rc>
    <rc><c>N </c><c>   3</c></rc>
    <rc><c>N </c><c>   3</c></rc>
    <rc><c>N </c><c>   3</c></rc>
    <rc><c>N </c><c>   3</c></rc>
    <rc><c>N </c><c>   3</c></rc>
    <rc><c>N </c><c>   3</c></rc>
    <rc><c>N </c><c>   3</c></rc>
    <rc><c>N </c><c>   3</c></rc>
    <rc><c>N </c><c>   3</c></rc>
    <rc><c>N </c><c>   3</c></rc>
    <rc><c>N </c><c>   3</c></rc>
    <rc><c>N </c><c>   3</c></rc>
    <rc><c>N </c><c>   3</c></rc>
    <rc><c>N </c><c>   3</c></rc>
    <rc><c>N </c><c>   3</c></rc>
    <rc><c>N </c><c>   3</c></rc>
    <rc><c>I </c><c>   4</c></rc>
    <rc><c>I </c><c>   4</c></rc>
    <rc><c>I </c><c>   4</c></rc>
    <rc><c>I </c><c>   4</c></rc>
    <rc><c>I </c><c>   4</c></rc>
    <rc><c>I </c><c>   4</c></rc>
    <rc><c>I </c><c>   4</c></rc>
    <rc><c>I </c><c>   4</c></rc>
    <rc><c>I </c><c>   4</c></rc>
    <rc><c>I </c><c>   4</c></rc>
    <rc><c>I </c><c>   4</c></rc>
    <rc><c>I </c><c>   4</c></rc>
    <rc><c>I </c><c>   4</c></rc>
    <rc><c>I </c><c>   4</c></rc>
    <rc><c>I </c><c>   4</c></rc>
    <rc><c>I </c><c>   4</c></rc>
    <rc><c>I </c><c>   4</c></rc>
    <rc><c>I </c><c>   4</c></rc>
    <rc><c>I </c><c>   4</c></rc>
    <rc><c>I </c><c>   4</c></rc>
    <rc><c>I </c><c>   4</c></rc>
    <rc><c>I </c><c>   4</c></rc>
    <rc><c>I </c><c>   4</c></rc>
    <rc><c>I </c><c>   4</c></rc>
    <rc><c>I </c><c>   4</c></rc>
    <rc><c>I </c><c>   4</c></rc>
    <rc><c>I </c><c>   4</c></rc>
    <rc><c>I </c><c>   4</c></rc>
    <rc><c>I </c><c>   4</c></rc>
    <rc><c>I </c><c>   4</c></rc>
    <rc><c>I </c><c>   4</c></rc>
    <rc><c>I </c><c>   4</c></rc>
    <rc><c>I </c><c>   4</c></rc>
    <rc><c>I </c><c>   4</c></rc>
    <rc><c>I </c><c>   4</c></rc>
    <rc><c>I </c><c>   4</c></rc>
    <rc><c>I </c><c>   4</c></rc>
    <rc><c>I </c><c>   4</c></rc>
    <rc><c>I </c><c>   4</c></rc>
    <rc><c>I </c><c>   4</c></rc>
    <rc><c>I </c><c>   4</c></rc>
    <rc><c>I </c><c>   4</c></rc>
    <rc><c>I </c><c>   4</c></rc>
    <rc><c>I </c><c>   4</c></rc>
    <rc><c>I </c><c>   4</c></rc>
    <rc><c>I </c><c>   4</c></rc>
    <rc><c>I </c><c>   4</c></rc>
    <rc><c>I </c><c>   4</c></rc>
    <rc><c>I </c><c>   4</c></rc>
    <rc><c>I </c><c>   4</c></rc>
    <rc><c>I </c><c>   4</c></rc>
    <rc><c>I </c><c>   4</c></rc>
    <rc><c>I </c><c>   4</c></rc>
    <rc><c>I </c><c>   4</c></rc>
    <rc><c>I </c><c>   4</c></rc>
    <rc><c>I </c><c>   4</c></rc>
    <rc><c>I </c><c>   4</c></rc>
    <rc><c>I </c><c>   4</c></rc>
    <rc><c>I </c><c>   4</c></rc>
    <rc><c>I </c><c>   4</c></rc>
    <rc><c>I </c><c>   4</c></rc>
    <rc><c>I </c><c>   4</c></rc>
    <rc><c>I </c><c>   4</c></rc>
    <rc><c>I </c><c>   4</c></rc>
    <rc><c>I </c><c>   4</c></rc>
    <rc><c>I </c><c>   4</c></rc>
    <rc><c>I </c><c>   4</c></rc>
    <rc><c>I </c><c>   4</c></rc>
    <rc><c>I </c><c>   4</c></rc>
    <rc><c>I </c><c>   4</c></rc>
    <rc><c>I </c><c>   4</c></rc>
    <rc><c>I </c><c>   4</c></rc>
    <rc><c>Pb</c><c>   5</c></rc>
    <rc><c>Pb</c><c>   5</c></rc>
    <rc><c>Pb</c><c>   5</c></rc>
    <rc><c>Pb</c><c>   5</c></rc>
    <rc><c>Pb</c><c>   5</c></rc>
    <rc><c>Pb</c><c>   5</c></rc>
    <rc><c>Pb</c><c>   5</c></rc>
    <rc><c>Pb</c><c>   5</c></rc>
    <rc><c>Pb</c><c>   5</c></rc>
    <rc><c>Pb</c><c>   5</c></rc>
    <rc><c>Pb</c><c>   5</c></rc>
    <rc><c>Pb</c><c>   5</c></rc>
    <rc><c>Pb</c><c>   5</c></rc>
    <rc><c>Pb</c><c>   5</c></rc>
    <rc><c>Pb</c><c>   5</c></rc>
    <rc><c>Pb</c><c>   5</c></rc>
    <rc><c>Pb</c><c>   5</c></rc>
    <rc><c>Pb</c><c>   5</c></rc>
    <rc><c>Pb</c><c>   5</c></rc>
    <rc><c>Pb</c><c>   5</c></rc>
    <rc><c>Pb</c><c>   5</c></rc>
    <rc><c>Pb</c><c>   5</c></rc>
    <rc><c>Pb</c><c>   5</c></rc>
    <rc><c>Pb</c><c>   5</c></rc>
   </set>
  </array>
  <array name="atomtypes" >
   <dimension dim="1">type</dimension>
   <field type="int">atomspertype</field>
   <field type="string">element</field>
   <field>mass</field>
   <field>valence</field>
   <field type="string">pseudopotential</field>
   <set>
    <rc><c> 143</c><c>H </c><c>      1.00000000</c><c>      1.00000000</c><c>  PAW_PBE H 15Jun2001                   </c></rc>
    <rc><c>  39</c><c>C </c><c>     12.01100000</c><c>      4.00000000</c><c>  PAW_PBE C 08Apr2002                   </c></rc>
    <rc><c>  47</c><c>N </c><c>     14.00100000</c><c>      5.00000000</c><c>  PAW_PBE N 08Apr2002                   </c></rc>
    <rc><c>  72</c><c>I </c><c>    126.90400000</c><c>      7.00000000</c><c>  PAW_PBE I 08Apr2002                   </c></rc>
    <rc><c>  24</c><c>Pb</c><c>    207.20000000</c><c>      4.00000000</c><c>  PAW_PBE Pb 08Apr2002                  </c></rc>
   </set>
  </array>
 </atominfo>
 <structure name="initialpos" >
  <crystal>
   <varray name="basis" >
    <v>      18.06080055       0.00000000       0.00000000 </v>
    <v>      -0.00491865      18.06279945       0.00000000 </v>
    <v>       0.00000000       0.00000000      62.48749924 </v>
   </varray>
   <i name="volume">  20385.21054034 </i>
   <varray name="rec_basis" >
    <v>       0.05536853       0.00001508      -0.00000000 </v>
    <v>       0.00000000       0.05536240       0.00000000 </v>
    <v>       0.00000000      -0.00000000       0.01600320 </v>
   </varray>
  </crystal>
  <varray name="positions" >
   <v>       0.40718222       0.28504096       0.55945260 </v>
   <v>       0.41692938       0.69624679       0.57057366 </v>
   <v>       0.92397811       0.29281960       0.57882408 </v>
   <v>       0.92450360       0.81318177       0.57281605 </v>
   <v>       0.32247827       0.09061905       0.56246186 </v>
   <v>       0.32603375       0.56974835       0.56755004 </v>
   <v>       0.79418054       0.10583961       0.56386754 </v>
   <v>       0.10821222       0.24122624       0.56174090 </v>
   <v>       0.07909572       0.68490738       0.56865567 </v>
   <v>       0.58103357       0.18491233       0.56497567 </v>
   <v>       0.59889242       0.76908851       0.55947793 </v>
   <v>       0.37947632       0.01712452       0.55435972 </v>
   <v>       0.25634523       0.62087976       0.55490939 </v>
   <v>       0.87269995       0.05392601       0.55595385 </v>
   <v>       0.06202672       0.29035299       0.58138948 </v>
   <v>       0.99254895       0.69356377       0.58073413 </v>
   <v>       0.48652343       0.17356052       0.56943506 </v>
   <v>       0.55321333       0.69927981       0.57342609 </v>
   <v>       0.30539808       0.43473306       0.57159150 </v>
   <v>       0.19060622       0.06493649       0.56835898 </v>
   <v>       0.68149310       0.02996572       0.57347927 </v>
   <v>       0.45779391       0.36585212       0.55356629 </v>
   <v>       0.37418615       0.75964970       0.55358332 </v>
   <v>       0.88344471       0.24441881       0.55750586 </v>
   <v>       0.96927065       0.87362875       0.55548110 </v>
   <v>       0.22873876       0.39776902       0.55893088 </v>
   <v>       0.15851091       0.97778867       0.56153553 </v>
   <v>       0.68682569       0.93616415       0.56637476 </v>
   <v>       0.57050806       0.30581881       0.55472906 </v>
   <v>       0.48875778       0.81557382       0.54476857 </v>
   <v>       0.99900048       0.20416985       0.54447578 </v>
   <v>       0.06906708       0.79470363       0.54975150 </v>
   <v>       0.18637008       0.51381674       0.54734287 </v>
   <v>       0.27741392       0.93547697       0.55219974 </v>
   <v>       0.80708914       0.94291078       0.55530650 </v>
   <v>       0.45526936       0.29989671       0.67305686 </v>
   <v>       0.44087967       0.81511010       0.67075867 </v>
   <v>       0.95557047       0.28428833       0.67622754 </v>
   <v>       0.91221550       0.74075182       0.66154803 </v>
   <v>       0.29519004       0.04072889       0.67525298 </v>
   <v>       0.30091952       0.56172442       0.67280113 </v>
   <v>       0.79742034       0.05150101       0.67512942 </v>
   <v>       0.83298518       0.46592658       0.66451511 </v>
   <v>       0.09050090       0.17005050       0.64720831 </v>
   <v>       0.10867412       0.70028930       0.65535264 </v>
   <v>       0.57632779       0.16576171       0.64624345 </v>
   <v>       0.57329525       0.67539207       0.65176855 </v>
   <v>       0.18501816       0.41193325       0.65139207 </v>
   <v>       0.16442968       0.93177915       0.64322289 </v>
   <v>       0.63416009       0.48728563       0.65528732 </v>
   <v>       0.67254757       0.91758883       0.64922946 </v>
   <v>       0.06275851       0.18809296       0.67350190 </v>
   <v>       0.02380649       0.65474991       0.65882617 </v>
   <v>       0.54904688       0.19112027       0.67192632 </v>
   <v>       0.54433404       0.71458011       0.67562836 </v>
   <v>       0.21138392       0.44881590       0.67588586 </v>
   <v>       0.18269053       0.95294272       0.66988545 </v>
   <v>       0.69718033       0.43162526       0.66916302 </v>
   <v>       0.69854100       0.94507690       0.67482449 </v>
   <v>       0.43401168       0.33747706       0.64822542 </v>
   <v>       0.41566571       0.82942778       0.64411913 </v>
   <v>       0.92506201       0.31781677       0.65162588 </v>
   <v>       0.93092451       0.83474594       0.65728625 </v>
   <v>       0.34232194       0.06286886       0.65207384 </v>
   <v>       0.32144347       0.58683448       0.64653447 </v>
   <v>       0.82314299       0.08129488       0.64958848 </v>
   <v>       0.85106532       0.54053475       0.64775041 </v>
   <v>       0.00624514       0.25013038       0.63176204 </v>
   <v>       0.05578469       0.81680058       0.65244226 </v>
   <v>       0.50777489       0.25627060       0.62927961 </v>
   <v>       0.49510420       0.74215988       0.63050386 </v>
   <v>       0.26272728       0.99764755       0.62986719 </v>
   <v>       0.25128296       0.49498823       0.63118966 </v>
   <v>       0.74836479       0.99994701       0.63172987 </v>
   <v>       0.72626437       0.56021050       0.64001754 </v>
   <v>       0.44874502       0.30128397       0.76888902 </v>
   <v>       0.44874501       0.80128391       0.76888902 </v>
   <v>       0.94874497       0.30128397       0.76888902 </v>
   <v>       0.94874501       0.80128391       0.76888902 </v>
   <v>       0.30127600       0.05129450       0.76887296 </v>
   <v>       0.30127601       0.55129450       0.76887296 </v>
   <v>       0.80127594       0.05129450       0.76887296 </v>
   <v>       0.80127598       0.55129450       0.76887296 </v>
   <v>       0.07877100       0.17118050       0.74344197 </v>
   <v>       0.07877101       0.67118045       0.74344197 </v>
   <v>       0.57877100       0.17118050       0.74344197 </v>
   <v>       0.57877099       0.67118045       0.74344197 </v>
   <v>       0.17119950       0.42117448       0.74342103 </v>
   <v>       0.17119950       0.92117451       0.74342103 </v>
   <v>       0.67119951       0.42117448       0.74342103 </v>
   <v>       0.67119950       0.92117451       0.74342103 </v>
   <v>       0.05125600       0.19871499       0.76888902 </v>
   <v>       0.05125600       0.69871493       0.76888902 </v>
   <v>       0.55125603       0.19871499       0.76888902 </v>
   <v>       0.55125602       0.69871493       0.76888902 </v>
   <v>       0.19872349       0.44870397       0.76887205 </v>
   <v>       0.19872349       0.94870397       0.76887205 </v>
   <v>       0.69872352       0.44870397       0.76887205 </v>
   <v>       0.69872351       0.94870397       0.76887205 </v>
   <v>       0.42123152       0.32881747       0.74344197 </v>
   <v>       0.42123151       0.82881744       0.74344197 </v>
   <v>       0.92123147       0.32881747       0.74344197 </v>
   <v>       0.92123151       0.82881744       0.74344197 </v>
   <v>       0.32880050       0.07882500       0.74342103 </v>
   <v>       0.32880049       0.57882496       0.74342103 </v>
   <v>       0.82880048       0.07882500       0.74342103 </v>
   <v>       0.82880052       0.57882496       0.74342103 </v>
   <v>       0.00000350       0.25000148       0.72582199 </v>
   <v>       0.00000350       0.75000145       0.72582199 </v>
   <v>       0.50000351       0.25000148       0.72582199 </v>
   <v>       0.50000350       0.75000145       0.72582199 </v>
   <v>       0.25000050       0.00000000       0.72580398 </v>
   <v>       0.25000052       0.50000000       0.72580398 </v>
   <v>       0.75000050       0.00000000       0.72580398 </v>
   <v>       0.75000049       0.50000000       0.72580398 </v>
   <v>       0.79979147       0.50692247       0.51368099 </v>
   <v>       0.87815267       0.49954605       0.53074989 </v>
   <v>       0.75675122       0.61792483       0.53202530 </v>
   <v>       0.75299466       0.61788307       0.56018834 </v>
   <v>       0.68645468       0.43867251       0.54845974 </v>
   <v>       0.66607727       0.53038941       0.55625506 </v>
   <v>       0.79476078       0.42009865       0.56565702 </v>
   <v>       0.86235008       0.49016923       0.56807584 </v>
   <v>       0.85904503       0.37296825       0.53785324 </v>
   <v>       0.76472557       0.37462644       0.53090593 </v>
   <v>       0.78817918       0.38359147       0.49358679 </v>
   <v>       0.88125786       0.41003282       0.49703371 </v>
   <v>       0.89527923       0.61450322       0.53278442 </v>
   <v>       0.89410407       0.60531331       0.56114861 </v>
   <v>       0.85937521       0.68686738       0.54889476 </v>
   <v>       0.60156363       0.50226856       0.52355876 </v>
   <v>       0.68297928       0.47695692       0.50949338 </v>
   <v>       0.66752229       0.57129606       0.51728053 </v>
   <v>       0.70296117       0.49566225       0.58653620 </v>
   <v>       0.77178884       0.56638028       0.59001755 </v>
   <v>       0.78477110       0.47753447       0.60077519 </v>
   <v>       0.82376358       0.25810094       0.51138817 </v>
   <v>       0.84954892       0.27514462       0.48469430 </v>
   <v>       0.92561002       0.15813154       0.49909925 </v>
   <v>       0.97538904       0.38479892       0.51536950 </v>
   <v>       0.05709045       0.12484224       0.50456076 </v>
   <v>       0.10558307       0.35152101       0.52092347 </v>
   <v>       0.14896409       0.22223028       0.51506444 </v>
   <v>       0.99635125       0.23918180       0.55868724 </v>
   <v>       0.02286407       0.77682084       0.55992181 </v>
   <v>       0.52016402       0.27466516       0.55823531 </v>
   <v>       0.48696856       0.76663579       0.55502434 </v>
   <v>       0.23936352       0.50946526       0.55570581 </v>
   <v>       0.26908032       0.99309243       0.55705087 </v>
   <v>       0.77994300       0.99375138       0.56065059 </v>
   <v>       0.00749047       0.24410722       0.64914107 </v>
   <v>       0.02072043       0.76907499       0.65567613 </v>
   <v>       0.50528933       0.25165579       0.64664618 </v>
   <v>       0.49380713       0.75164710       0.64770316 </v>
   <v>       0.25344643       0.49936162       0.64861209 </v>
   <v>       0.25277552       0.99809726       0.64708371 </v>
   <v>       0.74218872       0.51528272       0.65074191 </v>
   <v>       0.74831201       0.99942737       0.64923398 </v>
   <v>       0.49998898       0.24999498       0.74327702 </v>
   <v>       0.49998903       0.74999496       0.74327702 </v>
   <v>       0.99998898       0.24999498       0.74327702 </v>
   <v>       0.99998903       0.74999496       0.74327702 </v>
   <v>       0.25000050       0.00000100       0.74325596 </v>
   <v>       0.25000052       0.50000100       0.74325596 </v>
   <v>       0.75000050       0.00000100       0.74325596 </v>
   <v>       0.75000049       0.50000100       0.74325596 </v>
   <v>       0.94021224       0.27457527       0.50631013 </v>
   <v>       0.96528426       0.20106114       0.50362945 </v>
   <v>       0.99196712       0.32773361       0.51260283 </v>
   <v>       0.03942956       0.18220887       0.50673069 </v>
   <v>       0.06654276       0.30923818       0.51561582 </v>
   <v>       0.09087707       0.23676137       0.51259496 </v>
   <v>       0.82089319       0.48130602       0.52830458 </v>
   <v>       0.78471909       0.59772343       0.54645677 </v>
   <v>       0.69375121       0.49695785       0.54399498 </v>
   <v>       0.80248213       0.47998175       0.56736452 </v>
   <v>       0.81925023       0.39722478       0.52650521 </v>
   <v>       0.83752497       0.37361956       0.50353248 </v>
   <v>       0.86339581       0.62648001       0.54729483 </v>
   <v>       0.66122271       0.51308602       0.52213397 </v>
   <v>       0.76234847       0.50746501       0.58695608 </v>
   <v>       0.86042103       0.29264811       0.50131743 </v>
   <v>       0.05879595       0.25689593       0.56812602 </v>
   <v>       0.03042343       0.71286450       0.56970513 </v>
   <v>       0.52852245       0.20468538       0.56333802 </v>
   <v>       0.54994342       0.74212493       0.56265526 </v>
   <v>       0.45682824       0.30980889       0.55647269 </v>
   <v>       0.42235216       0.73709775       0.55928820 </v>
   <v>       0.93057111       0.26006071       0.56537694 </v>
   <v>       0.96508454       0.82106600       0.56161477 </v>
   <v>       0.26013594       0.44327483       0.56197202 </v>
   <v>       0.20165312       0.01372747       0.56234630 </v>
   <v>       0.71044618       0.98748382       0.56654776 </v>
   <v>       0.32679817       0.03715061       0.55728480 </v>
   <v>       0.27741283       0.57052490       0.55901892 </v>
   <v>       0.81784314       0.05568045       0.56028137 </v>
   <v>       0.05581383       0.19803327       0.65742904 </v>
   <v>       0.05221872       0.70362633       0.65683041 </v>
   <v>       0.54573737       0.20026654       0.65575909 </v>
   <v>       0.53912458       0.71160163       0.65927371 </v>
   <v>       0.21478613       0.45037444       0.65952498 </v>
   <v>       0.19640008       0.95887772       0.65410330 </v>
   <v>       0.68859734       0.47472125       0.65873686 </v>
   <v>       0.70467804       0.95086984       0.65859053 </v>
   <v>       0.46253037       0.29889176       0.65679769 </v>
   <v>       0.44704583       0.80104891       0.65494704 </v>
   <v>       0.96013368       0.28444329       0.65998149 </v>
   <v>       0.94941468       0.78150515       0.65793103 </v>
   <v>       0.29890244       0.03681146       0.65897757 </v>
   <v>       0.29404188       0.55240082       0.65672193 </v>
   <v>       0.79155643       0.04716455       0.65885779 </v>
   <v>       0.81296890       0.50649142       0.65469845 </v>
   <v>       0.04586250       0.20411950       0.75272599 </v>
   <v>       0.04586250       0.70411946       0.75272599 </v>
   <v>       0.54586251       0.20411950       0.75272599 </v>
   <v>       0.54586250       0.70411946       0.75272599 </v>
   <v>       0.20411900       0.45410100       0.75270499 </v>
   <v>       0.20411899       0.95410095       0.75270499 </v>
   <v>       0.70411898       0.45410100       0.75270499 </v>
   <v>       0.70411896       0.95410095       0.75270499 </v>
   <v>       0.45414002       0.29588849       0.75272697 </v>
   <v>       0.45414001       0.79588852       0.75272697 </v>
   <v>       0.95414002       0.29588849       0.75272697 </v>
[...]
   <v>       0.58103357       0.18491233       0.56497567 </v>
   <v>       0.59889242       0.76908851       0.55947793 </v>
   <v>       0.37947632       0.01712452       0.55435972 </v>
   <v>       0.25634523       0.62087976       0.55490939 </v>
   <v>       0.87269995       0.05392601       0.55595385 </v>
   <v>       0.06202672       0.29035299       0.58138948 </v>
   <v>       0.99254895       0.69356377       0.58073413 </v>
   <v>       0.48652343       0.17356052       0.56943506 </v>
   <v>       0.55321333       0.69927981       0.57342609 </v>
   <v>       0.30539808       0.43473306       0.57159150 </v>
   <v>       0.19060622       0.06493649       0.56835898 </v>
   <v>       0.68149310       0.02996572       0.57347927 </v>
   <v>       0.45779391       0.36585212       0.55356629 </v>
   <v>       0.37418615       0.75964970       0.55358332 </v>
   <v>       0.88344471       0.24441881       0.55750586 </v>
   <v>       0.96927065       0.87362875       0.55548110 </v>
   <v>       0.22873876       0.39776902       0.55893088 </v>
   <v>       0.15851091       0.97778867       0.56153553 </v>
   <v>       0.68682569       0.93616415       0.56637476 </v>
   <v>       0.57050806       0.30581881       0.55472906 </v>
   <v>       0.48875778       0.81557382       0.54476857 </v>
   <v>       0.99900048       0.20416985       0.54447578 </v>
   <v>       0.06906708       0.79470363       0.54975150 </v>
   <v>       0.18637008       0.51381674       0.54734287 </v>
   <v>       0.27741392       0.93547697       0.55219974 </v>
   <v>       0.80708914       0.94291078       0.55530650 </v>
   <v>       0.45526936       0.29989671       0.67305686 </v>
   <v>       0.44087967       0.81511010       0.67075867 </v>
   <v>       0.95557047       0.28428833       0.67622754 </v>
   <v>       0.91221550       0.74075182       0.66154803 </v>
   <v>       0.29519004       0.04072889       0.67525298 </v>
   <v>       0.30091952       0.56172442       0.67280113 </v>
   <v>       0.79742034       0.05150101       0.67512942 </v>
   <v>       0.83298518       0.46592658       0.66451511 </v>
   <v>       0.09050090       0.17005050       0.64720831 </v>
   <v>       0.10867412       0.70028930       0.65535264 </v>
   <v>       0.57632779       0.16576171       0.64624345 </v>
   <v>       0.57329525       0.67539207       0.65176855 </v>
   <v>       0.18501816       0.41193325       0.65139207 </v>
   <v>       0.16442968       0.93177915       0.64322289 </v>
   <v>       0.63416009       0.48728563       0.65528732 </v>
   <v>       0.67254757       0.91758883       0.64922946 </v>
   <v>       0.06275851       0.18809296       0.67350190 </v>
   <v>       0.02380649       0.65474991       0.65882617 </v>
   <v>       0.54904688       0.19112027       0.67192632 </v>
   <v>       0.54433404       0.71458011       0.67562836 </v>
   <v>       0.21138392       0.44881590       0.67588586 </v>
   <v>       0.18269053       0.95294272       0.66988545 </v>
   <v>       0.69718033       0.43162526       0.66916302 </v>
   <v>       0.69854100       0.94507690       0.67482449 </v>
   <v>       0.43401168       0.33747706       0.64822542 </v>
   <v>       0.41566571       0.82942778       0.64411913 </v>
   <v>       0.92506201       0.31781677       0.65162588 </v>
   <v>       0.93092451       0.83474594       0.65728625 </v>
   <v>       0.34232194       0.06286886       0.65207384 </v>
   <v>       0.32144347       0.58683448       0.64653447 </v>
   <v>       0.82314299       0.08129488       0.64958848 </v>
   <v>       0.85106532       0.54053475       0.64775041 </v>
   <v>       0.00624514       0.25013038       0.63176204 </v>
   <v>       0.05578469       0.81680058       0.65244226 </v>
   <v>       0.50777489       0.25627060       0.62927961 </v>
   <v>       0.49510420       0.74215988       0.63050386 </v>
   <v>       0.26272728       0.99764755       0.62986719 </v>
   <v>       0.25128296       0.49498823       0.63118966 </v>
   <v>       0.74836479       0.99994701       0.63172987 </v>
   <v>       0.72626437       0.56021050       0.64001754 </v>
   <v>       0.44874502       0.30128397       0.76888902 </v>
   <v>       0.44874501       0.80128391       0.76888902 </v>
   <v>       0.94874497       0.30128397       0.76888902 </v>
   <v>       0.94874501       0.80128391       0.76888902 </v>
   <v>       0.30127600       0.05129450       0.76887296 </v>
   <v>       0.30127601       0.55129450       0.76887296 </v>
   <v>       0.80127594       0.05129450       0.76887296 </v>
   <v>       0.80127598       0.55129450       0.76887296 </v>
   <v>       0.07877100       0.17118050       0.74344197 </v>
   <v>       0.07877101       0.67118045       0.74344197 </v>
   <v>       0.57877100       0.17118050       0.74344197 </v>
   <v>       0.57877099       0.67118045       0.74344197 </v>
   <v>       0.17119950       0.42117448       0.74342103 </v>
   <v>       0.17119950       0.92117451       0.74342103 </v>
   <v>       0.67119951       0.42117448       0.74342103 </v>
   <v>       0.67119950       0.92117451       0.74342103 </v>
   <v>       0.05125600       0.19871499       0.76888902 </v>
   <v>       0.05125600       0.69871493       0.76888902 </v>
   <v>       0.55125603       0.19871499       0.76888902 </v>
   <v>       0.55125602       0.69871493       0.76888902 </v>
   <v>       0.19872349       0.44870397       0.76887205 </v>
   <v>       0.19872349       0.94870397       0.76887205 </v>
   <v>       0.69872352       0.44870397       0.76887205 </v>
   <v>       0.69872351       0.94870397       0.76887205 </v>
   <v>       0.42123152       0.32881747       0.74344197 </v>
   <v>       0.42123151       0.82881744       0.74344197 </v>
   <v>       0.92123147       0.32881747       0.74344197 </v>
   <v>       0.92123151       0.82881744       0.74344197 </v>
   <v>       0.32880050       0.07882500       0.74342103 </v>
   <v>       0.32880049       0.57882496       0.74342103 </v>
   <v>       0.82880048       0.07882500       0.74342103 </v>
   <v>       0.82880052       0.57882496       0.74342103 </v>
   <v>       0.00000350       0.25000148       0.72582199 </v>
   <v>       0.00000350       0.75000145       0.72582199 </v>
   <v>       0.50000351       0.25000148       0.72582199 </v>
   <v>       0.50000350       0.75000145       0.72582199 </v>
   <v>       0.25000050       0.00000000       0.72580398 </v>
   <v>       0.25000052       0.50000000       0.72580398 </v>
   <v>       0.75000050       0.00000000       0.72580398 </v>
   <v>       0.75000049       0.50000000       0.72580398 </v>
   <v>       0.79979147       0.50692247       0.51368099 </v>
   <v>       0.87815267       0.49954605       0.53074989 </v>
   <v>       0.75675122       0.61792483       0.53202530 </v>
   <v>       0.75299466       0.61788307       0.56018834 </v>
   <v>       0.68645468       0.43867251       0.54845974 </v>
   <v>       0.66607727       0.53038941       0.55625506 </v>
   <v>       0.79476078       0.42009865       0.56565702 </v>
   <v>       0.86235008       0.49016923       0.56807584 </v>
   <v>       0.85904503       0.37296825       0.53785324 </v>
   <v>       0.76472557       0.37462644       0.53090593 </v>
   <v>       0.78817918       0.38359147       0.49358679 </v>
   <v>       0.88125786       0.41003282       0.49703371 </v>
   <v>       0.89527923       0.61450322       0.53278442 </v>
   <v>       0.89410407       0.60531331       0.56114861 </v>
   <v>       0.85937521       0.68686738       0.54889476 </v>
   <v>       0.60156363       0.50226856       0.52355876 </v>
   <v>       0.68297928       0.47695692       0.50949338 </v>
   <v>       0.66752229       0.57129606       0.51728053 </v>
   <v>       0.70296117       0.49566225       0.58653620 </v>
   <v>       0.77178884       0.56638028       0.59001755 </v>
   <v>       0.78477110       0.47753447       0.60077519 </v>
   <v>       0.82376358       0.25810094       0.51138817 </v>
   <v>       0.84954892       0.27514462       0.48469430 </v>
   <v>       0.92561002       0.15813154       0.49909925 </v>
   <v>       0.97538904       0.38479892       0.51536950 </v>
   <v>       0.05709045       0.12484224       0.50456076 </v>
   <v>       0.10558307       0.35152101       0.52092347 </v>
   <v>       0.14896409       0.22223028       0.51506444 </v>
   <v>       0.99635125       0.23918180       0.55868724 </v>
   <v>       0.02286407       0.77682084       0.55992181 </v>
   <v>       0.52016402       0.27466516       0.55823531 </v>
   <v>       0.48696856       0.76663579       0.55502434 </v>
   <v>       0.23936352       0.50946526       0.55570581 </v>
   <v>       0.26908032       0.99309243       0.55705087 </v>
   <v>       0.77994300       0.99375138       0.56065059 </v>
   <v>       0.00749047       0.24410722       0.64914107 </v>
   <v>       0.02072043       0.76907499       0.65567613 </v>
   <v>       0.50528933       0.25165579       0.64664618 </v>
   <v>       0.49380713       0.75164710       0.64770316 </v>
   <v>       0.25344643       0.49936162       0.64861209 </v>
   <v>       0.25277552       0.99809726       0.64708371 </v>
   <v>       0.74218872       0.51528272       0.65074191 </v>
   <v>       0.74831201       0.99942737       0.64923398 </v>
   <v>       0.49998898       0.24999498       0.74327702 </v>
   <v>       0.49998903       0.74999496       0.74327702 </v>
   <v>       0.99998898       0.24999498       0.74327702 </v>
   <v>       0.99998903       0.74999496       0.74327702 </v>
   <v>       0.25000050       0.00000100       0.74325596 </v>
   <v>       0.25000052       0.50000100       0.74325596 </v>
   <v>       0.75000050       0.00000100       0.74325596 </v>
   <v>       0.75000049       0.50000100       0.74325596 </v>
   <v>       0.94021224       0.27457527       0.50631013 </v>
   <v>       0.96528426       0.20106114       0.50362945 </v>
   <v>       0.99196712       0.32773361       0.51260283 </v>
   <v>       0.03942956       0.18220887       0.50673069 </v>
   <v>       0.06654276       0.30923818       0.51561582 </v>
   <v>       0.09087707       0.23676137       0.51259496 </v>
   <v>       0.82089319       0.48130602       0.52830458 </v>
   <v>       0.78471909       0.59772343       0.54645677 </v>
   <v>       0.69375121       0.49695785       0.54399498 </v>
   <v>       0.80248213       0.47998175       0.56736452 </v>
   <v>       0.81925023       0.39722478       0.52650521 </v>
   <v>       0.83752497       0.37361956       0.50353248 </v>
   <v>       0.86339581       0.62648001       0.54729483 </v>
   <v>       0.66122271       0.51308602       0.52213397 </v>
   <v>       0.76234847       0.50746501       0.58695608 </v>
   <v>       0.86042103       0.29264811       0.50131743 </v>
   <v>       0.05879595       0.25689593       0.56812602 </v>
   <v>       0.03042343       0.71286450       0.56970513 </v>
   <v>       0.52852245       0.20468538       0.56333802 </v>
   <v>       0.54994342       0.74212493       0.56265526 </v>
   <v>       0.45682824       0.30980889       0.55647269 </v>
   <v>       0.42235216       0.73709775       0.55928820 </v>
   <v>       0.93057111       0.26006071       0.56537694 </v>
   <v>       0.96508454       0.82106600       0.56161477 </v>
   <v>       0.26013594       0.44327483       0.56197202 </v>
   <v>       0.20165312       0.01372747       0.56234630 </v>
   <v>       0.71044618       0.98748382       0.56654776 </v>
   <v>       0.32679817       0.03715061       0.55728480 </v>
   <v>       0.27741283       0.57052490       0.55901892 </v>
   <v>       0.81784314       0.05568045       0.56028137 </v>
   <v>       0.05581383       0.19803327       0.65742904 </v>
   <v>       0.05221872       0.70362633       0.65683041 </v>
   <v>       0.54573737       0.20026654       0.65575909 </v>
   <v>       0.53912458       0.71160163       0.65927371 </v>
   <v>       0.21478613       0.45037444       0.65952498 </v>
   <v>       0.19640008       0.95887772       0.65410330 </v>
   <v>       0.68859734       0.47472125       0.65873686 </v>
   <v>       0.70467804       0.95086984       0.65859053 </v>
   <v>       0.46253037       0.29889176       0.65679769 </v>
   <v>       0.44704583       0.80104891       0.65494704 </v>
   <v>       0.96013368       0.28444329       0.65998149 </v>
   <v>       0.94941468       0.78150515       0.65793103 </v>
   <v>       0.29890244       0.03681146       0.65897757 </v>
   <v>       0.29404188       0.55240082       0.65672193 </v>
   <v>       0.79155643       0.04716455       0.65885779 </v>
   <v>       0.81296890       0.50649142       0.65469845 </v>
   <v>       0.04586250       0.20411950       0.75272599 </v>
   <v>       0.04586250       0.70411946       0.75272599 </v>
   <v>       0.54586251       0.20411950       0.75272599 </v>
   <v>       0.54586250       0.70411946       0.75272599 </v>
   <v>       0.20411900       0.45410100       0.75270499 </v>
   <v>       0.20411899       0.95410095       0.75270499 </v>
   <v>       0.70411898       0.45410100       0.75270499 </v>
   <v>       0.70411896       0.95410095       0.75270499 </v>
   <v>       0.45414002       0.29588849       0.75272697 </v>
   <v>       0.45414001       0.79588852       0.75272697 </v>
   <v>       0.95414002       0.29588849       0.75272697 </v>
   <v>       0.95414006       0.79588852       0.75272697 </v>
   <v>       0.29588249       0.04590050       0.75270499 </v>
   <v>       0.29588248       0.54590053       0.75270499 </v>
   <v>       0.79588244       0.04590050       0.75270499 </v>
   <v>       0.79588248       0.54590053       0.75270499 </v>
   <v>       0.77598876       0.51376325       0.54647173 </v>
   <v>       0.51470009       0.98411655       0.55331428 </v>
   <v>       0.47523682       0.51088942       0.55312711 </v>
   <v>       0.00555512       0.01252684       0.55158194 </v>
   <v>       0.02995491       0.48531416       0.55407457 </v>
   <v>       0.25944491       0.23815579       0.55353100 </v>
   <v>       0.22965351       0.76445862       0.55060256 </v>
   <v>       0.73375341       0.23219749       0.55438853 </v>
   <v>       0.73558560       0.79452042       0.55396120 </v>
   <v>       0.99526856       0.98654258       0.65432112 </v>
   <v>       0.01059477       0.50448416       0.65495546 </v>
   <v>       0.49682960       0.00320739       0.65486328 </v>
   <v>       0.49537858       0.50546414       0.65394684 </v>
   <v>       0.26248658       0.24281616       0.65502493 </v>
   <v>       0.24576753       0.75490177       0.65359789 </v>
   <v>       0.74601088       0.27144875       0.65517346 </v>
   <v>       0.75050483       0.73349124       0.65423425 </v>
   <v>       0.13477920       0.11641167       0.60817523 </v>
   <v>       0.14660067       0.60864458       0.60625438 </v>
   <v>       0.63618435       0.11415106       0.60789930 </v>
   <v>       0.61946968       0.63119004       0.60651633 </v>
   <v>       0.36779156       0.38397063       0.60771066 </v>
   <v>       0.36455132       0.88468602       0.60483112 </v>
   <v>       0.88773070       0.36766528       0.61090905 </v>
   <v>       0.86190762       0.89086166       0.60705318 </v>
   <v>       0.12670866       0.36776604       0.61190620 </v>
   <v>       0.11542460       0.87332384       0.60581911 </v>
   <v>       0.61136494       0.36465837       0.60256168 </v>
   <v>       0.61709915       0.86453593       0.61264109 </v>
   <v>       0.39477731       0.13703794       0.60401516 </v>
   <v>       0.37960226       0.63457765       0.60690740 </v>
   <v>       0.88179383       0.13633333       0.61216858 </v>
   <v>       0.90176592       0.64623485       0.60951547 </v>
   <v>       0.00000000       0.00000000       0.75492797 </v>
   <v>       0.00000000       0.50000000       0.75492797 </v>
   <v>       0.50000000       0.00000000       0.75492797 </v>
   <v>       0.49999999       0.50000000       0.75492797 </v>
   <v>       0.25000050       0.25000000       0.75493902 </v>
   <v>       0.25000051       0.74999997       0.75493902 </v>
   <v>       0.75000047       0.25000000       0.75493902 </v>
   <v>       0.75000046       0.74999997       0.75493902 </v>
   <v>       0.13579050       0.11421000       0.70478299 </v>
   <v>       0.13579050       0.61420998       0.70478299 </v>
   <v>       0.63579045       0.11421000       0.70478299 </v>
   <v>       0.63579049       0.61420998       0.70478299 </v>
   <v>       0.36420952       0.38578999       0.70478299 </v>
   <v>       0.36420950       0.88578996       0.70478299 </v>
   <v>       0.86420954       0.38578999       0.70478299 </v>
   <v>       0.86420953       0.88578996       0.70478299 </v>
   <v>       0.11421799       0.36421899       0.70478098 </v>
   <v>       0.11421799       0.86421899       0.70478098 </v>
   <v>       0.61421800       0.36421899       0.70478098 </v>
   <v>       0.61421799       0.86421899       0.70478098 </v>
   <v>       0.38578201       0.13578149       0.70478202 </v>
   <v>       0.38578200       0.63578149       0.70478202 </v>
   <v>       0.88578199       0.13578149       0.70478202 </v>
   <v>       0.88578203       0.63578149       0.70478202 </v>
   <v>       0.13466700       0.11533200       0.80125603 </v>
   <v>       0.13466699       0.61533199       0.80125603 </v>
   <v>       0.63466699       0.11533200       0.80125603 </v>
   <v>       0.63466698       0.61533199       0.80125603 </v>
   <v>       0.36533300       0.38466799       0.80125603 </v>
   <v>       0.36533299       0.88466796       0.80125603 </v>
   <v>       0.86533295       0.38466799       0.80125603 </v>
   <v>       0.86533294       0.88466796       0.80125603 </v>
   <v>       0.11532850       0.36533700       0.80126500 </v>
   <v>       0.11532850       0.86533698       0.80126500 </v>
   <v>       0.61532850       0.36533700       0.80126500 </v>
   <v>       0.61532849       0.86533698       0.80126500 </v>
   <v>       0.38467151       0.13466300       0.80126500 </v>
   <v>       0.38467150       0.63466297       0.80126500 </v>
   <v>       0.88467149       0.13466300       0.80126500 </v>
   <v>       0.88467153       0.63466297       0.80126500 </v>
   <v>       0.99620811       0.00667656       0.60390491 </v>
   <v>       0.01074078       0.50119597       0.60357458 </v>
   <v>       0.50193761       0.99333543       0.60361225 </v>
   <v>       0.50024073       0.50041309       0.60287852 </v>
   <v>       0.25615803       0.24692596       0.60539703 </v>
   <v>       0.24263635       0.75498133       0.60291856 </v>
   <v>       0.74711951       0.25214628       0.60573450 </v>
   <v>       0.75219296       0.75714002       0.60390424 </v>
   <v>       0.00000050       0.00000050       0.70482896 </v>
   <v>       0.00000050       0.50000048       0.70482896 </v>
   <v>       0.50000048       0.00000050       0.70482896 </v>
   <v>       0.50000046       0.50000048       0.70482896 </v>
   <v>       0.24999999       0.24999947       0.70482499 </v>
   <v>       0.25000001       0.74999950       0.70482499 </v>
   <v>       0.74999999       0.24999947       0.70482499 </v>
   <v>       0.74999998       0.74999950       0.70482499 </v>
   <v>       0.00000000       0.00000000       0.80731797 </v>
   <v>       0.00000000       0.50000000       0.80731797 </v>
   <v>       0.50000000       0.00000000       0.80731797 </v>
   <v>       0.49999999       0.50000000       0.80731797 </v>
   <v>       0.24999999       0.25000000       0.80731797 </v>
   <v>       0.25000001       0.74999997       0.80731797 </v>
   <v>       0.74999999       0.25000000       0.80731797 </v>
   <v>       0.74999998       0.74999997       0.80731797 </v>
  </varray>
 </structure>
</modeling>
