 vasp.6.2.1 16May21 (build Nov 15 2021 14:57:28) complex                         
 executed on             LinuxPGI date 2023.07.30  19:36:48
 running on    4 total cores
 distrk:  each k-point on    4 cores,    1 groups
 distr:  one band on NCORE=   1 cores,    4 groups


--------------------------------------------------------------------------------------------------------


 INCAR:
   SYSTEM = PSC
   ISTART = 1
   ICHARG = 1
   PREC = Normal
   ENCUT = 500
   GGA_COMPAT = F
   NELM = 600
   ISYM = 0
   LREAL = Auto
   ISMEAR = 0
   SIGMA = 0.05
   AMIN = 0.01
   BMIX = 0.01
   LVTOT = T
   LWAVE = F
   LDIPOL = T
   IDIPOL = 3
   LVDW = T
   IVDW = 12

 POTCAR:    PAW_PBE H 15Jun2001                   
 POTCAR:    PAW_PBE C 08Apr2002                   
 POTCAR:    PAW_PBE N 08Apr2002                   
 POTCAR:    PAW_PBE I 08Apr2002                   
 POTCAR:    PAW_PBE Pb 08Apr2002                  
 WARNING: For LVTOT=.TRUE., VASP.5.x writes the TOTAL local potential to the
     file LOCPOT. If you want only the Hartree contributions, use LVHAR=.TRUE.
     instead. 

 POTCAR:    PAW_PBE H 15Jun2001                   
   SHA256 =  030f79b5d3ab3cf0e668861823c8fb652ff669f3e15e46930bd03bfd63a607b6 H/POTCAR              
   COPYR  = (c) Copyright 15Jun2001 Georg Kresse                                                    
   COPYR  = This file is part of the software VASP. Any use, copying, and all other rights are regul
   COPYR  = If you do not have a valid VASP license, you may not use, copy or distribute this file. 
   VRHFIN =H: ultrasoft test                                                                        
   LEXCH  = PE                                                                                      
   EATOM  =    12.4884 eV,    0.9179 Ry                                                             
                                                                                                    
   TITEL  = PAW_PBE H 15Jun2001                                                                     
   LULTRA =        F    use ultrasoft PP ?                                                          
   IUNSCR =        0    unscreen: 0-lin 1-nonlin 2-no                                               
   RPACOR =    0.000    partial core radius                                                         
   POMASS =    1.000; ZVAL   =    1.000    mass and valenz                                          
   RCORE  =    1.100    outmost cutoff radius                                                       
   RWIGS  =    0.700; RWIGS  =    0.370    wigner-seitz radius (au A)                               
   ENMAX  =  250.000; ENMIN  =  200.000 eV                                                          
   RCLOC  =    0.701    cutoff for local pot                                                        
   LCOR   =        T    correct aug charges                                                         
   LPAW   =        T    paw PP                                                                      
   EAUG   =  400.000                                                                                
   RMAX   =    1.123    core radius for proj-oper                                                   
   RAUG   =    1.200    factor for augmentation sphere                                              
   RDEP   =    1.112    radius for radial grids                                                     
   RDEPT  =    0.926    core radius for aug-charge                                                  
                                                                                                    
   Atomic configuration                                                                             
    2 entries                                                                                       
     n  l   j            E        occ.                                                              
     1  0  0.50        -6.4927   1.0000                                                             
     2  1  0.50        -3.4015   0.0000                                                             
   Description                                                                                      
     l       E           TYP  RCUT    TYP  RCUT                                                     
     0     -6.4927494     23  1.100                                                                 
     0      6.8029130     23  1.100                                                                 
     1     -4.0817478     23  1.100                                                                 
  local pseudopotential read in
  atomic valenz-charges read in
  non local Contribution for L=            0  read in
    real space projection operators read in
  non local Contribution for L=            0  read in
    real space projection operators read in
  non local Contribution for L=            1  read in
    real space projection operators read in
    PAW grid and wavefunctions read in
 
   number of l-projection  operators is LMAX  =            3
   number of lm-projection operators is LMMAX =            5
 
 POTCAR:    PAW_PBE C 08Apr2002                   
   SHA256 =  253f7b50bb8d59471dbedb8285d89021f4a42ed1a2c5d38a03a736e69125dd95 C/POTCAR              
   COPYR  = (c) Copyright 08Apr2002 Georg Kresse                                                    
   COPYR  = This file is part of the software VASP. Any use, copying, and all other rights are regul
   COPYR  = If you do not have a valid VASP license, you may not use, copy or distribute this file. 
   VRHFIN =C: s2p2                                                                                  
   LEXCH  = PE                                                                                      
   EATOM  =   147.1560 eV,   10.8157 Ry                                                             
                                                                                                    
   TITEL  = PAW_PBE C 08Apr2002                                                                     
   LULTRA =        F    use ultrasoft PP ?                                                          
   IUNSCR =        1    unscreen: 0-lin 1-nonlin 2-no                                               
   RPACOR =    1.200    partial core radius                                                         
   POMASS =   12.011; ZVAL   =    4.000    mass and valenz                                          
   RCORE  =    1.500    outmost cutoff radius                                                       
   RWIGS  =    1.630; RWIGS  =    0.863    wigner-seitz radius (au A)                               
   ENMAX  =  400.000; ENMIN  =  300.000 eV                                                          
   ICORE  =        2    local potential                                                             
   LCOR   =        T    correct aug charges                                                         
   LPAW   =        T    paw PP                                                                      
   EAUG   =  644.873                                                                                
   DEXC   =    0.000                                                                                
   RMAX   =    1.529    core radius for proj-oper                                                   
   RAUG   =    1.300    factor for augmentation sphere                                              
   RDEP   =    1.501    radius for radial grids                                                     
   RDEPT  =    1.300    core radius for aug-charge                                                  
                                                                                                    
   Atomic configuration                                                                             
    4 entries                                                                                       
     n  l   j            E        occ.                                                              
     1  0  0.50      -273.3789   2.0000                                                             
     2  0  0.50       -13.7508   2.0000                                                             
     2  1  0.50        -5.2854   2.0000                                                             
     3  2  1.50        -5.4423   0.0000                                                             
   Description                                                                                      
     l       E           TYP  RCUT    TYP  RCUT                                                     
     0    -13.7508458     23  1.200                                                                 
     0     -8.2022199     23  1.200                                                                 
     1     -5.2854383     23  1.500                                                                 
     1     34.0145650     23  1.500                                                                 
     2     -5.4423304      7  1.500                                                                 
  local pseudopotential read in
  partial core-charges read in
  partial kinetic energy density read in
  atomic valenz-charges read in
  non local Contribution for L=            0  read in
    real space projection operators read in
  non local Contribution for L=            0  read in
    real space projection operators read in
  non local Contribution for L=            1  read in
    real space projection operators read in
  non local Contribution for L=            1  read in
    real space projection operators read in
    PAW grid and wavefunctions read in
 
   number of l-projection  operators is LMAX  =            4
   number of lm-projection operators is LMMAX =            8
 
 POTCAR:    PAW_PBE N 08Apr2002                   
   SHA256 =  e053789ff3a61a86a1b75d8a110fcc91f86041011e7b0817c7c99e4e8a6349d7 N/POTCAR              
   COPYR  = (c) Copyright 08Apr2002 Georg Kresse                                                    
   COPYR  = This file is part of the software VASP. Any use, copying, and all other rights are regul
   COPYR  = If you do not have a valid VASP license, you may not use, copy or distribute this file. 
   VRHFIN =N: s2p3                                                                                  
   LEXCH  = PE                                                                                      
   EATOM  =   264.5486 eV,   19.4438 Ry                                                             
                                                                                                    
   TITEL  = PAW_PBE N 08Apr2002                                                                     
   LULTRA =        F    use ultrasoft PP ?                                                          
   IUNSCR =        1    unscreen: 0-lin 1-nonlin 2-no                                               
   RPACOR =    1.200    partial core radius                                                         
   POMASS =   14.001; ZVAL   =    5.000    mass and valenz                                          
   RCORE  =    1.500    outmost cutoff radius                                                       
   RWIGS  =    1.400; RWIGS  =    0.741    wigner-seitz radius (au A)                               
   ENMAX  =  400.000; ENMIN  =  300.000 eV                                                          
   ICORE  =        2    local potential                                                             
   LCOR   =        T    correct aug charges                                                         
   LPAW   =        T    paw PP                                                                      
   EAUG   =  627.112                                                                                
   DEXC   =    0.000                                                                                
   RMAX   =    1.529    core radius for proj-oper                                                   
   RAUG   =    1.300    factor for augmentation sphere                                              
   RDEP   =    1.514    radius for radial grids                                                     
   RDEPT  =    1.338    core radius for aug-charge                                                  
                                                                                                    
   Atomic configuration                                                                             
    4 entries                                                                                       
     n  l   j            E        occ.                                                              
     1  0  0.50      -384.7179   2.0000                                                             
     2  0  0.50       -18.5828   2.0000                                                             
     2  1  0.50        -7.0898   3.0000                                                             
     3  2  1.50        -6.8029   0.0000                                                             
   Description                                                                                      
     l       E           TYP  RCUT    TYP  RCUT                                                     
     0    -18.5828119     23  1.200                                                                 
     0    -13.5018863     23  1.200                                                                 
     1     -7.0897853     23  1.500                                                                 
     1      9.5240782     23  1.500                                                                 
     2     -6.8029130      7  1.500                                                                 
  local pseudopotential read in
  partial core-charges read in
  partial kinetic energy density read in
  atomic valenz-charges read in
  non local Contribution for L=            0  read in
    real space projection operators read in
  non local Contribution for L=            0  read in
    real space projection operators read in
  non local Contribution for L=            1  read in
    real space projection operators read in
  non local Contribution for L=            1  read in
    real space projection operators read in
    PAW grid and wavefunctions read in
 
   number of l-projection  operators is LMAX  =            4
   number of lm-projection operators is LMMAX =            8
 
 POTCAR:    PAW_PBE I 08Apr2002                   
   SHA256 =  e40f3f59b681c1fc3e3091736183c4589116986673d2b852a5012aec72758799 I/POTCAR              
   COPYR  = (c) Copyright 08Apr2002 Georg Kresse                                                    
   COPYR  = This file is part of the software VASP. Any use, copying, and all other rights are regul
   COPYR  = If you do not have a valid VASP license, you may not use, copy or distribute this file. 
   VRHFIN =I : s2p5                                                                                 
   LEXCH  = PE                                                                                      
   EATOM  =   315.8678 eV,   23.2156 Ry                                                             
                                                                                                    
   TITEL  = PAW_PBE I 08Apr2002                                                                     
   LULTRA =        F    use ultrasoft PP ?                                                          
   IUNSCR =        1    unscreen: 0-lin 1-nonlin 2-no                                               
   RPACOR =    2.200    partial core radius                                                         
   POMASS =  126.904; ZVAL   =    7.000    mass and valenz                                          
   RCORE  =    2.300    outmost cutoff radius                                                       
   RWIGS  =    2.810; RWIGS  =    1.487    wigner-seitz radius (au A)                               
   ENMAX  =  175.647; ENMIN  =  131.735 eV                                                          
   ICORE  =        3    local potential                                                             
   LCOR   =        T    correct aug charges                                                         
   LPAW   =        T    paw PP                                                                      
   EAUG   =  370.139                                                                                
   DEXC   =    0.000                                                                                
   RMAX   =    2.359    core radius for proj-oper                                                   
   RAUG   =    1.300    factor for augmentation sphere                                              
   RDEP   =    2.392    radius for radial grids                                                     
   RDEPT  =    2.170    core radius for aug-charge                                                  
                                                                                                    
   Atomic configuration                                                                             
   13 entries                                                                                       
     n  l   j            E        occ.                                                              
     1  0  0.50    -32976.3739   2.0000                                                             
     2  0  0.50     -5094.5933   2.0000                                                             
     2  1  1.50     -4572.0131   6.0000                                                             
     3  0  0.50     -1028.2813   2.0000                                                             
     3  1  1.50      -859.0250   6.0000                                                             
     3  2  2.50      -605.7620  10.0000                                                             
     4  0  0.50      -180.5540   2.0000                                                             
     4  1  1.50      -127.5306   6.0000                                                             
     4  2  2.50       -50.2720  10.0000                                                             
     5  0  0.50       -17.4058   2.0000                                                             
     5  1  0.50        -7.0851   5.0000                                                             
     5  2  1.50        -7.0750   0.0000                                                             
     4  3  2.50        -7.0750   0.0000                                                             
   Description                                                                                      
     l       E           TYP  RCUT    TYP  RCUT                                                     
     0    -17.4058016     23  2.300                                                                 
     0    -18.7663842     23  2.300                                                                 
     1     -7.0850686     23  2.300                                                                 
     1     -4.2150896     23  2.300                                                                 
     2     -7.0750295     23  2.300                                                                 
     3     -1.3605826     23  2.300                                                                 
  local pseudopotential read in
  partial core-charges read in
  partial kinetic energy density read in
  atomic valenz-charges read in
  non local Contribution for L=            0  read in
    real space projection operators read in
  non local Contribution for L=            0  read in
    real space projection operators read in
  non local Contribution for L=            1  read in
    real space projection operators read in
  non local Contribution for L=            1  read in
    real space projection operators read in
  non local Contribution for L=            2  read in
    real space projection operators read in
    PAW grid and wavefunctions read in
 
   number of l-projection  operators is LMAX  =            5
   number of lm-projection operators is LMMAX =           13
 
 POTCAR:    PAW_PBE Pb 08Apr2002                  
   SHA256 =  797118a27cf1bcd06b9881c67a26cdde129e3cd1a551dd4a281f9681ce847303 Pb/POTCAR             
   COPYR  = (c) Copyright 08Apr2002 Georg Kresse                                                    
   COPYR  = This file is part of the software VASP. Any use, copying, and all other rights are regul
   COPYR  = If you do not have a valid VASP license, you may not use, copy or distribute this file. 
   VRHFIN =Pb:                                                                                      
   LEXCH  = PE                                                                                      
   EATOM  =    96.9868 eV,    7.1283 Ry                                                             
                                                                                                    
   TITEL  = PAW_PBE Pb 08Apr2002                                                                    
   LULTRA =        F    use ultrasoft PP ?                                                          
   IUNSCR =        1    unscreen: 0-lin 1-nonlin 2-no                                               
   RPACOR =    2.200    partial core radius                                                         
   POMASS =  207.200; ZVAL   =    4.000    mass and valenz                                          
   RCORE  =    3.100    outmost cutoff radius                                                       
   RWIGS  =    3.260; RWIGS  =    1.725    wigner-seitz radius (au A)                               
   ENMAX  =   97.973; ENMIN  =   73.480 eV                                                          
   ICORE  =        3    local potential                                                             
   LCOR   =        T    correct aug charges                                                         
   LPAW   =        T    paw PP                                                                      
   EAUG   =  234.873                                                                                
   DEXC   =    0.000                                                                                
   RMAX   =    3.158    core radius for proj-oper                                                   
   RAUG   =    1.300    factor for augmentation sphere                                              
   RDEP   =    3.202    radius for radial grids                                                     
   RDEPT  =    2.659    core radius for aug-charge                                                  
                                                                                                    
   Atomic configuration                                                                             
   17 entries                                                                                       
     n  l   j            E        occ.                                                              
     1  0  0.50    -88091.8466   2.0000                                                             
     2  0  0.50    -15753.4197   2.0000                                                             
     2  1  1.50    -13508.1797   6.0000                                                             
     3  0  0.50     -3781.7194   2.0000                                                             
     3  1  1.50     -3138.2529   6.0000                                                             
     3  2  2.50     -2483.2977  10.0000                                                             
     4  0  0.50      -856.2895   2.0000                                                             
     4  1  1.50      -645.4943   6.0000                                                             
     4  2  2.50      -401.8768  10.0000                                                             
     4  3  3.50      -132.9059  14.0000                                                             
     5  0  0.50      -144.0950   2.0000                                                             
     5  1  1.50       -85.7879   6.0000                                                             
     5  2  2.50       -21.1769  10.0000                                                             
     6  0  0.50       -12.0372   2.0000                                                             
     6  1  1.50        -3.4971   2.0000                                                             
     6  2  2.50        -1.3606   0.0000                                                             
     5  3  2.50        -2.7212   0.0000                                                             
   Description                                                                                      
     l       E           TYP  RCUT    TYP  RCUT                                                     
     0    -12.0371566     23  3.100                                                                 
     0    -13.3977392     23  3.100                                                                 
     1     -3.4971341     23  3.100                                                                 
     1     -5.4423304     23  3.100                                                                 
     2     -1.3605826     23  3.100                                                                 
     3     -1.3605826     23  3.100                                                                 
  local pseudopotential read in
  partial core-charges read in
  partial kinetic energy density read in
  atomic valenz-charges read in
  non local Contribution for L=            0  read in
    real space projection operators read in
  non local Contribution for L=            0  read in
    real space projection operators read in
  non local Contribution for L=            1  read in
    real space projection operators read in
  non local Contribution for L=            1  read in
    real space projection operators read in
  non local Contribution for L=            2  read in
    real space projection operators read in
    PAW grid and wavefunctions read in
 
   number of l-projection  operators is LMAX  =            5
   number of lm-projection operators is LMMAX =           13
 
 Optimization of the real space projectors (new method)

 maximal supplied QI-value         = 34.20
 optimisation between [QCUT,QGAM] = [ 11.29, 22.57] = [ 35.68,142.71] Ry 
 Optimized for a Real-space Cutoff    1.16 Angstroem

   l    n(q)    QCUT    max X(q) W(low)/X(q) W(high)/X(q)  e(spline) 
   0      8    11.287    19.460    0.40E-03    0.73E-03    0.16E-06
   0      8    11.287    12.209    0.38E-03    0.70E-03    0.15E-06
   1      7    11.287     4.655    0.22E-03    0.25E-04    0.22E-06
 Optimization of the real space projectors (new method)

 maximal supplied QI-value         = 25.13
 optimisation between [QCUT,QGAM] = [ 11.31, 22.87] = [ 35.82,146.48] Ry 
 Optimized for a Real-space Cutoff    1.00 Angstroem

   l    n(q)    QCUT    max X(q) W(low)/X(q) W(high)/X(q)  e(spline) 
   0      7    11.310   115.676    0.43E-03    0.13E-02    0.19E-06
   0      7    11.310    87.132    0.43E-03    0.13E-02    0.18E-06
   1      6    11.310     4.429    0.42E-03    0.74E-03    0.11E-06
   1      6    11.310     2.733    0.34E-03    0.55E-03    0.92E-07
 Optimization of the real space projectors (new method)

 maximal supplied QI-value         = 25.13
 optimisation between [QCUT,QGAM] = [ 11.31, 22.87] = [ 35.82,146.48] Ry 
 Optimized for a Real-space Cutoff    1.27 Angstroem

   l    n(q)    QCUT    max X(q) W(low)/X(q) W(high)/X(q)  e(spline) 
   0      9    11.310    79.467    0.75E-04    0.16E-03    0.36E-06
   0      9    11.310    66.151    0.74E-04    0.16E-03    0.36E-06
   1      8    11.310    17.416    0.35E-03    0.12E-03    0.95E-06
   1      8    11.310    12.382    0.37E-03    0.13E-03    0.98E-06
 Optimization of the real space projectors (new method)

 maximal supplied QI-value         = 16.25
 optimisation between [QCUT,QGAM] = [ 11.38, 22.75] = [ 36.24,144.96] Ry 
 Optimized for a Real-space Cutoff    1.31 Angstroem

   l    n(q)    QCUT    max X(q) W(low)/X(q) W(high)/X(q)  e(spline) 
   0      9    11.376   194.483    0.24E-03    0.23E-03    0.67E-07
   0      9    11.376   190.334    0.23E-03    0.22E-03    0.65E-07
   1      8    11.376   116.687    0.25E-03    0.63E-04    0.16E-06
   1      8    11.376    88.696    0.25E-03    0.61E-04    0.16E-06
   2      8    11.376     4.877    0.17E-03    0.14E-03    0.29E-07
 Optimization of the real space projectors (new method)

 maximal supplied QI-value         = 12.09
 optimisation between [QCUT,QGAM] = [ 11.37, 22.86] = [ 36.19,146.31] Ry 
 Optimized for a Real-space Cutoff    1.66 Angstroem

   l    n(q)    QCUT    max X(q) W(low)/X(q) W(high)/X(q)  e(spline) 
   0     11    11.369   135.111    0.12E-03    0.69E-04    0.19E-05
   0     11    11.369   146.850    0.11E-03    0.65E-04    0.18E-05
   1     11    11.369   148.016    0.17E-03    0.32E-03    0.89E-06
   1     11    11.369   122.989    0.17E-03    0.32E-03    0.91E-06
   2     10    11.369     8.916    0.12E-03    0.45E-04    0.33E-06
  PAW_PBE H 15Jun2001                   :
 energy of atom  1       EATOM=  -12.4884
 kinetic energy error for atom=    0.0020 (will be added to EATOM!!)
  PAW_PBE C 08Apr2002                   :
 energy of atom  2       EATOM= -147.1560
 kinetic energy error for atom=    0.0076 (will be added to EATOM!!)
  PAW_PBE N 08Apr2002                   :
 energy of atom  3       EATOM= -264.5486
 kinetic energy error for atom=    0.0138 (will be added to EATOM!!)
  PAW_PBE I 08Apr2002                   :
 energy of atom  4       EATOM= -315.8678
 kinetic energy error for atom=    0.0009 (will be added to EATOM!!)
  PAW_PBE Pb 08Apr2002                  :
 energy of atom  5       EATOM=  -96.9868
 kinetic energy error for atom=    0.0000 (will be added to EATOM!!)
 
 
 POSCAR:  H  C  N  I Pb
  positions in cartesian coordinates
  No initial velocities read in
 exchange correlation table for  LEXCH =        8
   RHO(1)=    0.500       N(1)  =     2000
   RHO(2)=  100.500       N(2)  =     4000
 


--------------------------------------------------------------------------------------------------------


 ion  position               nearest neighbor table
   1  0.464  0.327  0.574- 187 1.03
   2  0.451  0.841  0.574- 188 1.03
   3  0.920  0.242  0.581- 189 1.03
   4  0.942  0.809  0.579- 190 1.04
   5  0.308  0.066  0.574- 194 1.04
   6  0.325  0.572  0.575- 195 1.04
   7  0.794  0.081  0.577- 196 1.04
   8  0.105  0.245  0.559- 183 1.02
   9  0.094  0.678  0.569- 184 1.02
  10  0.564  0.165  0.557- 185 1.02
  11  0.494  0.649  0.565- 186 1.03
  12  0.364  0.006  0.559- 194 1.01
  13  0.274  0.628  0.558- 195 1.02
  14  0.867  0.026  0.567- 196 1.02
  15  0.058  0.236  0.583- 183 1.02
  16  0.019  0.693  0.586- 184 1.02
  17  0.572  0.246  0.572- 185 1.02
  18  0.461  0.707  0.585- 186 1.03
  19  0.284  0.439  0.578- 191 1.05
  20  0.172  0.047  0.571- 192 1.05
  21  0.670  0.025  0.575- 193 1.04
  22  0.383  0.295  0.561- 187 1.03
  23  0.493  0.869  0.550- 188 1.03
  24  0.879  0.239  0.556- 189 1.03
  25  0.979  0.868  0.560- 190 1.03
  26  0.204  0.415  0.563- 191 1.01
  27  0.141  0.977  0.554- 192 1.01
  28  0.665  0.936  0.563- 193 1.01
  29  0.441  0.188  0.548- 146 1.09
  30  0.524  0.745  0.542- 147 1.09
  31  0.995  0.247  0.539- 144 1.08
  32  0.073  0.788  0.550- 145 1.09
  33  0.191  0.533  0.548- 148 1.10
  34  0.262  0.941  0.545- 149 1.09
  35  0.788  0.931  0.556- 150 1.09
  36  0.465  0.311  0.674- 205 1.01
  37  0.438  0.810  0.674- 206 1.02
  38  0.954  0.278  0.678- 207 1.02
  39  0.923  0.769  0.674- 208 1.04
  40  0.307  0.055  0.673- 209 1.02
  41  0.293  0.542  0.678- 210 1.02
  42  0.791  0.055  0.674- 211 1.02
  43  0.849  0.489  0.666- 212 1.02
  44  0.090  0.174  0.646- 197 1.03
  45  0.098  0.693  0.653- 198 1.03
  46  0.578  0.168  0.649- 199 1.03
  47  0.574  0.675  0.654- 200 1.02
  48  0.179  0.411  0.647- 201 1.03
  49  0.174  0.924  0.649- 202 1.03
  50  0.648  0.481  0.659- 203 1.03
  51  0.674  0.912  0.650- 204 1.03
  52  0.061  0.184  0.673- 197 1.03
  53  0.036  0.681  0.674- 198 1.03
  54  0.570  0.214  0.673- 199 1.02
  55  0.535  0.705  0.678- 200 1.03
  56  0.201  0.433  0.673- 201 1.03
  57  0.203  0.957  0.674- 202 1.02
  58  0.722  0.435  0.673- 203 1.03
  59  0.698  0.947  0.675- 204 1.02
  60  0.414  0.319  0.650- 205 1.02
  61  0.422  0.835  0.647- 206 1.02
  62  0.925  0.320  0.654- 207 1.02
  63  0.922  0.831  0.653- 208 1.02
  64  0.336  0.077  0.647- 209 1.03
  65  0.321  0.582  0.653- 210 1.03
  66  0.823  0.079  0.649- 211 1.03
  67  0.855  0.557  0.647- 212 1.01
  68  0.006  0.260  0.633- 151 1.11
  69  0.029  0.789  0.638- 152 1.10
  70  0.481  0.229  0.632- 153 1.10
  71  0.506  0.753  0.633- 154 1.09
  72  0.255  0.996  0.630- 156 1.10
  73  0.252  0.504  0.632- 155 1.09
  74  0.752  0.992  0.631- 158 1.10
  75  0.726  0.559  0.641- 157 1.10
  76  0.449  0.301  0.769- 221 1.02
  77  0.449  0.801  0.769- 222 1.02
  78  0.949  0.301  0.769- 223 1.02
  79  0.949  0.801  0.769- 224 1.02
  80  0.301  0.051  0.769- 225 1.02
  81  0.301  0.551  0.769- 226 1.02
  82  0.801  0.051  0.769- 227 1.02
  83  0.801  0.551  0.769- 228 1.02
  84  0.079  0.171  0.743- 213 1.02
  85  0.079  0.671  0.743- 214 1.02
  86  0.579  0.171  0.743- 215 1.02
  87  0.579  0.671  0.743- 216 1.02
  88  0.171  0.421  0.743- 217 1.02
  89  0.171  0.921  0.743- 218 1.02
  90  0.671  0.421  0.743- 219 1.02
  91  0.671  0.921  0.743- 220 1.02
  92  0.051  0.199  0.769- 213 1.02
  93  0.051  0.699  0.769- 214 1.02
  94  0.551  0.199  0.769- 215 1.02
  95  0.551  0.699  0.769- 216 1.02
  96  0.199  0.449  0.769- 217 1.02
  97  0.199  0.949  0.769- 218 1.02
  98  0.699  0.449  0.769- 219 1.02
  99  0.699  0.949  0.769- 220 1.02
 100  0.421  0.329  0.743- 221 1.02
 101  0.421  0.829  0.743- 222 1.02
 102  0.921  0.329  0.743- 223 1.02
 103  0.921  0.829  0.743- 224 1.02
 104  0.329  0.079  0.743- 225 1.02
 105  0.329  0.579  0.743- 226 1.02
 106  0.829  0.079  0.743- 227 1.02
 107  0.829  0.579  0.743- 228 1.02
 108  0.000  0.250  0.726- 161 1.09
 109  0.000  0.750  0.726- 162 1.09
 110  0.500  0.250  0.726- 159 1.09
 111  0.500  0.750  0.726- 160 1.09
 112  0.250  0.000  0.726- 163 1.09
 113  0.250  0.500  0.726- 164 1.09
 114  0.750  0.000  0.726- 165 1.09
 115  0.750  0.500  0.726- 166 1.09
 116  0.718  0.438  0.542- 173 1.10
 117  0.735  0.496  0.520- 173 1.10
 118  0.655  0.554  0.560- 174 1.10
 119  0.707  0.636  0.558- 174 1.09
 120  0.847  0.502  0.572- 175 1.10
 121  0.784  0.571  0.581- 175 1.10
 122  0.866  0.560  0.531- 176 1.09
 123  0.794  0.625  0.527- 176 1.09
 124  0.867  0.464  0.519- 177 1.10
 125  0.864  0.424  0.544- 177 1.10
 126  0.872  0.327  0.519- 178 1.10
 127  0.784  0.323  0.531- 178 1.10
 128  0.639  0.550  0.521- 179 1.09
 129  0.689  0.635  0.518- 179 1.09
 130  0.606  0.632  0.533- 179 1.09
 131  0.753  0.454  0.598- 180 1.10
 132  0.748  0.406  0.574- 180 1.10
 133  0.679  0.472  0.581- 180 1.10
 134  0.823  0.687  0.562- 181 1.10
 135  0.898  0.682  0.544- 181 1.10
 136  0.897  0.621  0.566- 181 1.09
 137  0.817  0.386  0.486- 182 1.08
 138  0.784  0.298  0.492- 182 1.09
 139  0.663  0.318  0.522- 168 1.10
 140  0.729  0.461  0.470- 169 1.09
 141  0.537  0.375  0.521- 170 1.10
 142  0.604  0.517  0.469- 171 1.09
 143  0.508  0.473  0.495- 172 1.07
 144  0.993  0.244  0.556-  31 1.08 183 1.32 189 1.32
 145  0.035  0.771  0.563-  32 1.09 184 1.31 190 1.31
 146  0.472  0.229  0.558-  29 1.09 185 1.31 187 1.32
 147  0.498  0.757  0.557-  30 1.09 186 1.31 188 1.32
 148  0.237  0.522  0.559-  33 1.10 195 1.31 191 1.32
 149  0.253  0.988  0.555-  34 1.09 192 1.31 194 1.32
 150  0.766  0.980  0.564-  35 1.09 196 1.31 193 1.32
 151  0.007  0.247  0.650-  68 1.11 197 1.29 207 1.32
 152  0.010  0.762  0.652-  69 1.10 198 1.30 208 1.32
 153  0.497  0.243  0.649-  70 1.10 199 1.30 205 1.33
 154  0.498  0.755  0.650-  71 1.09 200 1.30 206 1.32
 155  0.250  0.497  0.650-  73 1.09 201 1.31 210 1.32
 156  0.255  0.000  0.648-  72 1.10 202 1.31 209 1.33
 157  0.750  0.520  0.652-  75 1.10 203 1.32 212 1.33
 158  0.748  0.995  0.649-  74 1.10 204 1.30 211 1.33
 159  0.500  0.250  0.743- 110 1.09 221 1.31 215 1.31
 160  0.500  0.750  0.743- 111 1.09 222 1.31 216 1.31
 161  1.000  0.250  0.743- 108 1.09 223 1.31 213 1.31
 162  1.000  0.750  0.743- 109 1.09 224 1.31 214 1.31
 163  0.250  0.000  0.743- 112 1.09 225 1.31 218 1.31
 164  0.250  0.500  0.743- 113 1.09 226 1.31 217 1.31
 165  0.750  0.000  0.743- 114 1.09 227 1.31 220 1.31
 166  0.750  0.500  0.743- 115 1.09 228 1.31 219 1.31
 167  0.705  0.386  0.496- 169 1.40 168 1.41 182 1.51
 168  0.650  0.361  0.510- 139 1.10 170 1.40 167 1.41
 169  0.688  0.441  0.481- 140 1.09 171 1.40 167 1.40
 170  0.579  0.393  0.510- 141 1.10 168 1.40 172 1.41
 171  0.617  0.473  0.481- 142 1.09 169 1.40 172 1.41
 172  0.562  0.449  0.495- 143 1.07 170 1.41 171 1.41
 173  0.759  0.475  0.534- 116 1.10 117 1.10 229 1.52 177 1.55
 174  0.693  0.584  0.550- 119 1.09 118 1.10 179 1.51 229 1.54
 175  0.788  0.520  0.572- 121 1.10 120 1.10 180 1.52 229 1.54
 176  0.824  0.594  0.539- 123 1.09 122 1.09 181 1.51 229 1.54
 177  0.832  0.432  0.530- 125 1.10 124 1.10 178 1.53 173 1.55
 178  0.818  0.356  0.520- 127 1.10 126 1.10 177 1.53 182 1.54
 179  0.656  0.600  0.529- 128 1.09 129 1.09 130 1.09 174 1.51
 180  0.739  0.460  0.581- 131 1.10 132 1.10 133 1.10 175 1.52
 181  0.862  0.648  0.554- 136 1.09 134 1.10 135 1.10 176 1.51
 182  0.783  0.355  0.497- 137 1.08 138 1.09 167 1.51 178 1.54
 183  0.056  0.239  0.566-   8 1.02  15 1.02 144 1.32
 184  0.050  0.710  0.573-   9 1.02  16 1.02 145 1.31
 185  0.542  0.214  0.562-  10 1.02  17 1.02 146 1.31
 186  0.487  0.702  0.570-  18 1.03  11 1.03 147 1.31
 187  0.439  0.291  0.564-   1 1.03  22 1.03 146 1.32
 188  0.479  0.827  0.561-   2 1.03  23 1.03 147 1.32
 189  0.926  0.245  0.565-  24 1.03   3 1.03 144 1.32
 190  0.979  0.815  0.566-  25 1.03   4 1.04 145 1.31
 191  0.242  0.454  0.567-  26 1.01  19 1.05 148 1.32
 192  0.185  0.004  0.561-  27 1.01  20 1.05 149 1.31
 193  0.694  0.983  0.566-  28 1.01  21 1.04 150 1.32
 194  0.312  0.023  0.563-  12 1.01   5 1.04 149 1.32
 195  0.283  0.576  0.564-  13 1.02   6 1.04 148 1.31
 196  0.812  0.032  0.570-  14 1.02   7 1.04 150 1.31
 197  0.055  0.199  0.657-  44 1.03  52 1.03 151 1.29
 198  0.049  0.709  0.660-  53 1.03  45 1.03 152 1.30
 199  0.551  0.207  0.658-  54 1.02  46 1.03 153 1.30
 200  0.538  0.709  0.662-  47 1.02  55 1.03 154 1.30
 201  0.208  0.443  0.657-  48 1.03  56 1.03 155 1.31
 202  0.208  0.958  0.658-  57 1.02  49 1.03 156 1.31
 203  0.704  0.474  0.662-  50 1.03  58 1.03 157 1.32
 204  0.704  0.949  0.659-  59 1.02  51 1.03 158 1.30
 205  0.456  0.295  0.658-  36 1.01  60 1.02 153 1.33
 206  0.449  0.803  0.658-  37 1.02  61 1.02 154 1.32
 207  0.959  0.283  0.662-  62 1.02  38 1.02 151 1.32
 208  0.949  0.790  0.661-  63 1.02  39 1.04 152 1.32
 209  0.302  0.047  0.657-  40 1.02  64 1.03 156 1.33
 210  0.291  0.542  0.661-  41 1.02  65 1.03 155 1.32
 211  0.790  0.047  0.658-  42 1.02  66 1.03 158 1.33
 212  0.823  0.522  0.655-  67 1.01  43 1.02 157 1.33
 213  0.046  0.204  0.753-  92 1.02  84 1.02 161 1.31
 214  0.046  0.704  0.753-  93 1.02  85 1.02 162 1.31
 215  0.546  0.204  0.753-  94 1.02  86 1.02 159 1.31
 216  0.546  0.704  0.753-  95 1.02  87 1.02 160 1.31
 217  0.204  0.454  0.753-  96 1.02  88 1.02 164 1.31
 218  0.204  0.954  0.753-  97 1.02  89 1.02 163 1.31
 219  0.704  0.454  0.753-  98 1.02  90 1.02 166 1.31
 220  0.704  0.954  0.753-  99 1.02  91 1.02 165 1.31
 221  0.454  0.296  0.753-  76 1.02 100 1.02 159 1.31
 222  0.454  0.796  0.753-  77 1.02 101 1.02 160 1.31
 223  0.954  0.296  0.753-  78 1.02 102 1.02 161 1.31
 224  0.954  0.796  0.753-  79 1.02 103 1.02 162 1.31
 225  0.296  0.046  0.753-  80 1.02 104 1.02 163 1.31
 226  0.296  0.546  0.753-  81 1.02 105 1.02 164 1.31
 227  0.796  0.046  0.753-  82 1.02 106 1.02 165 1.31
 228  0.796  0.546  0.753-  83 1.02 107 1.02 166 1.31
 229  0.767  0.541  0.549- 173 1.52 175 1.54 174 1.54 176 1.54
 230  0.504  0.018  0.553- 304 3.28
 231  0.483  0.513  0.555- 305 3.08
 232  0.995  0.005  0.552- 302 3.33
 233  0.034  0.506  0.554- 303 3.17
 234  0.248  0.249  0.554- 306 3.19
 235  0.243  0.765  0.553- 307 3.19
 236  0.739  0.212  0.556- 308 3.19
 237  0.704  0.793  0.551- 309 3.30
 238  0.004  0.996  0.655- 302 3.09 310 3.14
 239  0.014  0.492  0.656- 311 3.09 303 3.23
 240  0.502  0.001  0.655- 304 3.11 312 3.12
 241  0.503  0.494  0.655- 313 3.10 305 3.17
 242  0.258  0.246  0.655- 306 3.12 314 3.14
 243  0.251  0.753  0.655- 315 3.14 307 3.19
 244  0.747  0.261  0.655- 316 3.10 308 3.10
 245  0.750  0.743  0.654- 317 3.18 309 3.28
 246  0.138  0.115  0.607- 306 3.20 302 3.26
 247  0.147  0.612  0.611- 307 3.18 303 3.21
 248  0.644  0.112  0.610- 304 3.19 308 3.25
 249  0.623  0.626  0.613- 305 3.21 309 3.23
 250  0.360  0.392  0.609- 305 3.21 306 3.23
 251  0.374  0.882  0.606- 304 3.24 307 3.25
 252  0.886  0.370  0.612- 308 3.24 303 3.33
 253  0.868  0.881  0.610- 302 3.22 309 3.29
 254  0.117  0.364  0.609- 306 3.14 303 3.30
 255  0.120  0.875  0.608- 307 3.16 302 3.22
 256  0.591  0.346  0.604- 308 3.23 305 3.31
 257  0.612  0.865  0.610- 309 3.05 304 3.24
 258  0.383  0.133  0.607- 304 3.17 306 3.23
 259  0.380  0.634  0.613- 305 3.23 307 3.31
 260  0.888  0.143  0.614- 302 3.23 308 3.33
 261  0.911  0.649  0.617- 303 3.19 309 3.78
 262  0.000  0.000  0.755- 310 3.13 318 3.27
 263  0.000  0.500  0.755- 311 3.13 319 3.27
 264  0.500  0.000  0.755- 312 3.13 320 3.27
 265  0.500  0.500  0.755- 313 3.13 321 3.27
 266  0.250  0.250  0.755- 314 3.13 322 3.27
 267  0.250  0.750  0.755- 315 3.13 323 3.27
 268  0.750  0.250  0.755- 316 3.13 324 3.27
 269  0.750  0.750  0.755- 317 3.13 325 3.27
 270  0.136  0.114  0.705- 310 3.20 314 3.20
 271  0.136  0.614  0.705- 311 3.20 315 3.20
 272  0.636  0.114  0.705- 312 3.20 316 3.20
 273  0.636  0.614  0.705- 313 3.20 317 3.20
 274  0.364  0.386  0.705- 313 3.20 314 3.20
 275  0.364  0.886  0.705- 312 3.20 315 3.20
 276  0.864  0.386  0.705- 311 3.20 316 3.20
 277  0.864  0.886  0.705- 310 3.20 317 3.20
 278  0.114  0.364  0.705- 314 3.21 311 3.21
 279  0.114  0.864  0.705- 315 3.21 310 3.21
 280  0.614  0.364  0.705- 316 3.21 313 3.21
 281  0.614  0.864  0.705- 317 3.21 312 3.21
 282  0.386  0.136  0.705- 314 3.21 312 3.21
 283  0.386  0.636  0.705- 315 3.21 313 3.21
 284  0.886  0.136  0.705- 316 3.21 310 3.21
 285  0.886  0.636  0.705- 317 3.21 311 3.21
 286  0.135  0.115  0.801- 318 3.22 322 3.22
 287  0.135  0.615  0.801- 319 3.22 323 3.22
 288  0.635  0.115  0.801- 320 3.22 324 3.22
 289  0.635  0.615  0.801- 321 3.22 325 3.22
 290  0.365  0.385  0.801- 321 3.22 322 3.22
 291  0.365  0.885  0.801- 320 3.22 323 3.22
 292  0.865  0.385  0.801- 319 3.22 324 3.22
 293  0.865  0.885  0.801- 318 3.22 325 3.22
 294  0.115  0.365  0.801- 319 3.23 322 3.23
 295  0.115  0.865  0.801- 318 3.23 323 3.23
 296  0.615  0.365  0.801- 321 3.23 324 3.23
 297  0.615  0.865  0.801- 320 3.23 325 3.23
 298  0.385  0.135  0.801- 320 3.23 322 3.23
 299  0.385  0.635  0.801- 321 3.23 323 3.23
 300  0.885  0.135  0.801- 318 3.23 324 3.23
 301  0.885  0.635  0.801- 319 3.23 325 3.23
 302  0.996  0.004  0.605- 238 3.09 253 3.22 255 3.22 260 3.23 246 3.26 232 3.33
 303  0.006  0.507  0.604- 233 3.17 261 3.19 247 3.21 239 3.23 254 3.30 252 3.33
 304  0.504  0.006  0.605- 240 3.11 258 3.17 248 3.19 257 3.24 251 3.24 230 3.28
 305  0.498  0.503  0.604- 231 3.08 241 3.17 249 3.21 250 3.21 259 3.23 256 3.31
 306  0.250  0.252  0.605- 242 3.12 254 3.14 234 3.19 246 3.20 250 3.23 258 3.23
 307  0.247  0.755  0.604- 255 3.16 247 3.18 235 3.19 243 3.19 251 3.25 259 3.31
 308  0.747  0.258  0.606- 244 3.10 236 3.19 256 3.23 252 3.24 248 3.25 260 3.33
 309  0.739  0.757  0.602- 257 3.05 249 3.23 245 3.28 253 3.29 237 3.30 261 3.78
 310  0.000  0.000  0.705- 262 3.13 238 3.14 270 3.20 277 3.20 279 3.21 284 3.21
 311  0.000  0.500  0.705- 239 3.09 263 3.13 271 3.20 276 3.20 278 3.21 285 3.21
 312  0.500  0.000  0.705- 240 3.12 264 3.13 272 3.20 275 3.20 281 3.21 282 3.21
 313  0.500  0.500  0.705- 241 3.10 265 3.13 273 3.20 274 3.20 280 3.21 283 3.21
 314  0.250  0.250  0.705- 266 3.13 242 3.14 270 3.20 274 3.20 282 3.21 278 3.21
 315  0.250  0.750  0.705- 267 3.13 243 3.14 271 3.20 275 3.20 283 3.21 279 3.21
 316  0.750  0.250  0.705- 244 3.10 268 3.13 272 3.20 276 3.20 284 3.21 280 3.21
 317  0.750  0.750  0.705- 269 3.13 245 3.18 273 3.20 277 3.20 285 3.21 281 3.21
 318  0.000  0.000  0.807- 286 3.22 293 3.22 300 3.23 295 3.23 262 3.27
 319  0.000  0.500  0.807- 287 3.22 292 3.22 301 3.23 294 3.23 263 3.27
 320  0.500  0.000  0.807- 288 3.22 291 3.22 298 3.23 297 3.23 264 3.27
 321  0.500  0.500  0.807- 289 3.22 290 3.22 299 3.23 296 3.23 265 3.27
 322  0.250  0.250  0.807- 290 3.22 286 3.22 294 3.23 298 3.23 266 3.27
 323  0.250  0.750  0.807- 291 3.22 287 3.22 299 3.23 295 3.23 267 3.27
 324  0.750  0.250  0.807- 292 3.22 288 3.22 296 3.23 300 3.23 268 3.27
 325  0.750  0.750  0.807- 293 3.22 289 3.22 297 3.23 301 3.23 269 3.27
 

IMPORTANT INFORMATION: All symmetrisations will be switched off!
NOSYMM: (Re-)initialisation of all symmetry stuff for point group C_1.


----------------------------------------------------------------------------------------

                                     Primitive cell                                     

  volume of cell :   20385.2105

  direct lattice vectors                    reciprocal lattice vectors
    18.060800552  0.000000000  0.000000000     0.055368531  0.000015077 -0.000000000
    -0.004918649 18.062799454  0.000000000     0.000000000  0.055362404  0.000000000
     0.000000000  0.000000000 62.487499237     0.000000000 -0.000000000  0.016003201

  length of vectors
    18.060800552 18.062800123 62.487499237     0.055368533  0.055362404  0.016003201

  position of ions in fractional coordinates (direct lattice)
     0.463848768  0.327200194  0.574014285
     0.450591059  0.840983932  0.574413168
     0.919606261  0.241500520  0.581137963
     0.942048445  0.808593333  0.578779887
     0.308270569  0.065564438  0.573742258
     0.324796837  0.571512640  0.575377717
     0.793887021  0.080513646  0.577344419
     0.105345256  0.244555501  0.558705193
     0.094097857  0.678361727  0.568550790
     0.563637091  0.165387682  0.556929691
     0.493621919  0.648778488  0.564687957
     0.363726706  0.005572054  0.558730405
     0.274253454  0.627787389  0.557919635
     0.867325578  0.026487094  0.566734997
     0.057519932  0.235669120  0.582658409
     0.019319117  0.693308704  0.585756013
     0.572444429  0.246323986  0.571936355
     0.460863437  0.706920955  0.584905746
     0.283917518  0.438984256  0.577735549
     0.171718861  0.046628588  0.571259400
     0.669507171  0.025298334  0.574992569
     0.382748498  0.295051356  0.560972492
     0.493243294  0.869145170  0.550415510
     0.878569274  0.238503300  0.556033027
     0.979491171  0.867712769  0.559629267
     0.204374874  0.415029700  0.562979119
     0.140793741  0.977034217  0.554156676
     0.664814338  0.936218507  0.562821067
     0.441028019  0.188157338  0.548466939
     0.523772765  0.745220250  0.541594104
     0.994954831  0.247008905  0.538690753
     0.073207703  0.788047477  0.549877927
     0.191421881  0.533183884  0.548272625
     0.261970481  0.940655065  0.544618086
     0.787605864  0.931156884  0.555530730
     0.464802035  0.311123003  0.673752740
     0.437708084  0.809507789  0.673634674
     0.954036167  0.278283201  0.677840349
     0.922877914  0.769284651  0.674199729
     0.306627451  0.054594112  0.673038486
     0.293332250  0.541909180  0.677577235
     0.790573645  0.054899388  0.674453197
     0.848580283  0.488975998  0.666394579
     0.089502745  0.173537298  0.645883762
     0.097576802  0.693471057  0.652783580
     0.578238558  0.167588290  0.648649635
     0.573503590  0.674533102  0.654287970
     0.179252243  0.411112718  0.646816078
     0.174196361  0.923742410  0.649388431
     0.648381509  0.481256868  0.659433286
     0.674205722  0.912208712  0.649717903
     0.060587905  0.183589914  0.672594427
     0.036045859  0.681062436  0.674342457
     0.570321516  0.213946930  0.672728548
     0.535198600  0.705055718  0.678127577
     0.200789177  0.433377430  0.673477172
     0.202855606  0.956754256  0.674435738
     0.721917494  0.435007057  0.672623302
     0.697595204  0.946888356  0.674950672
     0.413772892  0.319047305  0.650132415
     0.421758901  0.835475231  0.646903986
     0.925005262  0.320282956  0.654410065
     0.921682212  0.830558180  0.652703547
     0.336378536  0.076925270  0.646995435
     0.320816039  0.582113416  0.653330015
     0.822938322  0.079171785  0.648841202
     0.855148346  0.557182341  0.647030659
     0.006068420  0.260326016  0.632682636
     0.029353860  0.788800689  0.637661170
     0.481409986  0.228604048  0.632341014
     0.506068312  0.753150307  0.632941415
     0.255229117  0.996346548  0.630450317
     0.251534423  0.503547108  0.632420864
     0.751694561  0.991526599  0.631463153
     0.726102562  0.558965953  0.640643517
     0.448745018  0.301283966  0.768889017
     0.448745007  0.801283913  0.768889017
     0.948744965  0.301283966  0.768889017
     0.948745007  0.801283913  0.768889017
     0.301275995  0.051294496  0.768872961
     0.301276011  0.551294499  0.768872961
     0.801275943  0.051294496  0.768872961
     0.801275984  0.551294499  0.768872961
     0.078771004  0.171180501  0.743441971
     0.078771006  0.671180448  0.743441971
     0.578771004  0.171180501  0.743441971
     0.578770992  0.671180448  0.743441971
     0.171199499  0.421174482  0.743421032
     0.171199501  0.921174508  0.743421032
     0.671199512  0.421174482  0.743421032
     0.671199501  0.921174508  0.743421032
     0.051256000  0.198714991  0.768889017
     0.051256002  0.698714925  0.768889017
     0.551256027  0.198714991  0.768889017
     0.551256016  0.698714925  0.768889017
     0.198723491  0.448703970  0.768872046
     0.198723493  0.948703970  0.768872046
     0.698723518  0.448703970  0.768872046
     0.698723507  0.948703970  0.768872046
     0.421231519  0.328817467  0.743441971
     0.421231508  0.828817440  0.743441971
     0.921231466  0.328817467  0.743441971
     0.921231508  0.828817440  0.743441971
     0.328800503  0.078824997  0.743421032
     0.328800492  0.578824964  0.743421032
     0.828800477  0.078824997  0.743421032
     0.828800519  0.578824964  0.743421032
     0.000003500  0.250001478  0.725821992
     0.000003500  0.750001452  0.725821992
     0.500003506  0.250001478  0.725821992
     0.500003495  0.750001452  0.725821992
     0.250000502  0.000000000  0.725803983
     0.250000517  0.500000000  0.725803983
     0.750000502  0.000000000  0.725803983
     0.750000490  0.500000000  0.725803983
     0.718156385  0.438042688  0.542004892
     0.735255646  0.496188851  0.519504664
     0.654732297  0.553577314  0.560457924
     0.707383698  0.635915173  0.558202284
     0.846540245  0.502452876  0.571871583
     0.783699049  0.571430012  0.581470793
     0.866262113  0.559872014  0.531489300
     0.793751983  0.625077124  0.527012697
     0.867064480  0.464153317  0.518841384
     0.864199979  0.424159849  0.544464490
     0.872047583  0.327386728  0.519136182
     0.783945239  0.322551514  0.530762836
     0.638577958  0.550311934  0.520723597
     0.689404177  0.634680710  0.518413381
     0.605892185  0.632294993  0.532581315
     0.752644039  0.454017002  0.598251432
     0.748201104  0.405575453  0.573804221
     0.679204871  0.471870229  0.580683038
     0.823143512  0.687387125  0.561591329
     0.898028098  0.682041622  0.543879412
     0.896653376  0.621034404  0.566038141
     0.817320835  0.385972986  0.486140233
     0.783853001  0.297767322  0.492074343
     0.662648517  0.318455759  0.522038435
     0.729413130  0.460846649  0.470080533
     0.536968747  0.375495784  0.521484735
     0.604133058  0.517017650  0.469258683
     0.508243241  0.473383622  0.495107572
     0.992696064  0.243753425  0.555902264
     0.035453717  0.771451997  0.562527490
     0.472295616  0.229178091  0.557620503
     0.497609269  0.757146301  0.556945502
     0.237402906  0.521890614  0.559257183
     0.253107875  0.987650599  0.555384460
     0.766406945  0.980267481  0.563711870
     0.007464543  0.246665851  0.649929493
     0.010096683  0.762256221  0.652422485
     0.496690191  0.243219983  0.648932590
     0.497992874  0.754772411  0.650285461
     0.250255854  0.496626174  0.649820585
     0.254978749  0.000031065  0.648011080
     0.750377224  0.519899560  0.652064564
     0.748210531  0.995020700  0.648991623
     0.499988984  0.249994984  0.743277021
     0.499989025  0.749994958  0.743277021
     0.999988984  0.249994984  0.743277021
     0.999989025  0.749994958  0.743277021
     0.250000502  0.000001000  0.743255960
     0.250000517  0.500001003  0.743255960
     0.750000502  0.000001000  0.743255960
     0.750000491  0.500001003  0.743255960
     0.705225854  0.385890965  0.496158930
     0.649662779  0.361210626  0.510192255
     0.687709174  0.441339218  0.481246524
     0.579059677  0.393366354  0.509935062
     0.617170434  0.473472111  0.480610105
     0.562364462  0.449393455  0.495063802
     0.759168542  0.474536302  0.534463711
     0.693274948  0.584099613  0.550188475
     0.788246455  0.520308214  0.572005399
     0.824284564  0.594200869  0.539093909
     0.831718294  0.431893075  0.529793343
     0.817892906  0.355521198  0.519795494
     0.655925749  0.600447577  0.529069260
     0.739187510  0.460146710  0.581237470
     0.861748167  0.648351883  0.554100939
     0.782967351  0.355441632  0.497301584
     0.055870597  0.238907467  0.566335869
     0.050175839  0.710054340  0.572961035
     0.541864437  0.214407419  0.561806277
     0.487212076  0.702216469  0.570313838
     0.438628503  0.290661596  0.563784700
     0.478777643  0.826630823  0.560685081
     0.926279767  0.245316157  0.564811028
     0.978969501  0.815469389  0.566257301
     0.241805205  0.453889285  0.567096581
     0.184792338  0.003847566  0.560588016
     0.693746117  0.982668235  0.566362974
     0.312200222  0.023148971  0.562608073
     0.283320215  0.576007362  0.563906489
     0.812188444  0.032348403  0.569804764
     0.054984715  0.198577017  0.656779618
     0.049428922  0.709155301  0.660482691
     0.551205296  0.207296241  0.657566885
     0.537506431  0.709317285  0.661778055
     0.208103438  0.443433861  0.657439113
     0.207867448  0.958042154  0.658216734
     0.704386918  0.473941799  0.661698754
     0.704136685  0.948898747  0.658771472
     0.456189961  0.294934013  0.658462023
     0.449351486  0.803140545  0.657766144
     0.959217223  0.283340165  0.661666887
     0.948736041  0.789568050  0.660624504
     0.302340011  0.047019367  0.656973077
     0.290773530  0.542420948  0.661289248
     0.789930567  0.046621883  0.658370757
     0.822884747  0.521704027  0.655466184
     0.045862501  0.204119496  0.752725994
     0.045862500  0.704119456  0.752725994
     0.545862507  0.204119496  0.752725994
     0.545862496  0.704119456  0.752725994
     0.204119002  0.454101003  0.752704994
     0.204118991  0.954100951  0.752704994
     0.704118976  0.454101003  0.752704994
     0.704118964  0.954100951  0.752704994
     0.454140018  0.295888490  0.752726971
     0.454140007  0.795888516  0.752726971
     0.954140018  0.295888490  0.752726971
     0.954140060  0.795888516  0.752726971
     0.295882492  0.045900498  0.752704994
     0.295882481  0.545900528  0.752704994
     0.795882439  0.045900498  0.752704994
     0.795882481  0.545900528  0.752704994
     0.766789797  0.541286378  0.549001409
     0.504384333  0.018037931  0.552863265
     0.482566070  0.512665007  0.555416205
     0.995048764  0.005340697  0.551907629
     0.034378620  0.506427909  0.554124076
     0.247589661  0.248701441  0.553775252
     0.242897985  0.764830796  0.552686228
     0.738838616  0.212084359  0.556493080
     0.704157324  0.793263626  0.551061330
     0.003964040  0.996146133  0.654538997
     0.014465010  0.492084727  0.655685466
     0.502343311  0.000953553  0.654863036
     0.502904344  0.494191408  0.655205329
     0.257590728  0.245588541  0.654589971
     0.250997341  0.753214403  0.654650775
     0.747407478  0.260587893  0.655363258
     0.749590827  0.743282891  0.654016920
     0.138407194  0.114895378  0.607150918
     0.147170037  0.612035141  0.610804602
     0.643873203  0.111927104  0.610302061
     0.623333945  0.625543486  0.613358336
     0.360389414  0.391694277  0.609277136
     0.374429185  0.881827707  0.605869289
     0.885521754  0.370331112  0.612440367
     0.867937237  0.881477552  0.609953785
     0.116944418  0.363573904  0.608865189
     0.120034333  0.875382005  0.608188173
     0.591308830  0.345853543  0.604094398
     0.612047852  0.864533344  0.609851470
     0.382645956  0.133067357  0.606710033
     0.380169193  0.634319098  0.613272686
     0.888115723  0.142687112  0.613629447
     0.910756033  0.649309211  0.616889743
     0.000000000  0.000000000  0.754927972
     0.000000000  0.500000000  0.754927972
     0.500000000  0.000000000  0.754927972
     0.499999989  0.500000000  0.754927972
     0.250000496  0.250000000  0.754939022
     0.250000511  0.749999974  0.754939022
     0.750000470  0.250000000  0.754939022
     0.750000458  0.749999974  0.754939022
     0.135790500  0.114209997  0.704782994
     0.135790502  0.614209984  0.704782994
     0.635790447  0.114209997  0.704782994
     0.635790488  0.614209984  0.704782994
     0.364209516  0.385789989  0.704782994
     0.364209505  0.885789963  0.704782994
     0.864209542  0.385789989  0.704782994
     0.864209531  0.885789963  0.704782994
     0.114217990  0.364218986  0.704780979
     0.114217992  0.864218986  0.704780979
     0.614218004  0.364218986  0.704780979
     0.614217992  0.864218986  0.704780979
     0.385782012  0.135781489  0.704782017
     0.385782001  0.635781489  0.704782017
     0.885781985  0.135781489  0.704782017
     0.885782027  0.635781489  0.704782017
     0.134667000  0.115332001  0.801256025
     0.134666989  0.615331988  0.801256025
     0.634666987  0.115332001  0.801256025
     0.634666976  0.615331988  0.801256025
     0.365333002  0.384667985  0.801256025
     0.365332990  0.884667959  0.801256025
     0.865332949  0.384667985  0.801256025
     0.865332938  0.884667959  0.801256025
     0.115328503  0.365337004  0.801264999
     0.115328505  0.865336978  0.801264999
     0.615328503  0.365337004  0.801264999
     0.615328492  0.865336978  0.801264999
     0.384671513  0.134662996  0.801264999
     0.384671501  0.634662970  0.801264999
     0.884671486  0.134662996  0.801264999
     0.884671528  0.634662970  0.801264999
     0.996457932  0.003639111  0.605144718
     0.005551235  0.507209526  0.604234013
     0.503604384  0.006256805  0.605173410
     0.498021395  0.503325622  0.604498348
     0.249640763  0.252389650  0.604778556
     0.246643280  0.755397008  0.603631720
     0.747227701  0.258330976  0.605746340
     0.738660198  0.756545358  0.601793401
     0.000000500  0.000000500  0.704828963
     0.000000500  0.500000475  0.704828963
     0.500000475  0.000000500  0.704828963
     0.500000464  0.500000475  0.704828963
     0.249999994  0.249999472  0.704824995
     0.250000010  0.749999498  0.704824995
     0.749999994  0.249999472  0.704824995
     0.749999983  0.749999498  0.704824995
     0.000000000  0.000000000  0.807317968
     0.000000000  0.500000000  0.807317968
     0.500000000  0.000000000  0.807317968
     0.499999989  0.500000000  0.807317968
     0.249999994  0.250000000  0.807317968
     0.250000010  0.749999974  0.807317968
     0.749999994  0.250000000  0.807317968
     0.749999983  0.749999974  0.807317968

  ion indices of the primitive-cell ions
   primitive index   ion index
                 1           1
                 2           2
                 3           3
                 4           4
                 5           5
                 6           6
                 7           7
                 8           8
                 9           9
                10          10
                11          11
                12          12
                13          13
                14          14
                15          15
                16          16
                17          17
                18          18
                19          19
                20          20
                21          21
                22          22
                23          23
                24          24
                25          25
                26          26
                27          27
                28          28
                29          29
                30          30
                31          31
                32          32
                33          33
                34          34
                35          35
                36          36
                37          37
                38          38
                39          39
                40          40
                41          41
                42          42
                43          43
                44          44
                45          45
                46          46
                47          47
                48          48
                49          49
                50          50
                51          51
                52          52
                53          53
                54          54
                55          55
                56          56
                57          57
                58          58
                59          59
                60          60
                61          61
                62          62
                63          63
                64          64
                65          65
                66          66
                67          67
                68          68
                69          69
                70          70
                71          71
                72          72
                73          73
                74          74
                75          75
                76          76
                77          77
                78          78
                79          79
                80          80
                81          81
                82          82
                83          83
                84          84
                85          85
                86          86
                87          87
                88          88
                89          89
                90          90
                91          91
                92          92
                93          93
                94          94
                95          95
                96          96
                97          97
                98          98
                99          99
               100         100
               101         101
               102         102
               103         103
               104         104
               105         105
               106         106
               107         107
               108         108
               109         109
               110         110
               111         111
               112         112
               113         113
               114         114
               115         115
               116         116
               117         117
               118         118
               119         119
               120         120
               121         121
               122         122
               123         123
               124         124
               125         125
               126         126
               127         127
               128         128
               129         129
               130         130
               131         131
               132         132
               133         133
               134         134
               135         135
               136         136
               137         137
               138         138
               139         139
               140         140
               141         141
               142         142
               143         143
               144         144
               145         145
               146         146
               147         147
               148         148
               149         149
               150         150
               151         151
               152         152
               153         153
               154         154
               155         155
               156         156
               157         157
               158         158
               159         159
               160         160
               161         161
               162         162
               163         163
               164         164
               165         165
               166         166
               167         167
               168         168
               169         169
               170         170
               171         171
               172         172
               173         173
               174         174
               175         175
               176         176
               177         177
               178         178
               179         179
               180         180
               181         181
               182         182
               183         183
               184         184
               185         185
               186         186
               187         187
               188         188
               189         189
               190         190
               191         191
               192         192
               193         193
               194         194
               195         195
               196         196
               197         197
               198         198
               199         199
               200         200
               201         201
               202         202
               203         203
               204         204
               205         205
               206         206
               207         207
               208         208
               209         209
               210         210
               211         211
               212         212
               213         213
               214         214
               215         215
               216         216
               217         217
               218         218
               219         219
               220         220
               221         221
               222         222
               223         223
               224         224
               225         225
               226         226
               227         227
               228         228
               229         229
               230         230
               231         231
               232         232
               233         233
               234         234
               235         235
               236         236
               237         237
               238         238
               239         239
               240         240
               241         241
               242         242
               243         243
               244         244
               245         245
               246         246
               247         247
               248         248
               249         249
               250         250
               251         251
               252         252
               253         253
               254         254
               255         255
               256         256
               257         257
               258         258
               259         259
               260         260
               261         261
               262         262
               263         263
               264         264
               265         265
               266         266
               267         267
               268         268
               269         269
               270         270
               271         271
               272         272
               273         273
               274         274
               275         275
               276         276
               277         277
               278         278
               279         279
               280         280
               281         281
               282         282
               283         283
               284         284
               285         285
               286         286
               287         287
               288         288
               289         289
               290         290
               291         291
               292         292
               293         293
               294         294
               295         295
               296         296
               297         297
               298         298
               299         299
               300         300
               301         301
               302         302
               303         303
               304         304
               305         305
               306         306
               307         307
               308         308
               309         309
               310         310
               311         311
               312         312
               313         313
               314         314
               315         315
               316         316
               317         317
               318         318
               319         319
               320         320
               321         321
               322         322
               323         323
               324         324
               325         325

----------------------------------------------------------------------------------------

 
 
 KPOINTS: Automatic Mesh                          

Automatic generation of k-mesh.
 Grid dimensions read from file:
 generate k-points for:    3    3    1

 Generating k-lattice:

  Cartesian coordinates                     Fractional coordinates (reciprocal lattice)
     0.018456177  0.000005026 -0.000000000     0.333333333  0.000000000  0.000000000
     0.000000000  0.018454135  0.000000000     0.000000000  0.333333333  0.000000000
     0.000000000 -0.000000000  0.016003201     0.000000000  0.000000000  1.000000000

  Length of vectors
     0.018456178  0.018454135  0.016003201

  Shift w.r.t. Gamma in fractional coordinates (k-lattice)
     0.000000000  0.000000000  0.000000000

 
 Subroutine IBZKPT returns following result:
 ===========================================
 
 Found      5 irreducible k-points:
 
 Following reciprocal coordinates:
            Coordinates               Weight
  0.000000  0.000000  0.000000      1.000000
  0.333333  0.000000  0.000000      2.000000
  0.000000  0.333333  0.000000      2.000000
  0.333333  0.333333  0.000000      2.000000
 -0.333333  0.333333  0.000000      2.000000
 
 Following cartesian coordinates:
            Coordinates               Weight
  0.000000  0.000000  0.000000      1.000000
  0.018456  0.000005  0.000000      2.000000
  0.000000  0.018454  0.000000      2.000000
  0.018456  0.018459  0.000000      2.000000
 -0.018456  0.018449  0.000000      2.000000
 


--------------------------------------------------------------------------------------------------------




 Dimension of arrays:
   k-points           NKPTS =      5   k-points in BZ     NKDIM =      5   number of bands    NBANDS=    732
   number of dos      NEDOS =    301   number of ions     NIONS =    325
   non local maximal  LDIM  =      5   non local SUM 2l+1 LMDIM =     13
   total plane-waves  NPLWV = ******
   max r-space proj   IRMAX =   3336   max aug-charges    IRDMAX=  19845
   dimension x,y,z NGX =   100 NGY =  100 NGZ =  350
   dimension x,y,z NGXF=   200 NGYF=  200 NGZF=  700
   support grid    NGXF=   200 NGYF=  200 NGZF=  700
   ions per type =             143  39  47  72  24
   NGX,Y,Z   is equivalent  to a cutoff of   9.20,  9.20,  9.31 a.u.
   NGXF,Y,Z  is equivalent  to a cutoff of  18.41, 18.41, 18.62 a.u.

 SYSTEM =  PSC                                     
 POSCAR =   H  C  N  I Pb                          

 Startparameter for this run:
   NWRITE =      2    write-flag & timer
   PREC   = normal    normal or accurate (medium, high low for compatibility)
   ISTART =      0    job   : 0-new  1-cont  2-samecut
   ICHARG =      1    charge: 1-file 2-atom 10-const
   ISPIN  =      1    spin polarized calculation?
   LNONCOLLINEAR =      F non collinear calculations
   LSORBIT =      F    spin-orbit coupling
   INIWAV =      1    electr: 0-lowe 1-rand  2-diag
   LASPH  =      F    aspherical Exc in radial PAW
 Electronic Relaxation 1
   ENCUT  =  500.0 eV  36.75 Ry    6.06 a.u.  32.93 32.93113.93*2*pi/ulx,y,z
   ENINI  =  500.0     initial cutoff
   ENAUG  =  644.9 eV  augmentation charge cutoff
   NELM   =    600;   NELMIN=  2; NELMDL=  0     # of ELM steps 
   EDIFF  = 0.1E-03   stopping-criterion for ELM
   LREAL  =      T    real-space projection
   NLSPLINE    = F    spline interpolate recip. space projectors
   LCOMPAT=      F    compatible to vasp.4.4
   GGA_COMPAT  = F    GGA compatible to vasp.4.4-vasp.4.6
   LMAXPAW     = -100 max onsite density
   LMAXMIX     =    2 max onsite mixed and CHGCAR
   VOSKOWN=      0    Vosko Wilk Nusair interpolation
   ROPT   =   -0.00050  -0.00050  -0.00050  -0.00050
   ROPT   =   -0.00050
 Ionic relaxation
   EDIFFG = 0.1E-02   stopping-criterion for IOM
   NSW    =      0    number of steps for IOM
   NBLOCK =      1;   KBLOCK =      1    inner block; outer block 
   IBRION =     -1    ionic relax: 0-MD 1-quasi-New 2-CG
   NFREE  =      0    steps in history (QN), initial steepest desc. (CG)
   ISIF   =      2    stress and relaxation
   IWAVPR =     10    prediction:  0-non 1-charg 2-wave 3-comb
   ISYM   =      0    0-nonsym 1-usesym 2-fastsym
   LCORR  =      T    Harris-Foulkes like correction to forces

   POTIM  = 0.5000    time-step for ionic-motion
   TEIN   =    0.0    initial temperature
   TEBEG  =    0.0;   TEEND  =   0.0 temperature during run
   SMASS  =  -3.00    Nose mass-parameter (am)
   estimated Nose-frequenzy (Omega)   =  0.10E-29 period in steps = 0.13E+47 mass=  -0.745E-26a.u.
   SCALEE = 1.0000    scale energy and forces
   NPACO  =    256;   APACO  = 16.0  distance and # of slots for P.C.
   PSTRESS=    0.0 pullay stress

  Mass of Ions in am
   POMASS =   1.00 12.01 14.00126.90207.20
  Ionic Valenz
   ZVAL   =   1.00  4.00  5.00  7.00  4.00
  Atomic Wigner-Seitz radii
   RWIGS  =  -1.00 -1.00 -1.00 -1.00 -1.00
  virtual crystal weights 
   VCA    =   1.00  1.00  1.00  1.00  1.00
   NELECT =    1134.0000    total number of electrons
   NUPDOWN=      -1.0000    fix difference up-down

 DOS related values:
   EMIN   =  10.00;   EMAX   =-10.00  energy-range for DOS
   EFERMI =   0.00
   ISMEAR =     0;   SIGMA  =   0.05  broadening in eV -4-tet -1-fermi 0-gaus

 Electronic relaxation 2 (details)
   IALGO  =     38    algorithm
   LDIAG  =      T    sub-space diagonalisation (order eigenvalues)
   LSUBROT=      F    optimize rotation matrix (better conditioning)
   TURBO    =      0    0=normal 1=particle mesh
   IRESTART =      0    0=no restart 2=restart with 2 vectors
   NREBOOT  =      0    no. of reboots
   NMIN     =      0    reboot dimension
   EREF     =   0.00    reference energy to select bands
   IMIX   =      4    mixing-type and parameters
     AMIX     =   0.40;   BMIX     =  0.01
     AMIX_MAG =   1.60;   BMIX_MAG =  0.01
     AMIN     =   0.01
     WC   =   100.;   INIMIX=   1;  MIXPRE=   1;  MAXMIX= -45

 Intra band minimization:
   WEIMIN = 0.0000     energy-eigenvalue tresh-hold
   EBREAK =  0.34E-07  absolut break condition
   DEPER  =   0.30     relativ break condition  

   TIME   =   0.40     timestep for ELM

  volume/ion in A,a.u.               =      62.72       423.28
  Fermi-wavevector in a.u.,A,eV,Ry     =   0.624944  1.180972  5.313816  0.390554
  Thomas-Fermi vector in A             =   1.685677
 
 Write flags
   LWAVE        =      F    write WAVECAR
   LDOWNSAMPLE  =      F    k-point downsampling of WAVECAR
   LCHARG       =      T    write CHGCAR
   LVTOT        =      T    write LOCPOT, total local potential
   LVHAR        =      F    write LOCPOT, Hartree potential only
   LELF         =      F    write electronic localiz. function (ELF)
   LORBIT       =      0    0 simple, 1 ext, 2 COOP (PROOUT), +10 PAW based schemes


 Dipole corrections
   LMONO  =      F    monopole corrections only (constant potential shift)
   LDIPOL =      T    correct potential (dipole corrections)
   IDIPOL =      3    1-x, 2-y, 3-z, 4-all directions 
   EPSILON=  1.0000000 bulk dielectric constant

 Exchange correlation treatment:
   GGA     =    --    GGA type
   LEXCH   =     8    internal setting for exchange type
   VOSKOWN=      0    Vosko Wilk Nusair interpolation
   LHFCALC =     F    Hartree Fock is set to
   LHFONE  =     F    Hartree Fock one center treatment
   AEXX    =    0.0000 exact exchange contribution

 Linear response parameters
   LEPSILON=     F    determine dielectric tensor
   LRPA    =     F    only Hartree local field effects (RPA)
   LNABLA  =     F    use nabla operator in PAW spheres
   LVEL    =     F    velocity operator in full k-point grid
   LINTERFAST=   F  fast interpolation
   KINTER  =     0    interpolate to denser k-point grid
   CSHIFT  =0.1000    complex shift for real part using Kramers Kronig
   OMEGAMAX=  -1.0    maximum frequency
   DEG_THRESHOLD= 0.2000000E-02 threshold for treating states as degnerate
   RTIME   =   -0.100 relaxation time in fs
  (WPLASMAI=    0.000 imaginary part of plasma frequency in eV, 0.658/RTIME)
   DFIELD  = 0.0000000 0.0000000 0.0000000 field for delta impulse in time
 
 Orbital magnetization related:
   ORBITALMAG=     F  switch on orbital magnetization
   LCHIMAG   =     F  perturbation theory with respect to B field
   DQ        =  0.001000  dq finite difference perturbation B field
   LLRAUG    =     F  two centre corrections for induced B field



--------------------------------------------------------------------------------------------------------


 Static calculation
 charge density and potential will be updated during run
 non-spin polarized calculation
 Variant of blocked Davidson
 Davidson routine will perform the subspace rotation
 perform sub-space diagonalisation
    after iterative eigenvector-optimisation
 modified Broyden-mixing scheme, WC =      100.0
 initial mixing is a Kerker type mixing with AMIX =  0.4000 and BMIX =      0.0100
 Hartree-type preconditioning will be used
 using additional bands           165
 real space projection scheme for non local part
[...]
     13.54561      0.00000     45.35368         0.003386     -0.005880      0.012640
     13.54315      9.03140     45.35368        -0.004125      0.008902     -0.001448
     12.96832      7.91228     33.86853        -0.010841      0.091030     -0.104180
     13.27687      8.96256     32.46255         0.122048     -0.193350      0.236984
     11.82227      9.99916     35.02161         0.136773     -0.143994      0.009954
     12.77279     11.48641     34.88066         0.017462      0.152734      0.139754
     15.28672      9.07571     35.73483        -0.089402      0.096456     -0.071592
     14.15142     10.32163     36.33466         0.071076     -0.072642     -0.086650
     15.64263     10.11286     33.21144         0.089305     -0.072850     -0.028092
     14.33272     11.29064     32.93171        -0.018887     -0.014841     -0.296119
     15.65760      8.38391     32.42110        -0.030534     -0.038724      0.063100
     15.60606      7.66151     34.02222         0.010675      0.031452      0.123679
     15.74827      5.91352     32.43952        -0.049353     -0.022098     -0.115812
     14.15709      5.82618     33.16604        -0.071035     -0.064529     -0.003484
     11.53052      9.94017     32.53872        -0.140204     -0.078290     -0.082537
     12.44807     11.46411     32.39436         0.112044      0.104673     -0.135823
     10.93979     11.42102     33.27967        -0.090683      0.030064      0.075064
     13.59112      8.20082     37.38324         0.074192      0.032907     -0.011364
     13.51112      7.32583     35.85559         0.041420      0.133268      0.019774
     12.26466      8.52330     36.28543         0.292858      0.073440     -0.108318
     14.86325     12.41614     35.09244        -0.041080     -0.071585      0.066134
     16.21575     12.31958     33.98566         0.059409      0.017029      0.034013
     16.19122     11.21762     35.37031        -0.014019      0.034687      0.047340
     14.75957      6.97175     30.37769         0.393778      0.273318     -0.310173
     14.15555      5.37851     30.74850        -0.116705     -0.312769     -0.233718
     11.96640      5.75220     32.62088        -0.049140      0.016359     -0.073598
     13.17152      8.32418     29.37416         0.248179      0.023034     -0.102610
      9.69624      6.78251     32.58628         0.129421      0.052555     -0.148403
     10.90858      9.33879     29.32280         0.033057      0.118184     -0.174025
      9.17695      8.55063     30.93803        -0.649316      0.371315     -0.045508
     17.92769      4.40287     34.73694        -0.306774     -0.048481      0.643293
      0.63653     13.93458     35.15094        -0.150875     -0.064275      0.312223
      8.52891      4.13960     34.84431        -0.077206      0.487559      0.282268
      8.98350     13.67618     34.80213        -0.144569      0.693583      0.055804
      4.28512      9.42681     34.94658         0.023117     -0.491180      0.171015
      4.56647     17.83973     34.70459         0.548832      0.164798      0.221872
     13.83710     17.70637     35.22495        -0.633917      0.101120      0.020159
      0.13360      4.45548     40.61247        -0.913547      1.042108     -0.620528
      0.17860     13.76848     40.76825        -0.763913      0.890930     -0.254714
      8.96943      4.39323     40.55017        -1.119356      0.773640     -0.286984
      8.99044     13.63330     40.63471        -0.632114      0.655133     -0.052416
      4.51738      8.97046     40.60566        -0.091655     -0.132606      0.103344
      4.60512      0.00056     40.49259         0.679199      0.677337     -0.017001
     13.54986      9.39084     40.74588         0.605769     -0.268669      0.523971
     13.50839     17.97286     40.55386         0.839979      0.950345     -0.006101
      9.02897      4.51561     46.44552         0.005554      0.008380      0.028718
      9.02651     13.54701     46.44552         0.027779     -0.013067      0.050222
     18.05937      4.51561     46.44552         0.019584     -0.001623      0.040139
     18.05691     13.54701     46.44552         0.020062     -0.002519      0.016069
      4.51521      0.00002     46.44421        -0.005673     -0.007790      0.061019
      4.51275      9.03142     46.44421        -0.003589     -0.002568      0.049133
     13.54561      0.00002     46.44421        -0.004805     -0.007614      0.041285
     13.54315      9.03142     46.44421        -0.000401      0.006107      0.025435
     12.73505      6.97027     31.00373        -0.084347     -0.022190     -0.070220
     11.73165      6.52448     31.88064        -0.157500      0.158650      0.042399
     12.41841      7.97182     30.07189        -0.336111      0.106782      0.144862
     10.45635      7.10530     31.86457         0.078552      0.034748     -0.235978
     11.14426      8.55223     30.03212        -0.323830     -0.477401      0.556732
     10.15454      8.11730     30.93530         0.989349     -0.444871      0.071151
     13.70886      8.57145     33.39730         0.253297     -0.089889     -0.140809
     12.51823     10.55047     34.37990        -0.044788     -0.179416      0.025188
     14.23380      9.39822     35.74319        -0.261135     -0.217670     -0.273400
     14.88432     10.73293     33.68663        -0.058927     -0.004054      0.382778
     15.01937      7.80120     33.10546        -0.335274      0.253698     -0.029236
     14.77005      6.42171     32.48072         0.070211      0.360833     -0.013577
     11.84359     10.84576     33.06021         0.064800     -0.099839     -0.023271
     13.34805      8.31154     36.32008        -0.281728     -0.073069      0.094884
     15.56067     11.71105     34.62438         0.027883     -0.037032     -0.086581
     14.13927      6.42027     31.07513        -0.150926     -0.160900      0.567813
      1.00789      4.31534     35.38891        -0.812975      0.095041      0.067001
      0.90272     12.82557     35.80290        -0.157745      0.297570     -0.398777
      9.78545      3.87280     35.10587        -0.137194     -0.208604     -0.132034
      8.79599     12.68400     35.63749        -0.148521     -0.237480     -0.102622
      7.92055      5.25016     35.22950         0.097683     -0.435406     -0.175129
      8.64304     14.93127     35.03581         0.186458     -0.185387     -0.415494
     16.72815      4.43110     35.29363         0.580536     -0.112575     -0.013783
     17.67696     14.72966     35.38400        -0.337431     -0.004194      0.233197
      4.36496      8.19851     35.43645         0.855147      0.818533      0.156228
      3.33748      0.06950     35.02974         0.023408      0.800321      0.477700
     12.52478     17.74974     35.39061         0.682617      0.665110      0.343124
      5.63847      0.41814     35.15597        -1.222494      0.155799      0.212249
      5.11416     10.40431     35.23711         0.405553     -0.407536      0.440729
     14.66861      0.58430     35.60567        -0.546633      0.621400      0.376513
      0.99209      3.58686     41.04052         0.763729     -0.744174      0.222394
      0.88924     12.80933     41.27191         0.817171     -1.006740      0.349598
      9.95419      3.74435     41.08971         0.825172     -0.867580     -0.191504
      9.70431     12.81226     41.35286         0.235449     -0.346619      0.488812
      3.75633      8.00966     41.08173         0.121425      0.115498     -0.054984
      3.74954     17.30492     41.13032        -0.300099     -0.324690     -0.210196
     12.71946      8.56072     41.34790         0.229374      0.129074     -0.035797
     12.71260     17.13977     41.16498        -0.177552     -0.247222     -0.174022
      8.23771      5.32733     41.14565         0.287926     -0.574775     -0.785471
      8.11170     14.50697     41.10216         0.457768     -0.438522     -0.582108
     17.32284      5.11792     41.34591         0.168938     -0.134783      0.141379
     17.13105     14.26181     41.28077        -0.188773     -0.338010      0.508749
      5.46027      0.84930     41.05260        -0.440443     -0.522346     -0.906747
      5.24893      9.79764     41.32231         0.066775      0.153549     -0.399476
     14.26655      0.84212     41.13994        -0.503131     -0.690729     -0.737912
     14.85939      9.42344     40.95844        -1.127590     -0.070147     -0.163943
      0.82731      3.68697     47.03596         0.015993     -0.021156     -0.095515
      0.82485     12.71837     47.03596         0.019453     -0.019596     -0.075549
      9.85771      3.68697     47.03596         0.025369     -0.028681     -0.083486
      9.85525     12.71837     47.03596         0.008211     -0.008446     -0.084344
      3.68432      8.20234     47.03465        -0.007457     -0.010881     -0.071238
      3.68186     17.23373     47.03465        -0.004946     -0.001980     -0.068580
     12.71472      8.20234     47.03465        -0.012746     -0.020205     -0.068246
     12.71226     17.23373     47.03465        -0.011650     -0.006649     -0.073097
      8.20068      5.34457     47.03603        -0.018791      0.014113     -0.089408
      8.19822     14.37597     47.03603        -0.027613      0.028628     -0.091130
     17.23108      5.34457     47.03603        -0.029547      0.023326     -0.107743
     17.22862     14.37597     47.03603        -0.024273      0.025950     -0.074097
      5.34365      0.82909     47.03465         0.011357      0.011472     -0.067017
      5.34119      9.86049     47.03465         0.013310      0.012948     -0.072214
     14.37405      0.82909     47.03465         0.015306      0.016620     -0.071114
     14.37159      9.86049     47.03465         0.012192      0.010062     -0.070478
     13.84618      9.77715     34.30573         0.202991      0.498490      0.060789
      9.10950      0.32582     34.54704         0.041060     -0.011228     -0.049053
      8.71301      9.26017     34.70657        -0.011776     -0.051212     -0.109743
     17.97135      0.09647     34.48733        -0.025112     -0.002425      0.006241
      0.61841      9.14751     34.62583        -0.180411     -0.013470      0.022167
      4.47044      4.49224     34.60403         0.006278     -0.026735     -0.124032
      4.38317     13.81499     34.53598         0.014352      0.015077     -0.043653
     13.34297      3.83084     34.77386        -0.080754     -0.061055      0.014161
     12.71374     14.32856     34.43444        -0.008436     -0.039944      0.148528
      0.06669     17.99319     40.90051        -0.008473     -0.007605      0.004516
      0.25883      8.88843     40.97215         0.024368      0.012408     -0.056083
      9.07272      0.01722     40.92075        -0.003888      0.044012     -0.038306
      9.08042      8.92648     40.94214         0.051224      0.009728      0.030742
      4.65109      4.43602     40.90369        -0.045312     -0.014752      0.080306
      4.52951     13.60516     40.90749        -0.026876      0.048241     -0.016050
     13.49750      4.70695     40.95201        -0.035410      0.027761      0.059971
     13.53455     13.42577     40.86788        -0.032974      0.054798     -0.090174
      2.49918      2.07533     37.93934        -0.052419     -0.020021     -0.006855
      2.65500     11.05507     38.16765        -0.015604     -0.063111      0.018640
     11.62831      2.02172     38.13625        -0.033434     -0.018041     -0.001720
     11.25483     11.29907     38.32723         0.086695     -0.003934     -0.266208
      6.50699      7.07510     38.07220         0.013735     -0.040412      0.014942
      6.75815     15.92828     37.85926        -0.048367      0.029575      0.102565
     15.99141      6.68922     38.26987         0.038083      0.054025     -0.122166
     15.67131     15.92195     38.11449        -0.064867     -0.025168     -0.054632
      2.11032      6.56716     38.04646         0.078258     -0.056924      0.000624
      2.16361     15.81185     38.00416         0.064188      0.001954     -0.000928
     10.67781      6.24708     37.74835        -0.025181     -0.008034     -0.003345
     11.04982     15.61589     38.10809         0.041634     -0.006680      0.102924
      6.91024      2.40357     37.91179         0.078136     -0.053109     -0.005335
      6.86304     11.45758     38.32188         0.029080     -0.039656     -0.060551
     16.03938      2.57733     38.34417        -0.033124     -0.088442     -0.071715
     16.44579     11.72834     38.54790        -0.157701     -0.035916     -0.458758
      0.00000      0.00000     47.17356        -0.000301      0.006072      0.372484
     -0.00246      9.03140     47.17356        -0.001898     -0.007493      0.498937
      9.03040      0.00000     47.17356         0.002034     -0.000366      0.394899
      9.02794      9.03140     47.17356        -0.001143     -0.002725      0.465691
      4.51398      4.51570     47.17425         0.000002     -0.004554      0.404778
      4.51152     13.54710     47.17425         0.004957      0.001235      0.427299
     13.54438      4.51570     47.17425         0.004879      0.002191      0.422666
     13.54192     13.54710     47.17425        -0.001332     -0.000493      0.400036
      2.45192      2.06295     44.04013         0.001856     -0.009357     -0.042825
      2.44946     11.09435     44.04013         0.033744     -0.032671      0.025700
     11.48232      2.06295     44.04013         0.046188      0.012852     -0.057990
     11.47986     11.09435     44.04013        -0.052493      0.023732      0.035711
      6.57602      6.96845     44.04013        -0.023838      0.007949     -0.031175
      6.57356     15.99985     44.04013         0.003510      0.032817     -0.008352
     15.60642      6.96845     44.04013        -0.043846      0.029282     -0.072895
     15.60396     15.99985     44.04013        -0.057027      0.053344      0.002285
      2.06108      6.57881     44.04000         0.060346     -0.060548      0.007971
      2.05862     15.61021     44.04000         0.038972      0.058737     -0.012904
     11.09148      6.57881     44.04000        -0.023208     -0.066488     -0.023105
     11.08902     15.61021     44.04000        -0.024722      0.006859     -0.009677
      6.96686      2.45259     44.04007        -0.006949     -0.036773     -0.013048
      6.96440     11.48399     44.04007         0.035791      0.022888     -0.017089
     15.99726      2.45259     44.04007        -0.002582      0.024300     -0.058938
     15.99481     11.48399     44.04007         0.055418      0.041458     -0.091155
      2.43163      2.08322     50.06849         0.006227     -0.013717      0.020445
      2.42917     11.11462     50.06849         0.015926     -0.006009      0.023641
     11.46203      2.08322     50.06849         0.008394     -0.013315      0.021108
     11.45957     11.11462     50.06849         0.014258     -0.006054      0.022924
      6.59631      6.94818     50.06849        -0.016217      0.003020      0.022559
      6.59385     15.97958     50.06849        -0.004284      0.016261      0.021767
     15.62671      6.94818     50.06849        -0.016656      0.000575      0.020059
     15.62425     15.97958     50.06849        -0.006290      0.016734      0.023694
      2.08113      6.59901     50.06905        -0.002409     -0.020059      0.022120
      2.07867     15.63041     50.06905        -0.015845     -0.002540      0.023081
     11.11153      6.59901     50.06905        -0.004620     -0.016599      0.022507
     11.10907     15.63041     50.06905        -0.013198     -0.006417      0.022207
      6.94681      2.43239     50.06905         0.013027      0.006504      0.022272
      6.94435     11.46379     50.06905         0.007787      0.012702      0.023140
     15.97721      2.43239     50.06905         0.014154      0.006320      0.021155
     15.97475     11.46379     50.06905         0.003280      0.015748      0.023824
     17.99681      0.06573     37.81398        -0.029585      0.015535      0.014007
      0.09776      9.16162     37.75707         0.049231     -0.045009      0.060073
      9.09547      0.11302     37.81577        -0.029649      0.045452     -0.072410
      8.99219      9.09147     37.77359         0.046100     -0.076386      0.096351
      4.50747      4.55886     37.79110        -0.019565      0.126223      0.017121
      4.45086     13.64458     37.71944        -0.002130     -0.006370      0.049587
     13.49426      4.66618     37.85157        -0.028025     -0.004096      0.005293
     13.33707     13.66533     37.60456         0.065131      0.030631      0.120365
      0.00001      0.00001     44.04300        -0.020208     -0.117597      0.150335
     -0.00245      9.03141     44.04300         0.080247      0.057908      0.126175
      9.03041      0.00001     44.04300        -0.017661      0.026847      0.187812
      9.02795      9.03141     44.04300         0.020647      0.047333      0.201633
      4.51397      4.51569     44.04275         0.026469      0.032253      0.130562
      4.51151     13.54709     44.04275        -0.090571      0.002259      0.097598
     13.54437      4.51569     44.04275        -0.032420     -0.030218      0.227235
     13.54191     13.54709     44.04275        -0.023469     -0.043825      0.005847
      0.00000      0.00000     50.44728         0.000460     -0.005456     -0.618353
     -0.00246      9.03140     50.44728         0.001541      0.004365     -0.651576
      9.03040      0.00000     50.44728        -0.001404     -0.002750     -0.622875
      9.02794      9.03140     50.44728        -0.000232      0.002384     -0.645074
      4.51397      4.51570     50.44728         0.000203      0.011643     -0.626806
      4.51151     13.54710     50.44728        -0.000882     -0.012625     -0.635295
     13.54437      4.51570     50.44728        -0.001251      0.011870     -0.628155
     13.54191     13.54710     50.44728         0.002457     -0.012329     -0.629430
 -----------------------------------------------------------------------------------
    total drift:                               -0.031925      0.113069      0.350988


--------------------------------------------------------------------------------------------------------



  FREE ENERGIE OF THE ION-ELECTRON SYSTEM (eV)
  ---------------------------------------------------
  free  energy   TOTEN  =     -1574.95525040 eV

  energy  without entropy=    -1574.95525040  energy(sigma->0) =    -1574.95525040
 


--------------------------------------------------------------------------------------------------------


    POTLOK:  cpu time    0.5009: real time    0.5010


--------------------------------------------------------------------------------------------------------


     LOOP+:  cpu time  303.3474: real time  303.9870
 vacuum level on the upper side and lower side of the slab         2.352         1.515
    4ORBIT:  cpu time    0.0000: real time    0.0000

 total amount of memory used by VASP MPI-rank0  8653569. kBytes
=======================================================================

   base      :      30000. kBytes
   nonlr-proj:      53607. kBytes
   fftplans  :     249280. kBytes
   grid      :     701440. kBytes
   one-center:       2636. kBytes
   wavefun   :    7616606. kBytes
 
  
  
 General timing and accounting informations for this job:
 ========================================================
  
                  Total CPU time used (sec):      515.698
                            User time (sec):      416.502
                          System time (sec):       99.195
                         Elapsed time (sec):      517.615
  
                   Maximum memory used (kb):    10304248.
                   Average memory used (kb):          N/A
  
                          Minor page faults:      3704750
                          Major page faults:           14
                 Voluntary context switches:        11242
