<?xml version="1.0" encoding="ISO-8859-1"?>
<modeling>
 <generator>
  <i name="program" type="string">vasp </i>
  <i name="version" type="string">6.2.1  </i>
  <i name="subversion" type="string">16May21 (build Nov 15 2021 14:57:28) complex                          parallel </i>
  <i name="platform" type="string">LinuxPGI </i>
  <i name="date" type="string">2023 07 30 </i>
  <i name="time" type="string">19:36:48 </i>
 </generator>
 <incar>
  <i type="string" name="SYSTEM">PSC</i>
  <i type="int" name="ISTART">     1</i>
  <i type="string" name="PREC">Normal</i>
  <i name="BMIX">      0.01000000</i>
  <i name="AMIN">      0.01000000</i>
  <i type="int" name="ICHARG">     1</i>
  <i type="int" name="NELM">   600</i>
  <i type="int" name="ISYM">     0</i>
  <i name="ENCUT">    500.00000000</i>
  <i type="string" name="LREAL">Auto</i>
  <i type="int" name="ISMEAR">     0</i>
  <i name="SIGMA">      0.05000000</i>
  <i type="logical" name="LWAVE"> F  </i>
  <i type="logical" name="LVTOT"> T  </i>
  <i type="logical" name="GGA_COMPAT"> F  </i>
  <i type="logical" name="LDIPOL"> T  </i>
  <i type="int" name="IDIPOL">     3</i>
  <i type="int" name="IVDW">    12</i>
 </incar>
 <primitive_cell>
  <structure name="primitive_cell" >
   <crystal>
    <varray name="basis" >
     <v>      18.06080055       0.00000000       0.00000000 </v>
     <v>      -0.00491865      18.06279945       0.00000000 </v>
     <v>       0.00000000       0.00000000      62.48749924 </v>
    </varray>
    <i name="volume">  20385.21054034 </i>
    <varray name="rec_basis" >
     <v>       0.05536853       0.00001508      -0.00000000 </v>
     <v>       0.00000000       0.05536240       0.00000000 </v>
     <v>       0.00000000      -0.00000000       0.01600320 </v>
    </varray>
   </crystal>
   <varray name="positions" >
    <v>       0.46384877       0.32720019       0.57401428 </v>
    <v>       0.45059106       0.84098393       0.57441317 </v>
    <v>       0.91960626       0.24150052       0.58113796 </v>
    <v>       0.94204845       0.80859333       0.57877989 </v>
    <v>       0.30827057       0.06556444       0.57374226 </v>
    <v>       0.32479684       0.57151264       0.57537772 </v>
    <v>       0.79388702       0.08051365       0.57734442 </v>
    <v>       0.10534526       0.24455550       0.55870519 </v>
    <v>       0.09409786       0.67836173       0.56855079 </v>
    <v>       0.56363709       0.16538768       0.55692969 </v>
    <v>       0.49362192       0.64877849       0.56468796 </v>
    <v>       0.36372671       0.00557205       0.55873041 </v>
    <v>       0.27425345       0.62778739       0.55791964 </v>
    <v>       0.86732558       0.02648709       0.56673500 </v>
    <v>       0.05751993       0.23566912       0.58265841 </v>
    <v>       0.01931912       0.69330870       0.58575601 </v>
    <v>       0.57244443       0.24632399       0.57193635 </v>
    <v>       0.46086344       0.70692096       0.58490575 </v>
    <v>       0.28391752       0.43898426       0.57773555 </v>
    <v>       0.17171886       0.04662859       0.57125940 </v>
    <v>       0.66950717       0.02529833       0.57499257 </v>
    <v>       0.38274850       0.29505136       0.56097249 </v>
    <v>       0.49324329       0.86914517       0.55041551 </v>
    <v>       0.87856927       0.23850330       0.55603303 </v>
    <v>       0.97949117       0.86771277       0.55962927 </v>
    <v>       0.20437487       0.41502970       0.56297912 </v>
    <v>       0.14079374       0.97703422       0.55415668 </v>
    <v>       0.66481434       0.93621851       0.56282107 </v>
    <v>       0.44102802       0.18815734       0.54846694 </v>
    <v>       0.52377277       0.74522025       0.54159410 </v>
    <v>       0.99495483       0.24700890       0.53869075 </v>
    <v>       0.07320770       0.78804748       0.54987793 </v>
    <v>       0.19142188       0.53318388       0.54827263 </v>
    <v>       0.26197048       0.94065507       0.54461809 </v>
    <v>       0.78760586       0.93115688       0.55553073 </v>
    <v>       0.46480203       0.31112300       0.67375274 </v>
    <v>       0.43770808       0.80950779       0.67363467 </v>
    <v>       0.95403617       0.27828320       0.67784035 </v>
    <v>       0.92287791       0.76928465       0.67419973 </v>
    <v>       0.30662745       0.05459411       0.67303849 </v>
    <v>       0.29333225       0.54190918       0.67757724 </v>
    <v>       0.79057365       0.05489939       0.67445320 </v>
    <v>       0.84858028       0.48897600       0.66639458 </v>
    <v>       0.08950275       0.17353730       0.64588376 </v>
    <v>       0.09757680       0.69347106       0.65278358 </v>
    <v>       0.57823856       0.16758829       0.64864964 </v>
    <v>       0.57350359       0.67453310       0.65428797 </v>
    <v>       0.17925224       0.41111272       0.64681608 </v>
    <v>       0.17419636       0.92374241       0.64938843 </v>
    <v>       0.64838151       0.48125687       0.65943329 </v>
    <v>       0.67420572       0.91220871       0.64971790 </v>
    <v>       0.06058790       0.18358991       0.67259443 </v>
    <v>       0.03604586       0.68106244       0.67434246 </v>
    <v>       0.57032152       0.21394693       0.67272855 </v>
    <v>       0.53519860       0.70505572       0.67812758 </v>
    <v>       0.20078918       0.43337743       0.67347717 </v>
    <v>       0.20285561       0.95675426       0.67443574 </v>
    <v>       0.72191749       0.43500706       0.67262330 </v>
    <v>       0.69759520       0.94688836       0.67495067 </v>
    <v>       0.41377289       0.31904730       0.65013241 </v>
    <v>       0.42175890       0.83547523       0.64690399 </v>
    <v>       0.92500526       0.32028296       0.65441006 </v>
    <v>       0.92168221       0.83055818       0.65270355 </v>
    <v>       0.33637854       0.07692527       0.64699543 </v>
    <v>       0.32081604       0.58211342       0.65333001 </v>
    <v>       0.82293832       0.07917179       0.64884120 </v>
    <v>       0.85514835       0.55718234       0.64703066 </v>
    <v>       0.00606842       0.26032602       0.63268264 </v>
    <v>       0.02935386       0.78880069       0.63766117 </v>
    <v>       0.48140999       0.22860405       0.63234101 </v>
    <v>       0.50606831       0.75315031       0.63294142 </v>
    <v>       0.25522912       0.99634655       0.63045032 </v>
    <v>       0.25153442       0.50354711       0.63242086 </v>
    <v>       0.75169456       0.99152660       0.63146315 </v>
    <v>       0.72610256       0.55896595       0.64064352 </v>
    <v>       0.44874502       0.30128397       0.76888902 </v>
    <v>       0.44874501       0.80128391       0.76888902 </v>
    <v>       0.94874497       0.30128397       0.76888902 </v>
    <v>       0.94874501       0.80128391       0.76888902 </v>
    <v>       0.30127600       0.05129450       0.76887296 </v>
    <v>       0.30127601       0.55129450       0.76887296 </v>
    <v>       0.80127594       0.05129450       0.76887296 </v>
    <v>       0.80127598       0.55129450       0.76887296 </v>
    <v>       0.07877100       0.17118050       0.74344197 </v>
    <v>       0.07877101       0.67118045       0.74344197 </v>
    <v>       0.57877100       0.17118050       0.74344197 </v>
    <v>       0.57877099       0.67118045       0.74344197 </v>
    <v>       0.17119950       0.42117448       0.74342103 </v>
    <v>       0.17119950       0.92117451       0.74342103 </v>
    <v>       0.67119951       0.42117448       0.74342103 </v>
    <v>       0.67119950       0.92117451       0.74342103 </v>
    <v>       0.05125600       0.19871499       0.76888902 </v>
    <v>       0.05125600       0.69871493       0.76888902 </v>
    <v>       0.55125603       0.19871499       0.76888902 </v>
    <v>       0.55125602       0.69871493       0.76888902 </v>
    <v>       0.19872349       0.44870397       0.76887205 </v>
    <v>       0.19872349       0.94870397       0.76887205 </v>
    <v>       0.69872352       0.44870397       0.76887205 </v>
    <v>       0.69872351       0.94870397       0.76887205 </v>
    <v>       0.42123152       0.32881747       0.74344197 </v>
    <v>       0.42123151       0.82881744       0.74344197 </v>
    <v>       0.92123147       0.32881747       0.74344197 </v>
    <v>       0.92123151       0.82881744       0.74344197 </v>
    <v>       0.32880050       0.07882500       0.74342103 </v>
    <v>       0.32880049       0.57882496       0.74342103 </v>
    <v>       0.82880048       0.07882500       0.74342103 </v>
    <v>       0.82880052       0.57882496       0.74342103 </v>
    <v>       0.00000350       0.25000148       0.72582199 </v>
    <v>       0.00000350       0.75000145       0.72582199 </v>
    <v>       0.50000351       0.25000148       0.72582199 </v>
    <v>       0.50000350       0.75000145       0.72582199 </v>
    <v>       0.25000050       0.00000000       0.72580398 </v>
    <v>       0.25000052       0.50000000       0.72580398 </v>
    <v>       0.75000050       0.00000000       0.72580398 </v>
    <v>       0.75000049       0.50000000       0.72580398 </v>
    <v>       0.71815639       0.43804269       0.54200489 </v>
    <v>       0.73525565       0.49618885       0.51950466 </v>
    <v>       0.65473230       0.55357731       0.56045792 </v>
    <v>       0.70738370       0.63591517       0.55820228 </v>
    <v>       0.84654025       0.50245288       0.57187158 </v>
    <v>       0.78369905       0.57143001       0.58147079 </v>
    <v>       0.86626211       0.55987201       0.53148930 </v>
    <v>       0.79375198       0.62507712       0.52701270 </v>
    <v>       0.86706448       0.46415332       0.51884138 </v>
    <v>       0.86419998       0.42415985       0.54446449 </v>
    <v>       0.87204758       0.32738673       0.51913618 </v>
    <v>       0.78394524       0.32255151       0.53076284 </v>
    <v>       0.63857796       0.55031193       0.52072360 </v>
    <v>       0.68940418       0.63468071       0.51841338 </v>
    <v>       0.60589218       0.63229499       0.53258132 </v>
    <v>       0.75264404       0.45401700       0.59825143 </v>
    <v>       0.74820110       0.40557545       0.57380422 </v>
    <v>       0.67920487       0.47187023       0.58068304 </v>
    <v>       0.82314351       0.68738713       0.56159133 </v>
    <v>       0.89802810       0.68204162       0.54387941 </v>
    <v>       0.89665338       0.62103440       0.56603814 </v>
    <v>       0.81732083       0.38597299       0.48614023 </v>
    <v>       0.78385300       0.29776732       0.49207434 </v>
    <v>       0.66264852       0.31845576       0.52203844 </v>
    <v>       0.72941313       0.46084665       0.47008053 </v>
    <v>       0.53696875       0.37549578       0.52148474 </v>
    <v>       0.60413306       0.51701765       0.46925868 </v>
    <v>       0.50824324       0.47338362       0.49510757 </v>
    <v>       0.99269606       0.24375342       0.55590226 </v>
    <v>       0.03545372       0.77145200       0.56252749 </v>
    <v>       0.47229562       0.22917809       0.55762050 </v>
    <v>       0.49760927       0.75714630       0.55694550 </v>
    <v>       0.23740291       0.52189061       0.55925718 </v>
    <v>       0.25310787       0.98765060       0.55538446 </v>
    <v>       0.76640695       0.98026748       0.56371187 </v>
    <v>       0.00746454       0.24666585       0.64992949 </v>
    <v>       0.01009668       0.76225622       0.65242248 </v>
    <v>       0.49669019       0.24321998       0.64893259 </v>
    <v>       0.49799287       0.75477241       0.65028546 </v>
    <v>       0.25025585       0.49662617       0.64982058 </v>
    <v>       0.25497875       0.00003107       0.64801108 </v>
    <v>       0.75037722       0.51989956       0.65206456 </v>
    <v>       0.74821053       0.99502070       0.64899162 </v>
    <v>       0.49998898       0.24999498       0.74327702 </v>
    <v>       0.49998903       0.74999496       0.74327702 </v>
    <v>       0.99998898       0.24999498       0.74327702 </v>
    <v>       0.99998903       0.74999496       0.74327702 </v>
    <v>       0.25000050       0.00000100       0.74325596 </v>
    <v>       0.25000052       0.50000100       0.74325596 </v>
    <v>       0.75000050       0.00000100       0.74325596 </v>
    <v>       0.75000049       0.50000100       0.74325596 </v>
    <v>       0.70522585       0.38589096       0.49615893 </v>
    <v>       0.64966278       0.36121063       0.51019225 </v>
    <v>       0.68770917       0.44133922       0.48124652 </v>
    <v>       0.57905968       0.39336635       0.50993506 </v>
    <v>       0.61717043       0.47347211       0.48061010 </v>
    <v>       0.56236446       0.44939345       0.49506380 </v>
    <v>       0.75916854       0.47453630       0.53446371 </v>
    <v>       0.69327495       0.58409961       0.55018847 </v>
    <v>       0.78824645       0.52030821       0.57200540 </v>
    <v>       0.82428456       0.59420087       0.53909391 </v>
    <v>       0.83171829       0.43189308       0.52979334 </v>
    <v>       0.81789291       0.35552120       0.51979549 </v>
    <v>       0.65592575       0.60044758       0.52906926 </v>
    <v>       0.73918751       0.46014671       0.58123747 </v>
    <v>       0.86174817       0.64835188       0.55410094 </v>
    <v>       0.78296735       0.35544163       0.49730158 </v>
    <v>       0.05587060       0.23890747       0.56633587 </v>
    <v>       0.05017584       0.71005434       0.57296103 </v>
    <v>       0.54186444       0.21440742       0.56180628 </v>
    <v>       0.48721208       0.70221647       0.57031384 </v>
    <v>       0.43862850       0.29066160       0.56378470 </v>
    <v>       0.47877764       0.82663082       0.56068508 </v>
    <v>       0.92627977       0.24531616       0.56481103 </v>
    <v>       0.97896950       0.81546939       0.56625730 </v>
    <v>       0.24180520       0.45388928       0.56709658 </v>
    <v>       0.18479234       0.00384757       0.56058802 </v>
    <v>       0.69374612       0.98266824       0.56636297 </v>
    <v>       0.31220022       0.02314897       0.56260807 </v>
    <v>       0.28332022       0.57600736       0.56390649 </v>
    <v>       0.81218844       0.03234840       0.56980476 </v>
    <v>       0.05498471       0.19857702       0.65677962 </v>
    <v>       0.04942892       0.70915530       0.66048269 </v>
    <v>       0.55120530       0.20729624       0.65756689 </v>
    <v>       0.53750643       0.70931728       0.66177805 </v>
    <v>       0.20810344       0.44343386       0.65743911 </v>
    <v>       0.20786745       0.95804215       0.65821673 </v>
    <v>       0.70438692       0.47394180       0.66169875 </v>
    <v>       0.70413668       0.94889875       0.65877147 </v>
    <v>       0.45618996       0.29493401       0.65846202 </v>
    <v>       0.44935149       0.80314054       0.65776614 </v>
    <v>       0.95921722       0.28334017       0.66166689 </v>
    <v>       0.94873604       0.78956805       0.66062450 </v>
    <v>       0.30234001       0.04701937       0.65697308 </v>
    <v>       0.29077353       0.54242095       0.66128925 </v>
    <v>       0.78993057       0.04662188       0.65837076 </v>
    <v>       0.82288475       0.52170403       0.65546618 </v>
    <v>       0.04586250       0.20411950       0.75272599 </v>
    <v>       0.04586250       0.70411946       0.75272599 </v>
    <v>       0.54586251       0.20411950       0.75272599 </v>
    <v>       0.54586250       0.70411946       0.75272599 </v>
    <v>       0.20411900       0.45410100       0.75270499 </v>
    <v>       0.20411899       0.95410095       0.75270499 </v>
    <v>       0.70411898       0.45410100       0.75270499 </v>
    <v>       0.70411896       0.95410095       0.75270499 </v>
    <v>       0.45414002       0.29588849       0.75272697 </v>
    <v>       0.45414001       0.79588852       0.75272697 </v>
    <v>       0.95414002       0.29588849       0.75272697 </v>
    <v>       0.95414006       0.79588852       0.75272697 </v>
    <v>       0.29588249       0.04590050       0.75270499 </v>
    <v>       0.29588248       0.54590053       0.75270499 </v>
    <v>       0.79588244       0.04590050       0.75270499 </v>
    <v>       0.79588248       0.54590053       0.75270499 </v>
    <v>       0.76678980       0.54128638       0.54900141 </v>
    <v>       0.50438433       0.01803793       0.55286326 </v>
    <v>       0.48256607       0.51266501       0.55541620 </v>
    <v>       0.99504876       0.00534070       0.55190763 </v>
    <v>       0.03437862       0.50642791       0.55412408 </v>
    <v>       0.24758966       0.24870144       0.55377525 </v>
    <v>       0.24289799       0.76483080       0.55268623 </v>
    <v>       0.73883862       0.21208436       0.55649308 </v>
    <v>       0.70415732       0.79326363       0.55106133 </v>
    <v>       0.00396404       0.99614613       0.65453900 </v>
    <v>       0.01446501       0.49208473       0.65568547 </v>
    <v>       0.50234331       0.00095355       0.65486304 </v>
    <v>       0.50290434       0.49419141       0.65520533 </v>
    <v>       0.25759073       0.24558854       0.65458997 </v>
    <v>       0.25099734       0.75321440       0.65465077 </v>
    <v>       0.74740748       0.26058789       0.65536326 </v>
    <v>       0.74959083       0.74328289       0.65401692 </v>
    <v>       0.13840719       0.11489538       0.60715092 </v>
    <v>       0.14717004       0.61203514       0.61080460 </v>
    <v>       0.64387320       0.11192710       0.61030206 </v>
    <v>       0.62333394       0.62554349       0.61335834 </v>
    <v>       0.36038941       0.39169428       0.60927714 </v>
    <v>       0.37442919       0.88182771       0.60586929 </v>
    <v>       0.88552175       0.37033111       0.61244037 </v>
    <v>       0.86793724       0.88147755       0.60995379 </v>
    <v>       0.11694442       0.36357390       0.60886519 </v>
    <v>       0.12003433       0.87538200       0.60818817 </v>
    <v>       0.59130883       0.34585354       0.60409440 </v>
    <v>       0.61204785       0.86453334       0.60985147 </v>
    <v>       0.38264596       0.13306736       0.60671003 </v>
    <v>       0.38016919       0.63431910       0.61327269 </v>
    <v>       0.88811572       0.14268711       0.61362945 </v>
    <v>       0.91075603       0.64930921       0.61688974 </v>
    <v>       0.00000000       0.00000000       0.75492797 </v>
    <v>       0.00000000       0.50000000       0.75492797 </v>
    <v>       0.50000000       0.00000000       0.75492797 </v>
    <v>       0.49999999       0.50000000       0.75492797 </v>
    <v>       0.25000050       0.25000000       0.75493902 </v>
    <v>       0.25000051       0.74999997       0.75493902 </v>
    <v>       0.75000047       0.25000000       0.75493902 </v>
    <v>       0.75000046       0.74999997       0.75493902 </v>
    <v>       0.13579050       0.11421000       0.70478299 </v>
    <v>       0.13579050       0.61420998       0.70478299 </v>
    <v>       0.63579045       0.11421000       0.70478299 </v>
    <v>       0.63579049       0.61420998       0.70478299 </v>
    <v>       0.36420952       0.38578999       0.70478299 </v>
    <v>       0.36420950       0.88578996       0.70478299 </v>
    <v>       0.86420954       0.38578999       0.70478299 </v>
    <v>       0.86420953       0.88578996       0.70478299 </v>
    <v>       0.11421799       0.36421899       0.70478098 </v>
    <v>       0.11421799       0.86421899       0.70478098 </v>
    <v>       0.61421800       0.36421899       0.70478098 </v>
    <v>       0.61421799       0.86421899       0.70478098 </v>
    <v>       0.38578201       0.13578149       0.70478202 </v>
    <v>       0.38578200       0.63578149       0.70478202 </v>
    <v>       0.88578199       0.13578149       0.70478202 </v>
    <v>       0.88578203       0.63578149       0.70478202 </v>
    <v>       0.13466700       0.11533200       0.80125603 </v>
    <v>       0.13466699       0.61533199       0.80125603 </v>
    <v>       0.63466699       0.11533200       0.80125603 </v>
    <v>       0.63466698       0.61533199       0.80125603 </v>
    <v>       0.36533300       0.38466799       0.80125603 </v>
    <v>       0.36533299       0.88466796       0.80125603 </v>
    <v>       0.86533295       0.38466799       0.80125603 </v>
    <v>       0.86533294       0.88466796       0.80125603 </v>
    <v>       0.11532850       0.36533700       0.80126500 </v>
    <v>       0.11532850       0.86533698       0.80126500 </v>
    <v>       0.61532850       0.36533700       0.80126500 </v>
    <v>       0.61532849       0.86533698       0.80126500 </v>
    <v>       0.38467151       0.13466300       0.80126500 </v>
    <v>       0.38467150       0.63466297       0.80126500 </v>
    <v>       0.88467149       0.13466300       0.80126500 </v>
    <v>       0.88467153       0.63466297       0.80126500 </v>
    <v>       0.99645793       0.00363911       0.60514472 </v>
    <v>       0.00555123       0.50720953       0.60423401 </v>
    <v>       0.50360438       0.00625680       0.60517341 </v>
    <v>       0.49802140       0.50332562       0.60449835 </v>
    <v>       0.24964076       0.25238965       0.60477856 </v>
    <v>       0.24664328       0.75539701       0.60363172 </v>
    <v>       0.74722770       0.25833098       0.60574634 </v>
    <v>       0.73866020       0.75654536       0.60179340 </v>
    <v>       0.00000050       0.00000050       0.70482896 </v>
    <v>       0.00000050       0.50000048       0.70482896 </v>
    <v>       0.50000048       0.00000050       0.70482896 </v>
    <v>       0.50000046       0.50000048       0.70482896 </v>
    <v>       0.24999999       0.24999947       0.70482499 </v>
    <v>       0.25000001       0.74999950       0.70482499 </v>
    <v>       0.74999999       0.24999947       0.70482499 </v>
    <v>       0.74999998       0.74999950       0.70482499 </v>
    <v>       0.00000000       0.00000000       0.80731797 </v>
    <v>       0.00000000       0.50000000       0.80731797 </v>
    <v>       0.50000000       0.00000000       0.80731797 </v>
    <v>       0.49999999       0.50000000       0.80731797 </v>
    <v>       0.24999999       0.25000000       0.80731797 </v>
    <v>       0.25000001       0.74999997       0.80731797 </v>
    <v>       0.74999999       0.25000000       0.80731797 </v>
    <v>       0.74999998       0.74999997       0.80731797 </v>
   </varray>
  </structure>
  <varray name="primitive_index" >
   <v type="int" >        1 </v>
   <v type="int" >        2 </v>
   <v type="int" >        3 </v>
   <v type="int" >        4 </v>
   <v type="int" >        5 </v>
   <v type="int" >        6 </v>
   <v type="int" >        7 </v>
   <v type="int" >        8 </v>
   <v type="int" >        9 </v>
   <v type="int" >       10 </v>
   <v type="int" >       11 </v>
   <v type="int" >       12 </v>
   <v type="int" >       13 </v>
   <v type="int" >       14 </v>
   <v type="int" >       15 </v>
   <v type="int" >       16 </v>
   <v type="int" >       17 </v>
   <v type="int" >       18 </v>
   <v type="int" >       19 </v>
   <v type="int" >       20 </v>
   <v type="int" >       21 </v>
   <v type="int" >       22 </v>
   <v type="int" >       23 </v>
   <v type="int" >       24 </v>
   <v type="int" >       25 </v>
   <v type="int" >       26 </v>
   <v type="int" >       27 </v>
   <v type="int" >       28 </v>
   <v type="int" >       29 </v>
   <v type="int" >       30 </v>
   <v type="int" >       31 </v>
   <v type="int" >       32 </v>
   <v type="int" >       33 </v>
   <v type="int" >       34 </v>
   <v type="int" >       35 </v>
   <v type="int" >       36 </v>
   <v type="int" >       37 </v>
   <v type="int" >       38 </v>
   <v type="int" >       39 </v>
   <v type="int" >       40 </v>
   <v type="int" >       41 </v>
   <v type="int" >       42 </v>
   <v type="int" >       43 </v>
   <v type="int" >       44 </v>
   <v type="int" >       45 </v>
   <v type="int" >       46 </v>
   <v type="int" >       47 </v>
   <v type="int" >       48 </v>
   <v type="int" >       49 </v>
   <v type="int" >       50 </v>
   <v type="int" >       51 </v>
   <v type="int" >       52 </v>
   <v type="int" >       53 </v>
   <v type="int" >       54 </v>
   <v type="int" >       55 </v>
   <v type="int" >       56 </v>
   <v type="int" >       57 </v>
   <v type="int" >       58 </v>
   <v type="int" >       59 </v>
   <v type="int" >       60 </v>
   <v type="int" >       61 </v>
   <v type="int" >       62 </v>
   <v type="int" >       63 </v>
   <v type="int" >       64 </v>
   <v type="int" >       65 </v>
   <v type="int" >       66 </v>
   <v type="int" >       67 </v>
   <v type="int" >       68 </v>
   <v type="int" >       69 </v>
   <v type="int" >       70 </v>
   <v type="int" >       71 </v>
   <v type="int" >       72 </v>
   <v type="int" >       73 </v>
   <v type="int" >       74 </v>
   <v type="int" >       75 </v>
   <v type="int" >       76 </v>
   <v type="int" >       77 </v>
   <v type="int" >       78 </v>
   <v type="int" >       79 </v>
   <v type="int" >       80 </v>
   <v type="int" >       81 </v>
   <v type="int" >       82 </v>
   <v type="int" >       83 </v>
   <v type="int" >       84 </v>
   <v type="int" >       85 </v>
   <v type="int" >       86 </v>
   <v type="int" >       87 </v>
   <v type="int" >       88 </v>
   <v type="int" >       89 </v>
   <v type="int" >       90 </v>
   <v type="int" >       91 </v>
   <v type="int" >       92 </v>
   <v type="int" >       93 </v>
   <v type="int" >       94 </v>
   <v type="int" >       95 </v>
   <v type="int" >       96 </v>
   <v type="int" >       97 </v>
   <v type="int" >       98 </v>
   <v type="int" >       99 </v>
   <v type="int" >      100 </v>
   <v type="int" >      101 </v>
   <v type="int" >      102 </v>
   <v type="int" >      103 </v>
   <v type="int" >      104 </v>
   <v type="int" >      105 </v>
   <v type="int" >      106 </v>
   <v type="int" >      107 </v>
   <v type="int" >      108 </v>
   <v type="int" >      109 </v>
   <v type="int" >      110 </v>
   <v type="int" >      111 </v>
   <v type="int" >      112 </v>
   <v type="int" >      113 </v>
   <v type="int" >      114 </v>
   <v type="int" >      115 </v>
   <v type="int" >      116 </v>
   <v type="int" >      117 </v>
   <v type="int" >      118 </v>
   <v type="int" >      119 </v>
   <v type="int" >      120 </v>
   <v type="int" >      121 </v>
   <v type="int" >      122 </v>
   <v type="int" >      123 </v>
   <v type="int" >      124 </v>
   <v type="int" >      125 </v>
   <v type="int" >      126 </v>
   <v type="int" >      127 </v>
   <v type="int" >      128 </v>
   <v type="int" >      129 </v>
   <v type="int" >      130 </v>
   <v type="int" >      131 </v>
   <v type="int" >      132 </v>
   <v type="int" >      133 </v>
   <v type="int" >      134 </v>
   <v type="int" >      135 </v>
   <v type="int" >      136 </v>
   <v type="int" >      137 </v>
   <v type="int" >      138 </v>
   <v type="int" >      139 </v>
   <v type="int" >      140 </v>
   <v type="int" >      141 </v>
   <v type="int" >      142 </v>
   <v type="int" >      143 </v>
   <v type="int" >      144 </v>
   <v type="int" >      145 </v>
   <v type="int" >      146 </v>
   <v type="int" >      147 </v>
   <v type="int" >      148 </v>
   <v type="int" >      149 </v>
   <v type="int" >      150 </v>
   <v type="int" >      151 </v>
   <v type="int" >      152 </v>
   <v type="int" >      153 </v>
   <v type="int" >      154 </v>
   <v type="int" >      155 </v>
   <v type="int" >      156 </v>
   <v type="int" >      157 </v>
   <v type="int" >      158 </v>
   <v type="int" >      159 </v>
   <v type="int" >      160 </v>
   <v type="int" >      161 </v>
   <v type="int" >      162 </v>
   <v type="int" >      163 </v>
   <v type="int" >      164 </v>
   <v type="int" >      165 </v>
   <v type="int" >      166 </v>
   <v type="int" >      167 </v>
   <v type="int" >      168 </v>
   <v type="int" >      169 </v>
   <v type="int" >      170 </v>
   <v type="int" >      171 </v>
   <v type="int" >      172 </v>
   <v type="int" >      173 </v>
   <v type="int" >      174 </v>
   <v type="int" >      175 </v>
   <v type="int" >      176 </v>
   <v type="int" >      177 </v>
   <v type="int" >      178 </v>
   <v type="int" >      179 </v>
   <v type="int" >      180 </v>
   <v type="int" >      181 </v>
   <v type="int" >      182 </v>
   <v type="int" >      183 </v>
   <v type="int" >      184 </v>
   <v type="int" >      185 </v>
   <v type="int" >      186 </v>
   <v type="int" >      187 </v>
   <v type="int" >      188 </v>
   <v type="int" >      189 </v>
   <v type="int" >      190 </v>
   <v type="int" >      191 </v>
   <v type="int" >      192 </v>
   <v type="int" >      193 </v>
   <v type="int" >      194 </v>
   <v type="int" >      195 </v>
   <v type="int" >      196 </v>
   <v type="int" >      197 </v>
   <v type="int" >      198 </v>
   <v type="int" >      199 </v>
   <v type="int" >      200 </v>
   <v type="int" >      201 </v>
   <v type="int" >      202 </v>
   <v type="int" >      203 </v>
   <v type="int" >      204 </v>
   <v type="int" >      205 </v>
   <v type="int" >      206 </v>
   <v type="int" >      207 </v>
   <v type="int" >      208 </v>
   <v type="int" >      209 </v>
   <v type="int" >      210 </v>
   <v type="int" >      211 </v>
   <v type="int" >      212 </v>
   <v type="int" >      213 </v>
   <v type="int" >      214 </v>
   <v type="int" >      215 </v>
   <v type="int" >      216 </v>
   <v type="int" >      217 </v>
   <v type="int" >      218 </v>
   <v type="int" >      219 </v>
   <v type="int" >      220 </v>
   <v type="int" >      221 </v>
   <v type="int" >      222 </v>
   <v type="int" >      223 </v>
   <v type="int" >      224 </v>
   <v type="int" >      225 </v>
   <v type="int" >      226 </v>
   <v type="int" >      227 </v>
   <v type="int" >      228 </v>
   <v type="int" >      229 </v>
   <v type="int" >      230 </v>
   <v type="int" >      231 </v>
   <v type="int" >      232 </v>
   <v type="int" >      233 </v>
   <v type="int" >      234 </v>
   <v type="int" >      235 </v>
   <v type="int" >      236 </v>
   <v type="int" >      237 </v>
   <v type="int" >      238 </v>
   <v type="int" >      239 </v>
   <v type="int" >      240 </v>
   <v type="int" >      241 </v>
   <v type="int" >      242 </v>
   <v type="int" >      243 </v>
   <v type="int" >      244 </v>
   <v type="int" >      245 </v>
   <v type="int" >      246 </v>
   <v type="int" >      247 </v>
   <v type="int" >      248 </v>
   <v type="int" >      249 </v>
   <v type="int" >      250 </v>
   <v type="int" >      251 </v>
   <v type="int" >      252 </v>
   <v type="int" >      253 </v>
   <v type="int" >      254 </v>
   <v type="int" >      255 </v>
   <v type="int" >      256 </v>
   <v type="int" >      257 </v>
   <v type="int" >      258 </v>
   <v type="int" >      259 </v>
   <v type="int" >      260 </v>
   <v type="int" >      261 </v>
   <v type="int" >      262 </v>
   <v type="int" >      263 </v>
   <v type="int" >      264 </v>
   <v type="int" >      265 </v>
   <v type="int" >      266 </v>
   <v type="int" >      267 </v>
   <v type="int" >      268 </v>
   <v type="int" >      269 </v>
   <v type="int" >      270 </v>
   <v type="int" >      271 </v>
   <v type="int" >      272 </v>
   <v type="int" >      273 </v>
   <v type="int" >      274 </v>
   <v type="int" >      275 </v>
   <v type="int" >      276 </v>
   <v type="int" >      277 </v>
   <v type="int" >      278 </v>
   <v type="int" >      279 </v>
   <v type="int" >      280 </v>
   <v type="int" >      281 </v>
   <v type="int" >      282 </v>
   <v type="int" >      283 </v>
   <v type="int" >      284 </v>
   <v type="int" >      285 </v>
   <v type="int" >      286 </v>
   <v type="int" >      287 </v>
   <v type="int" >      288 </v>
   <v type="int" >      289 </v>
   <v type="int" >      290 </v>
   <v type="int" >      291 </v>
   <v type="int" >      292 </v>
   <v type="int" >      293 </v>
   <v type="int" >      294 </v>
   <v type="int" >      295 </v>
   <v type="int" >      296 </v>
   <v type="int" >      297 </v>
   <v type="int" >      298 </v>
   <v type="int" >      299 </v>
   <v type="int" >      300 </v>
   <v type="int" >      301 </v>
   <v type="int" >      302 </v>
   <v type="int" >      303 </v>
   <v type="int" >      304 </v>
   <v type="int" >      305 </v>
   <v type="int" >      306 </v>
   <v type="int" >      307 </v>
   <v type="int" >      308 </v>
   <v type="int" >      309 </v>
   <v type="int" >      310 </v>
   <v type="int" >      311 </v>
   <v type="int" >      312 </v>
   <v type="int" >      313 </v>
   <v type="int" >      314 </v>
   <v type="int" >      315 </v>
   <v type="int" >      316 </v>
   <v type="int" >      317 </v>
   <v type="int" >      318 </v>
   <v type="int" >      319 </v>
   <v type="int" >      320 </v>
   <v type="int" >      321 </v>
   <v type="int" >      322 </v>
   <v type="int" >      323 </v>
   <v type="int" >      324 </v>
   <v type="int" >      325 </v>
  </varray>
 </primitive_cell>
 <kpoints>
  <generation param="Gamma">
   <v type="int" name="divisions">       3        3        1 </v>
   <v name="usershift">      0.00000000       0.00000000       0.00000000 </v>
   <v name="genvec1">      0.33333333       0.00000000       0.00000000 </v>
   <v name="genvec2">      0.00000000       0.33333333       0.00000000 </v>
   <v name="genvec3">      0.00000000       0.00000000       1.00000000 </v>
   <v name="shift">      0.00000000       0.00000000       0.00000000 </v>
  </generation>
  <varray name="kpointlist" >
   <v>       0.00000000       0.00000000       0.00000000 </v>
   <v>       0.33333333       0.00000000       0.00000000 </v>
   <v>       0.00000000       0.33333333       0.00000000 </v>
   <v>       0.33333333       0.33333333       0.00000000 </v>
   <v>      -0.33333333       0.33333333       0.00000000 </v>
  </varray>
  <varray name="weights" >
   <v>       0.11111111 </v>
   <v>       0.22222222 </v>
   <v>       0.22222222 </v>
   <v>       0.22222222 </v>
   <v>       0.22222222 </v>
  </varray>
 </kpoints>
 <parameters>
  <separator name="general" >
   <i type="string" name="SYSTEM">PSC</i>
   <i type="logical" name="LCOMPAT"> F  </i>
  </separator>
  <separator name="electronic" >
   <i type="string" name="PREC">normal</i>
   <i name="ENMAX">    500.00000000</i>
   <i name="ENAUG">    644.87300000</i>
   <i name="EDIFF">      0.00010000</i>
   <i type="int" name="IALGO">    38</i>
   <i type="int" name="IWAVPR">    10</i>
   <i type="int" name="NBANDS">   732</i>
   <i type="int" name="NBANDSLOW">    -1</i>
   <i type="int" name="NBANDSHIGH">    -1</i>
   <i name="NELECT">   1134.00000000</i>
   <i type="int" name="TURBO">     0</i>
   <i type="int" name="IRESTART">     0</i>
   <i type="int" name="NREBOOT">     0</i>
   <i type="int" name="NMIN">     0</i>
   <i name="EREF">      0.00000000</i>
   <separator name="electronic smearing" >
    <i type="int" name="ISMEAR">     0</i>
    <i name="SIGMA">      0.05000000</i>
    <i name="KSPACING">      0.50000000</i>
    <i type="logical" name="KGAMMA"> T  </i>
    <i type="logical" name="KBLOWUP"> T  </i>
   </separator>
   <separator name="electronic projectors" >
    <i type="logical" name="LREAL"> T  </i>
    <v name="ROPT">     -0.00050000     -0.00050000     -0.00050000     -0.00050000     -0.00050000</v>
    <i type="int" name="LMAXPAW">  -100</i>
    <i type="int" name="LMAXMIX">     2</i>
    <i type="logical" name="NLSPLINE"> F  </i>
   </separator>
   <separator name="electronic startup" >
    <i type="int" name="ISTART">     0</i>
    <i type="int" name="ICHARG">     1</i>
    <i type="int" name="INIWAV">     1</i>
   </separator>
   <separator name="electronic spin" >
    <i type="int" name="ISPIN">     1</i>
    <i type="logical" name="LNONCOLLINEAR"> F  </i>
    <v name="MAGMOM">      1.00000000      1.00000000      1.00000000      1.00000000      1.00000000      1.00000000      1.00000000      1.00000000      1.00000000      1.00000000      1.00000000      1.00000000      1.00000000      1.00000000      1.00000000      1.00000000      1.00000000      1.00000000      1.00000000      1.00000000
      1.00000000      1.00000000      1.00000000      1.00000000      1.00000000      1.00000000      1.00000000      1.00000000      1.00000000      1.00000000      1.00000000      1.00000000      1.00000000      1.00000000      1.00000000      1.00000000      1.00000000      1.00000000      1.00000000      1.00000000
      1.00000000      1.00000000      1.00000000      1.00000000      1.00000000      1.00000000      1.00000000      1.00000000      1.00000000      1.00000000      1.00000000      1.00000000      1.00000000      1.00000000      1.00000000      1.00000000      1.00000000      1.00000000      1.00000000      1.00000000
      1.00000000      1.00000000      1.00000000      1.00000000      1.00000000      1.00000000      1.00000000      1.00000000      1.00000000      1.00000000      1.00000000      1.00000000      1.00000000      1.00000000      1.00000000      1.00000000      1.00000000      1.00000000      1.00000000      1.00000000
      1.00000000      1.00000000      1.00000000      1.00000000      1.00000000      1.00000000      1.00000000      1.00000000      1.00000000      1.00000000      1.00000000      1.00000000      1.00000000      1.00000000      1.00000000      1.00000000      1.00000000      1.00000000      1.00000000      1.00000000
      1.00000000      1.00000000      1.00000000      1.00000000      1.00000000      1.00000000      1.00000000      1.00000000      1.00000000      1.00000000      1.00000000      1.00000000      1.00000000      1.00000000      1.00000000      1.00000000      1.00000000      1.00000000      1.00000000      1.00000000
      1.00000000      1.00000000      1.00000000      1.00000000      1.00000000      1.00000000      1.00000000      1.00000000      1.00000000      1.00000000      1.00000000      1.00000000      1.00000000      1.00000000      1.00000000      1.00000000      1.00000000      1.00000000      1.00000000      1.00000000
      1.00000000      1.00000000      1.00000000      1.00000000      1.00000000      1.00000000      1.00000000      1.00000000      1.00000000      1.00000000      1.00000000      1.00000000      1.00000000      1.00000000      1.00000000      1.00000000      1.00000000      1.00000000      1.00000000      1.00000000
      1.00000000      1.00000000      1.00000000      1.00000000      1.00000000      1.00000000      1.00000000      1.00000000      1.00000000      1.00000000      1.00000000      1.00000000      1.00000000      1.00000000      1.00000000      1.00000000      1.00000000      1.00000000      1.00000000      1.00000000
      1.00000000      1.00000000      1.00000000      1.00000000      1.00000000      1.00000000      1.00000000      1.00000000      1.00000000      1.00000000      1.00000000      1.00000000      1.00000000      1.00000000      1.00000000      1.00000000      1.00000000      1.00000000      1.00000000      1.00000000
      1.00000000      1.00000000      1.00000000      1.00000000      1.00000000      1.00000000      1.00000000      1.00000000      1.00000000      1.00000000      1.00000000      1.00000000      1.00000000      1.00000000      1.00000000      1.00000000      1.00000000      1.00000000      1.00000000      1.00000000
      1.00000000      1.00000000      1.00000000      1.00000000      1.00000000      1.00000000      1.00000000      1.00000000      1.00000000      1.00000000      1.00000000      1.00000000      1.00000000      1.00000000      1.00000000      1.00000000      1.00000000      1.00000000      1.00000000      1.00000000
      1.00000000      1.00000000      1.00000000      1.00000000      1.00000000      1.00000000      1.00000000      1.00000000      1.00000000      1.00000000      1.00000000      1.00000000      1.00000000      1.00000000      1.00000000      1.00000000      1.00000000      1.00000000      1.00000000      1.00000000
      1.00000000      1.00000000      1.00000000      1.00000000      1.00000000      1.00000000      1.00000000      1.00000000      1.00000000      1.00000000      1.00000000      1.00000000      1.00000000      1.00000000      1.00000000      1.00000000      1.00000000      1.00000000      1.00000000      1.00000000
      1.00000000      1.00000000      1.00000000      1.00000000      1.00000000      1.00000000      1.00000000      1.00000000      1.00000000      1.00000000      1.00000000      1.00000000      1.00000000      1.00000000      1.00000000      1.00000000      1.00000000      1.00000000      1.00000000      1.00000000
      1.00000000      1.00000000      1.00000000      1.00000000      1.00000000      1.00000000      1.00000000      1.00000000      1.00000000      1.00000000      1.00000000      1.00000000      1.00000000      1.00000000      1.00000000      1.00000000      1.00000000      1.00000000      1.00000000      1.00000000
      1.00000000      1.00000000      1.00000000      1.00000000      1.00000000</v>
    <i name="NUPDOWN">     -1.00000000</i>
    <i type="logical" name="LSORBIT"> F  </i>
    <v name="SAXIS">      0.00000000      0.00000000      1.00000000</v>
    <i type="logical" name="LSPIRAL"> F  </i>
    <v name="QSPIRAL">      0.00000000      0.00000000      0.00000000</v>
    <i type="logical" name="LZEROZ"> F  </i>
   </separator>
   <separator name="electronic exchange-correlation" >
    <i type="logical" name="LASPH"> F  </i>
    <i type="logical" name="LMETAGGA"> F  </i>
   </separator>
   <separator name="electronic convergence" >
    <i type="int" name="NELM">   600</i>
    <i type="int" name="NELMDL">     0</i>
    <i type="int" name="NELMIN">     2</i>
    <i name="ENINI">    500.00000000</i>
    <separator name="electronic convergence detail" >
     <i type="logical" name="LDIAG"> T  </i>
     <i type="logical" name="LSUBROT"> F  </i>
     <i name="WEIMIN">      0.00000000</i>
     <i name="EBREAK">      0.00000003</i>
     <i name="DEPER">      0.30000000</i>
     <i type="int" name="NRMM">     4</i>
     <i name="TIME">      0.40000000</i>
    </separator>
   </separator>
   <separator name="electronic mixer" >
    <i name="AMIX">      0.40000000</i>
    <i name="BMIX">      0.01000000</i>
    <i name="AMIN">      0.01000000</i>
    <i name="AMIX_MAG">      1.60000000</i>
    <i name="BMIX_MAG">      0.01000000</i>
    <separator name="electronic mixer details" >
     <i type="int" name="IMIX">     4</i>
     <i type="logical" name="MIXFIRST"> F  </i>
     <i type="int" name="MAXMIX">   -45</i>
     <i name="WC">    100.00000000</i>
     <i type="int" name="INIMIX">     1</i>
     <i type="int" name="MIXPRE">     1</i>
     <i type="int" name="MREMOVE">     5</i>
    </separator>
   </separator>
   <separator name="electronic dipolcorrection" >
    <i type="logical" name="LDIPOL"> T  </i>
    <i type="logical" name="LMONO"> F  </i>
    <i type="int" name="IDIPOL">     3</i>
    <i name="EPSILON">      1.00000000</i>
    <v name="DIPOL">   -100.00000000   -100.00000000   -100.00000000</v>
    <i name="EFIELD">      0.00000000</i>
   </separator>
  </separator>
  <separator name="grids" >
   <i type="int" name="NGX">   100</i>
   <i type="int" name="NGY">   100</i>
   <i type="int" name="NGZ">   350</i>
   <i type="int" name="NGXF">   200</i>
   <i type="int" name="NGYF">   200</i>
   <i type="int" name="NGZF">   700</i>
   <i type="logical" name="ADDGRID"> F  </i>
  </separator>
  <separator name="ionic" >
   <i type="int" name="NSW">     0</i>
   <i type="int" name="IBRION">    -1</i>
   <i type="int" name="MDALGO">     0</i>
   <i type="int" name="ISIF">     2</i>
   <i name="PSTRESS">      0.00000000</i>
   <i name="EDIFFG">      0.00100000</i>
   <i type="int" name="NFREE">     0</i>
   <i name="POTIM">      0.50000000</i>
   <i name="SMASS">     -3.00000000</i>
   <i name="SCALEE">      1.00000000</i>
  </separator>
  <separator name="ionic md" >
   <i name="TEBEG">      0.00010000</i>
   <i name="TEEND">      0.00010000</i>
   <i type="int" name="NBLOCK">     1</i>
   <i type="int" name="KBLOCK">     1</i>
   <i type="int" name="NPACO">   256</i>
   <i name="APACO">     16.00000000</i>
  </separator>
  <separator name="symmetry" >
   <i type="int" name="ISYM">     0</i>
   <i name="SYMPREC">      0.00001000</i>
  </separator>
  <separator name="dos" >
   <i type="int" name="LORBIT">     0</i>
   <v name="RWIGS">     -1.00000000     -1.00000000     -1.00000000     -1.00000000     -1.00000000</v>
   <i type="int" name="NEDOS">   301</i>
   <i name="EMIN">     10.00000000</i>
   <i name="EMAX">    -10.00000000</i>
   <i name="EFERMI">      0.00000000</i>
  </separator>
  <separator name="writing" >
   <i type="int" name="NWRITE">     2</i>
   <i type="logical" name="LWAVE"> F  </i>
   <i type="logical" name="LDOWNSAMPLE"> F  </i>
   <i type="logical" name="LCHARG"> T  </i>
   <i type="logical" name="LPARD"> F  </i>
   <i type="logical" name="LVTOT"> T  </i>
   <i type="logical" name="LVHAR"> F  </i>
   <i type="logical" name="LELF"> F  </i>
   <i type="logical" name="LOPTICS"> F  </i>
   <v name="STM">      0.00000000      0.00000000      0.00000000      0.00000000      0.00000000      0.00000000      0.00000000</v>
  </separator>
  <separator name="performance" >
   <i type="int" name="NPAR">     4</i>
   <i type="int" name="NSIM">     4</i>
   <i type="int" name="NBLK">    -1</i>
   <i type="logical" name="LPLANE"> T  </i>
   <i type="logical" name="LSCALAPACK"> T  </i>
   <i type="logical" name="LSCAAWARE"> F  </i>
   <i type="logical" name="LSCALU"> F  </i>
   <i type="logical" name="LASYNC"> F  </i>
   <i type="logical" name="LORBITALREAL"> F  </i>
  </separator>
  <separator name="miscellaneous" >
   <i type="int" name="IDIOT">     3</i>
   <i type="int" name="PHON_NSTRUCT">    -1</i>
   <i type="logical" name="LMUSIC"> F  </i>
   <v name="POMASS">      1.00000000     12.01100000     14.00100000    126.90400000    207.20000000</v>
   <v name="DARWINR">      0.00000000      0.00000000      0.00000000      0.00000000      0.00000000</v>
   <v name="DARWINV">      1.00000000      1.00000000      1.00000000      1.00000000      1.00000000</v>
   <i type="logical" name="LCORR"> T  </i>
  </separator>
  <i type="logical" name="GGA_COMPAT"> F  </i>
  <i type="logical" name="LBERRY"> F  </i>
  <i type="int" name="ICORELEVEL">     0</i>
  <i type="logical" name="LDAU"> F  </i>
  <i type="int" name="I_CONSTRAINED_M">     0</i>
  <separator name="electronic exchange-correlation" >
   <i type="string" name="GGA">--</i>
   <i type="int" name="VOSKOWN">     0</i>
   <i type="logical" name="LHFCALC"> F  </i>
   <i type="string" name="PRECFOCK"></i>
   <i type="logical" name="LSYMGRAD"> F  </i>
   <i type="logical" name="LHFONE"> F  </i>
   <i type="logical" name="LRHFCALC"> F  </i>
   <i type="logical" name="LTHOMAS"> F  </i>
   <i type="logical" name="LMODELHF"> F  </i>
   <i type="logical" name="LFOCKACE"> F  </i>
   <i name="ENCUT4O">     -1.00000000</i>
   <i type="int" name="EXXOEP">     0</i>
   <i type="int" name="FOURORBIT">     0</i>
   <i name="AEXX">      0.00000000</i>
   <i name="HFALPHA">      0.00000000</i>
   <i name="MCALPHA">      0.00000000</i>
   <i name="ALDAX">      1.00000000</i>
   <i name="AGGAX">      1.00000000</i>
   <i name="ALDAC">      1.00000000</i>
   <i name="AGGAC">      1.00000000</i>
   <i type="int" name="NKREDX">     1</i>
   <i type="int" name="NKREDY">     1</i>
   <i type="int" name="NKREDZ">     1</i>
   <i type="logical" name="SHIFTRED"> F  </i>
   <i type="logical" name="ODDONLY"> F  </i>
   <i type="logical" name="EVENONLY"> F  </i>
   <i type="int" name="LMAXFOCK">     0</i>
   <i type="int" name="NMAXFOCKAE">     0</i>
   <i type="logical" name="LFOCKAEDFT"> F  </i>
   <i name="HFSCREEN">      0.00000000</i>
   <i name="HFSCREENC">      0.00000000</i>
   <i type="int" name="NBANDSGWLOW">     0</i>
  </separator>
  <separator name="vdW DFT" >
   <i type="logical" name="LUSE_VDW"> F  </i>
   <i name="Zab_VDW">     -0.84910000</i>
   <i name="PARAM1">      0.12340000</i>
   <i name="PARAM2">      1.00000000</i>
   <i name="PARAM3">      0.00000000</i>
  </separator>
  <separator name="model GW" >
   <i type="int" name="MODEL_GW">     0</i>
   <i name="MODEL_EPS0">     37.63423484</i>
   <i name="MODEL_ALPHA">      1.00000000</i>
  </separator>
  <separator name="linear response parameters" >
   <i type="logical" name="LEPSILON"> F  </i>
   <i type="logical" name="LRPA"> F  </i>
   <i type="logical" name="LNABLA"> F  </i>
   <i type="logical" name="LVEL"> F  </i>
   <i type="int" name="KINTER">     0</i>
   <i name="CSHIFT">      0.10000000</i>
   <i name="OMEGAMAX">     -1.00000000</i>
   <i name="DEG_THRESHOLD">      0.00200000</i>
   <i name="RTIME">     -0.10000000</i>
   <i name="WPLASMAI">      0.00000000</i>
   <v name="DFIELD">      0.00000000      0.00000000      0.00000000</v>
   <v name="WPLASMA">      0.00000000      0.00000000      0.00000000      0.00000000      0.00000000      0.00000000      0.00000000      0.00000000      0.00000000</v>
  </separator>
  <separator name="orbital magnetization" >
   <i type="logical" name="NUCIND"> F  </i>
   <v name="MAGPOS">      0.00000000      0.00000000      0.00000000</v>
   <i type="logical" name="LNICSALL"> T  </i>
   <i type="logical" name="ORBITALMAG"> F  </i>
   <i type="logical" name="LMAGBLOCH"> F  </i>
   <i type="logical" name="LCHIMAG"> F  </i>
   <i type="logical" name="LGAUGE"> T  </i>
   <i type="int" name="MAGATOM">     0</i>
   <v name="MAGDIPOL">      0.00000000      0.00000000      0.00000000</v>
   <v name="AVECCONST">      0.00000000      0.00000000      0.00000000</v>
  </separator>
  <separator name="response functions" >
   <i type="logical" name="LFINITE_TEMPERATURE"> F  </i>
   <i type="logical" name="LADDER"> F  </i>
   <i type="logical" name="LRPAFORCE"> F  </i>
   <i type="logical" name="LFXC"> F  </i>
   <i type="logical" name="LHARTREE"> T  </i>
   <i type="int" name="IBSE">     0</i>
   <v type="int" name="KPOINT">    -1     0     0     0</v>
   <i type="logical" name="LTCTC"> F  </i>
   <i type="logical" name="LTCTE"> F  </i>
   <i type="logical" name="LTETE"> F  </i>
   <i type="logical" name="LTRIPLET"> F  </i>
   <i type="logical" name="LFXCEPS"> F  </i>
   <i type="logical" name="LFXHEG"> F  </i>
   <i type="int" name="NATURALO">     2</i>
   <i type="logical" name="LHOLEGF"> F  </i>
   <i type="logical" name="L2ORDER"> F  </i>
   <i type="logical" name="LDMP1"> F  </i>
   <i type="logical" name="LMP2LT"> F  </i>
   <i type="logical" name="LSMP2LT"> F  </i>
   <i type="logical" name="LGWLF"> F  </i>
   <i name="ENCUTGW">     -2.00000000</i>
   <i name="ENCUTGWSOFT">     -2.00000000</i>
   <i name="ENCUTLF">     -1.00000000</i>
   <i type="logical" name="LESF_SPLINES"> F  </i>
   <i type="int" name="LMAXMP2">    -1</i>
   <i name="SCISSOR">      0.00000000</i>
   <i type="int" name="NOMEGA">     0</i>
   <i type="int" name="NOMEGAR">     0</i>
   <i type="int" name="NBANDSGW">    -1</i>
   <i type="int" name="NBANDSO">    -1</i>
   <i type="int" name="NBANDSV">    -1</i>
   <i type="int" name="NELM">   600</i>
   <i type="int" name="NELMHF">     1</i>
   <i type="int" name="DIM">     3</i>
   <i type="int" name="IESPILON">     4</i>
   <i type="int" name="ANTIRES">     0</i>
   <i name="OMEGAMAX">    -30.00000000</i>
   <i name="OMEGAMIN">    -30.00000000</i>
   <i name="OMEGATL">   -200.00000000</i>
   <i type="int" name="OMEGAGRID">     0</i>
   <i name="CSHIFT">     -0.10000000</i>
   <i type="logical" name="LSELFENERGY"> F  </i>
   <i type="logical" name="LSPECTRAL"> F  </i>
   <i type="logical" name="LSPECTRALGW"> F  </i>
   <i type="logical" name="LSINGLES"> F  </i>
   <i type="logical" name="LFERMIGW"> F  </i>
   <i type="logical" name="ODDONLYGW"> F  </i>
   <i type="logical" name="EVENONLYGW"> F  </i>
   <i type="int" name="NKREDLFX">     1</i>
   <i type="int" name="NKREDLFY">     1</i>
   <i type="int" name="NKREDLFZ">     1</i>
   <i type="int" name="MAXMEM">  2800</i>
   <i type="int" name="TELESCOPE">     0</i>
   <i type="int" name="NTAUPAR">    -1</i>
   <i type="int" name="NOMEGAPAR">    -1</i>
   <i name="DAMP_NEWTON">      0.80000001</i>
   <i name="LAMBDA">      1.00000000</i>
  </separator>
  <separator name="External order field" >
   <i name="OFIELD_KAPPA">      0.00000000</i>
   <v name="OFIELD_K">      0.00000000      0.00000000      0.00000000</v>
   <i name="OFIELD_Q6_NEAR">      0.00000000</i>
   <i name="OFIELD_Q6_FAR">      0.00000000</i>
   <i name="OFIELD_A">      0.00000000</i>
  </separator>
 </parameters>
 <atominfo>
  <atoms>     325 </atoms>
  <types>       5 </types>
  <array name="atoms" >
   <dimension dim="1">ion</dimension>
   <field type="string">element</field>
   <field type="int">atomtype</field>
   <set>
    <rc><c>H </c><c>   1</c></rc>
    <rc><c>H </c><c>   1</c></rc>
    <rc><c>H </c><c>   1</c></rc>
    <rc><c>H </c><c>   1</c></rc>
    <rc><c>H </c><c>   1</c></rc>
    <rc><c>H </c><c>   1</c></rc>
    <rc><c>H </c><c>   1</c></rc>
    <rc><c>H </c><c>   1</c></rc>
    <rc><c>H </c><c>   1</c></rc>
    <rc><c>H </c><c>   1</c></rc>
    <rc><c>H </c><c>   1</c></rc>
    <rc><c>H </c><c>   1</c></rc>
    <rc><c>H </c><c>   1</c></rc>
    <rc><c>H </c><c>   1</c></rc>
    <rc><c>H </c><c>   1</c></rc>
    <rc><c>H </c><c>   1</c></rc>
    <rc><c>H </c><c>   1</c></rc>
    <rc><c>H </c><c>   1</c></rc>
    <rc><c>H </c><c>   1</c></rc>
    <rc><c>H </c><c>   1</c></rc>
    <rc><c>H </c><c>   1</c></rc>
    <rc><c>H </c><c>   1</c></rc>
    <rc><c>H </c><c>   1</c></rc>
    <rc><c>H </c><c>   1</c></rc>
    <rc><c>H </c><c>   1</c></rc>
    <rc><c>H </c><c>   1</c></rc>
    <rc><c>H </c><c>   1</c></rc>
    <rc><c>H </c><c>   1</c></rc>
    <rc><c>H </c><c>   1</c></rc>
    <rc><c>H </c><c>   1</c></rc>
    <rc><c>H </c><c>   1</c></rc>
    <rc><c>H </c><c>   1</c></rc>
    <rc><c>H </c><c>   1</c></rc>
    <rc><c>H </c><c>   1</c></rc>
    <rc><c>H </c><c>   1</c></rc>
    <rc><c>H </c><c>   1</c></rc>
    <rc><c>H </c><c>   1</c></rc>
    <rc><c>H </c><c>   1</c></rc>
    <rc><c>H </c><c>   1</c></rc>
    <rc><c>H </c><c>   1</c></rc>
    <rc><c>H </c><c>   1</c></rc>
    <rc><c>H </c><c>   1</c></rc>
    <rc><c>H </c><c>   1</c></rc>
    <rc><c>H </c><c>   1</c></rc>
    <rc><c>H </c><c>   1</c></rc>
    <rc><c>H </c><c>   1</c></rc>
    <rc><c>H </c><c>   1</c></rc>
    <rc><c>H </c><c>   1</c></rc>
    <rc><c>H </c><c>   1</c></rc>
    <rc><c>H </c><c>   1</c></rc>
    <rc><c>H </c><c>   1</c></rc>
    <rc><c>H </c><c>   1</c></rc>
    <rc><c>H </c><c>   1</c></rc>
    <rc><c>H </c><c>   1</c></rc>
    <rc><c>H </c><c>   1</c></rc>
    <rc><c>H </c><c>   1</c></rc>
    <rc><c>H </c><c>   1</c></rc>
    <rc><c>H </c><c>   1</c></rc>
    <rc><c>H </c><c>   1</c></rc>
    <rc><c>H </c><c>   1</c></rc>
    <rc><c>H </c><c>   1</c></rc>
    <rc><c>H </c><c>   1</c></rc>
    <rc><c>H </c><c>   1</c></rc>
    <rc><c>H </c><c>   1</c></rc>
    <rc><c>H </c><c>   1</c></rc>
    <rc><c>H </c><c>   1</c></rc>
    <rc><c>H </c><c>   1</c></rc>
    <rc><c>H </c><c>   1</c></rc>
    <rc><c>H </c><c>   1</c></rc>
    <rc><c>H </c><c>   1</c></rc>
    <rc><c>H </c><c>   1</c></rc>
    <rc><c>H </c><c>   1</c></rc>
    <rc><c>H </c><c>   1</c></rc>
    <rc><c>H </c><c>   1</c></rc>
    <rc><c>H </c><c>   1</c></rc>
    <rc><c>H </c><c>   1</c></rc>
    <rc><c>H </c><c>   1</c></rc>
    <rc><c>H </c><c>   1</c></rc>
    <rc><c>H </c><c>   1</c></rc>
    <rc><c>H </c><c>   1</c></rc>
    <rc><c>H </c><c>   1</c></rc>
    <rc><c>H </c><c>   1</c></rc>
    <rc><c>H </c><c>   1</c></rc>
    <rc><c>H </c><c>   1</c></rc>
    <rc><c>H </c><c>   1</c></rc>
    <rc><c>H </c><c>   1</c></rc>
    <rc><c>H </c><c>   1</c></rc>
    <rc><c>H </c><c>   1</c></rc>
    <rc><c>H </c><c>   1</c></rc>
    <rc><c>H </c><c>   1</c></rc>
    <rc><c>H </c><c>   1</c></rc>
    <rc><c>H </c><c>   1</c></rc>
    <rc><c>H </c><c>   1</c></rc>
    <rc><c>H </c><c>   1</c></rc>
    <rc><c>H </c><c>   1</c></rc>
    <rc><c>H </c><c>   1</c></rc>
    <rc><c>H </c><c>   1</c></rc>
    <rc><c>H </c><c>   1</c></rc>
    <rc><c>H </c><c>   1</c></rc>
    <rc><c>H </c><c>   1</c></rc>
    <rc><c>H </c><c>   1</c></rc>
    <rc><c>H </c><c>   1</c></rc>
    <rc><c>H </c><c>   1</c></rc>
    <rc><c>H </c><c>   1</c></rc>
    <rc><c>H </c><c>   1</c></rc>
    <rc><c>H </c><c>   1</c></rc>
    <rc><c>H </c><c>   1</c></rc>
    <rc><c>H </c><c>   1</c></rc>
    <rc><c>H </c><c>   1</c></rc>
    <rc><c>H </c><c>   1</c></rc>
    <rc><c>H </c><c>   1</c></rc>
    <rc><c>H </c><c>   1</c></rc>
    <rc><c>H </c><c>   1</c></rc>
    <rc><c>H </c><c>   1</c></rc>
    <rc><c>H </c><c>   1</c></rc>
    <rc><c>H </c><c>   1</c></rc>
    <rc><c>H </c><c>   1</c></rc>
    <rc><c>H </c><c>   1</c></rc>
    <rc><c>H </c><c>   1</c></rc>
    <rc><c>H </c><c>   1</c></rc>
    <rc><c>H </c><c>   1</c></rc>
    <rc><c>H </c><c>   1</c></rc>
    <rc><c>H </c><c>   1</c></rc>
    <rc><c>H </c><c>   1</c></rc>
    <rc><c>H </c><c>   1</c></rc>
    <rc><c>H </c><c>   1</c></rc>
    <rc><c>H </c><c>   1</c></rc>
    <rc><c>H </c><c>   1</c></rc>
    <rc><c>H </c><c>   1</c></rc>
    <rc><c>H </c><c>   1</c></rc>
    <rc><c>H </c><c>   1</c></rc>
    <rc><c>H </c><c>   1</c></rc>
    <rc><c>H </c><c>   1</c></rc>
    <rc><c>H </c><c>   1</c></rc>
    <rc><c>H </c><c>   1</c></rc>
    <rc><c>H </c><c>   1</c></rc>
    <rc><c>H </c><c>   1</c></rc>
    <rc><c>H </c><c>   1</c></rc>
    <rc><c>H </c><c>   1</c></rc>
    <rc><c>H </c><c>   1</c></rc>
    <rc><c>H </c><c>   1</c></rc>
    <rc><c>H </c><c>   1</c></rc>
    <rc><c>H </c><c>   1</c></rc>
    <rc><c>C </c><c>   2</c></rc>
    <rc><c>C </c><c>   2</c></rc>
    <rc><c>C </c><c>   2</c></rc>
    <rc><c>C </c><c>   2</c></rc>
    <rc><c>C </c><c>   2</c></rc>
    <rc><c>C </c><c>   2</c></rc>
    <rc><c>C </c><c>   2</c></rc>
    <rc><c>C </c><c>   2</c></rc>
    <rc><c>C </c><c>   2</c></rc>
    <rc><c>C </c><c>   2</c></rc>
    <rc><c>C </c><c>   2</c></rc>
    <rc><c>C </c><c>   2</c></rc>
    <rc><c>C </c><c>   2</c></rc>
    <rc><c>C </c><c>   2</c></rc>
    <rc><c>C </c><c>   2</c></rc>
    <rc><c>C </c><c>   2</c></rc>
    <rc><c>C </c><c>   2</c></rc>
    <rc><c>C </c><c>   2</c></rc>
    <rc><c>C </c><c>   2</c></rc>
    <rc><c>C </c><c>   2</c></rc>
    <rc><c>C </c><c>   2</c></rc>
    <rc><c>C </c><c>   2</c></rc>
    <rc><c>C </c><c>   2</c></rc>
    <rc><c>C </c><c>   2</c></rc>
    <rc><c>C </c><c>   2</c></rc>
    <rc><c>C </c><c>   2</c></rc>
    <rc><c>C </c><c>   2</c></rc>
    <rc><c>C </c><c>   2</c></rc>
    <rc><c>C </c><c>   2</c></rc>
    <rc><c>C </c><c>   2</c></rc>
    <rc><c>C </c><c>   2</c></rc>
    <rc><c>C </c><c>   2</c></rc>
    <rc><c>C </c><c>   2</c></rc>
    <rc><c>C </c><c>   2</c></rc>
    <rc><c>C </c><c>   2</c></rc>
    <rc><c>C </c><c>   2</c></rc>
    <rc><c>C </c><c>   2</c></rc>
    <rc><c>C </c><c>   2</c></rc>
    <rc><c>C </c><c>   2</c></rc>
    <rc><c>N </c><c>   3</c></rc>
    <rc><c>N </c><c>   3</c></rc>
    <rc><c>N </c><c>   3</c></rc>
    <rc><c>N </c><c>   3</c></rc>
    <rc><c>N </c><c>   3</c></rc>
    <rc><c>N </c><c>   3</c></rc>
    <rc><c>N </c><c>   3</c></rc>
    <rc><c>N </c><c>   3</c></rc>
    <rc><c>N </c><c>   3</c></rc>
    <rc><c>N </c><c>   3</c></rc>
    <rc><c>N </c><c>   3</c></rc>
    <rc><c>N </c><c>   3</c></rc>
    <rc><c>N </c><c>   3</c></rc>
    <rc><c>N </c><c>   3</c></rc>
    <rc><c>N </c><c>   3</c></rc>
    <rc><c>N </c><c>   3</c></rc>
    <rc><c>N </c><c>   3</c></rc>
    <rc><c>N </c><c>   3</c></rc>
    <rc><c>N </c><c>   3</c></rc>
    <rc><c>N </c><c>   3</c></rc>
    <rc><c>N </c><c>   3</c></rc>
    <rc><c>N </c><c>   3</c></rc>
    <rc><c>N </c><c>   3</c></rc>
    <rc><c>N </c><c>   3</c></rc>
    <rc><c>N </c><c>   3</c></rc>
    <rc><c>N </c><c>   3</c></rc>
    <rc><c>N </c><c>   3</c></rc>
    <rc><c>N </c><c>   3</c></rc>
    <rc><c>N </c><c>   3</c></rc>
    <rc><c>N </c><c>   3</c></rc>
    <rc><c>N </c><c>   3</c></rc>
    <rc><c>N </c><c>   3</c></rc>
    <rc><c>N </c><c>   3</c></rc>
    <rc><c>N </c><c>   3</c></rc>
    <rc><c>N </c><c>   3</c></rc>
    <rc><c>N </c><c>   3</c></rc>
    <rc><c>N </c><c>   3</c></rc>
    <rc><c>N </c><c>   3</c></rc>
    <rc><c>N </c><c>   3</c></rc>
    <rc><c>N </c><c>   3</c></rc>
    <rc><c>N </c><c>   3</c></rc>
    <rc><c>N </c><c>   3</c></rc>
    <rc><c>N </c><c>   3</c></rc>
    <rc><c>N </c><c>   3</c></rc>
    <rc><c>N </c><c>   3</c></rc>
    <rc><c>N </c><c>   3</c></rc>
    <rc><c>N </c><c>   3</c></rc>
    <rc><c>I </c><c>   4</c></rc>
    <rc><c>I </c><c>   4</c></rc>
    <rc><c>I </c><c>   4</c></rc>
    <rc><c>I </c><c>   4</c></rc>
    <rc><c>I </c><c>   4</c></rc>
    <rc><c>I </c><c>   4</c></rc>
    <rc><c>I </c><c>   4</c></rc>
    <rc><c>I </c><c>   4</c></rc>
    <rc><c>I </c><c>   4</c></rc>
    <rc><c>I </c><c>   4</c></rc>
    <rc><c>I </c><c>   4</c></rc>
    <rc><c>I </c><c>   4</c></rc>
    <rc><c>I </c><c>   4</c></rc>
    <rc><c>I </c><c>   4</c></rc>
    <rc><c>I </c><c>   4</c></rc>
    <rc><c>I </c><c>   4</c></rc>
    <rc><c>I </c><c>   4</c></rc>
    <rc><c>I </c><c>   4</c></rc>
    <rc><c>I </c><c>   4</c></rc>
    <rc><c>I </c><c>   4</c></rc>
    <rc><c>I </c><c>   4</c></rc>
    <rc><c>I </c><c>   4</c></rc>
    <rc><c>I </c><c>   4</c></rc>
    <rc><c>I </c><c>   4</c></rc>
    <rc><c>I </c><c>   4</c></rc>
    <rc><c>I </c><c>   4</c></rc>
    <rc><c>I </c><c>   4</c></rc>
    <rc><c>I </c><c>   4</c></rc>
    <rc><c>I </c><c>   4</c></rc>
    <rc><c>I </c><c>   4</c></rc>
    <rc><c>I </c><c>   4</c></rc>
    <rc><c>I </c><c>   4</c></rc>
    <rc><c>I </c><c>   4</c></rc>
    <rc><c>I </c><c>   4</c></rc>
    <rc><c>I </c><c>   4</c></rc>
    <rc><c>I </c><c>   4</c></rc>
    <rc><c>I </c><c>   4</c></rc>
    <rc><c>I </c><c>   4</c></rc>
    <rc><c>I </c><c>   4</c></rc>
    <rc><c>I </c><c>   4</c></rc>
    <rc><c>I </c><c>   4</c></rc>
    <rc><c>I </c><c>   4</c></rc>
    <rc><c>I </c><c>   4</c></rc>
    <rc><c>I </c><c>   4</c></rc>
    <rc><c>I </c><c>   4</c></rc>
    <rc><c>I </c><c>   4</c></rc>
    <rc><c>I </c><c>   4</c></rc>
    <rc><c>I </c><c>   4</c></rc>
    <rc><c>I </c><c>   4</c></rc>
    <rc><c>I </c><c>   4</c></rc>
    <rc><c>I </c><c>   4</c></rc>
    <rc><c>I </c><c>   4</c></rc>
    <rc><c>I </c><c>   4</c></rc>
    <rc><c>I </c><c>   4</c></rc>
    <rc><c>I </c><c>   4</c></rc>
    <rc><c>I </c><c>   4</c></rc>
    <rc><c>I </c><c>   4</c></rc>
    <rc><c>I </c><c>   4</c></rc>
    <rc><c>I </c><c>   4</c></rc>
    <rc><c>I </c><c>   4</c></rc>
    <rc><c>I </c><c>   4</c></rc>
    <rc><c>I </c><c>   4</c></rc>
    <rc><c>I </c><c>   4</c></rc>
    <rc><c>I </c><c>   4</c></rc>
    <rc><c>I </c><c>   4</c></rc>
    <rc><c>I </c><c>   4</c></rc>
    <rc><c>I </c><c>   4</c></rc>
    <rc><c>I </c><c>   4</c></rc>
    <rc><c>I </c><c>   4</c></rc>
    <rc><c>I </c><c>   4</c></rc>
    <rc><c>I </c><c>   4</c></rc>
    <rc><c>I </c><c>   4</c></rc>
    <rc><c>Pb</c><c>   5</c></rc>
    <rc><c>Pb</c><c>   5</c></rc>
    <rc><c>Pb</c><c>   5</c></rc>
    <rc><c>Pb</c><c>   5</c></rc>
    <rc><c>Pb</c><c>   5</c></rc>
    <rc><c>Pb</c><c>   5</c></rc>
    <rc><c>Pb</c><c>   5</c></rc>
    <rc><c>Pb</c><c>   5</c></rc>
    <rc><c>Pb</c><c>   5</c></rc>
    <rc><c>Pb</c><c>   5</c></rc>
    <rc><c>Pb</c><c>   5</c></rc>
    <rc><c>Pb</c><c>   5</c></rc>
    <rc><c>Pb</c><c>   5</c></rc>
    <rc><c>Pb</c><c>   5</c></rc>
    <rc><c>Pb</c><c>   5</c></rc>
    <rc><c>Pb</c><c>   5</c></rc>
    <rc><c>Pb</c><c>   5</c></rc>
    <rc><c>Pb</c><c>   5</c></rc>
    <rc><c>Pb</c><c>   5</c></rc>
    <rc><c>Pb</c><c>   5</c></rc>
    <rc><c>Pb</c><c>   5</c></rc>
    <rc><c>Pb</c><c>   5</c></rc>
    <rc><c>Pb</c><c>   5</c></rc>
    <rc><c>Pb</c><c>   5</c></rc>
   </set>
  </array>
  <array name="atomtypes" >
   <dimension dim="1">type</dimension>
   <field type="int">atomspertype</field>
   <field type="string">element</field>
   <field>mass</field>
   <field>valence</field>
   <field type="string">pseudopotential</field>
   <set>
    <rc><c> 143</c><c>H </c><c>      1.00000000</c><c>      1.00000000</c><c>  PAW_PBE H 15Jun2001                   </c></rc>
    <rc><c>  39</c><c>C </c><c>     12.01100000</c><c>      4.00000000</c><c>  PAW_PBE C 08Apr2002                   </c></rc>
    <rc><c>  47</c><c>N </c><c>     14.00100000</c><c>      5.00000000</c><c>  PAW_PBE N 08Apr2002                   </c></rc>
    <rc><c>  72</c><c>I </c><c>    126.90400000</c><c>      7.00000000</c><c>  PAW_PBE I 08Apr2002                   </c></rc>
    <rc><c>  24</c><c>Pb</c><c>    207.20000000</c><c>      4.00000000</c><c>  PAW_PBE Pb 08Apr2002                  </c></rc>
   </set>
  </array>
 </atominfo>
 <structure name="initialpos" >
  <crystal>
   <varray name="basis" >
    <v>      18.06080055       0.00000000       0.00000000 </v>
    <v>      -0.00491865      18.06279945       0.00000000 </v>
    <v>       0.00000000       0.00000000      62.48749924 </v>
   </varray>
   <i name="volume">  20385.21054034 </i>
   <varray name="rec_basis" >
    <v>       0.05536853       0.00001508      -0.00000000 </v>
    <v>       0.00000000       0.05536240       0.00000000 </v>
    <v>       0.00000000      -0.00000000       0.01600320 </v>
   </varray>
  </crystal>
  <varray name="positions" >
   <v>       0.46384877       0.32720019       0.57401428 </v>
   <v>       0.45059106       0.84098393       0.57441317 </v>
   <v>       0.91960626       0.24150052       0.58113796 </v>
   <v>       0.94204845       0.80859333       0.57877989 </v>
   <v>       0.30827057       0.06556444       0.57374226 </v>
   <v>       0.32479684       0.57151264       0.57537772 </v>
   <v>       0.79388702       0.08051365       0.57734442 </v>
   <v>       0.10534526       0.24455550       0.55870519 </v>
   <v>       0.09409786       0.67836173       0.56855079 </v>
   <v>       0.56363709       0.16538768       0.55692969 </v>
   <v>       0.49362192       0.64877849       0.56468796 </v>
   <v>       0.36372671       0.00557205       0.55873041 </v>
   <v>       0.27425345       0.62778739       0.55791964 </v>
   <v>       0.86732558       0.02648709       0.56673500 </v>
   <v>       0.05751993       0.23566912       0.58265841 </v>
   <v>       0.01931912       0.69330870       0.58575601 </v>
   <v>       0.57244443       0.24632399       0.57193635 </v>
   <v>       0.46086344       0.70692096       0.58490575 </v>
   <v>       0.28391752       0.43898426       0.57773555 </v>
   <v>       0.17171886       0.04662859       0.57125940 </v>
   <v>       0.66950717       0.02529833       0.57499257 </v>
   <v>       0.38274850       0.29505136       0.56097249 </v>
   <v>       0.49324329       0.86914517       0.55041551 </v>
   <v>       0.87856927       0.23850330       0.55603303 </v>
   <v>       0.97949117       0.86771277       0.55962927 </v>
   <v>       0.20437487       0.41502970       0.56297912 </v>
   <v>       0.14079374       0.97703422       0.55415668 </v>
   <v>       0.66481434       0.93621851       0.56282107 </v>
   <v>       0.44102802       0.18815734       0.54846694 </v>
   <v>       0.52377277       0.74522025       0.54159410 </v>
   <v>       0.99495483       0.24700890       0.53869075 </v>
   <v>       0.07320770       0.78804748       0.54987793 </v>
   <v>       0.19142188       0.53318388       0.54827263 </v>
   <v>       0.26197048       0.94065507       0.54461809 </v>
   <v>       0.78760586       0.93115688       0.55553073 </v>
   <v>       0.46480203       0.31112300       0.67375274 </v>
   <v>       0.43770808       0.80950779       0.67363467 </v>
   <v>       0.95403617       0.27828320       0.67784035 </v>
   <v>       0.92287791       0.76928465       0.67419973 </v>
   <v>       0.30662745       0.05459411       0.67303849 </v>
   <v>       0.29333225       0.54190918       0.67757724 </v>
   <v>       0.79057365       0.05489939       0.67445320 </v>
   <v>       0.84858028       0.48897600       0.66639458 </v>
   <v>       0.08950275       0.17353730       0.64588376 </v>
   <v>       0.09757680       0.69347106       0.65278358 </v>
   <v>       0.57823856       0.16758829       0.64864964 </v>
   <v>       0.57350359       0.67453310       0.65428797 </v>
   <v>       0.17925224       0.41111272       0.64681608 </v>
   <v>       0.17419636       0.92374241       0.64938843 </v>
   <v>       0.64838151       0.48125687       0.65943329 </v>
   <v>       0.67420572       0.91220871       0.64971790 </v>
   <v>       0.06058790       0.18358991       0.67259443 </v>
   <v>       0.03604586       0.68106244       0.67434246 </v>
   <v>       0.57032152       0.21394693       0.67272855 </v>
   <v>       0.53519860       0.70505572       0.67812758 </v>
   <v>       0.20078918       0.43337743       0.67347717 </v>
   <v>       0.20285561       0.95675426       0.67443574 </v>
   <v>       0.72191749       0.43500706       0.67262330 </v>
   <v>       0.69759520       0.94688836       0.67495067 </v>
   <v>       0.41377289       0.31904730       0.65013241 </v>
   <v>       0.42175890       0.83547523       0.64690399 </v>
   <v>       0.92500526       0.32028296       0.65441006 </v>
   <v>       0.92168221       0.83055818       0.65270355 </v>
   <v>       0.33637854       0.07692527       0.64699543 </v>
   <v>       0.32081604       0.58211342       0.65333001 </v>
   <v>       0.82293832       0.07917179       0.64884120 </v>
   <v>       0.85514835       0.55718234       0.64703066 </v>
   <v>       0.00606842       0.26032602       0.63268264 </v>
   <v>       0.02935386       0.78880069       0.63766117 </v>
   <v>       0.48140999       0.22860405       0.63234101 </v>
   <v>       0.50606831       0.75315031       0.63294142 </v>
   <v>       0.25522912       0.99634655       0.63045032 </v>
   <v>       0.25153442       0.50354711       0.63242086 </v>
   <v>       0.75169456       0.99152660       0.63146315 </v>
   <v>       0.72610256       0.55896595       0.64064352 </v>
   <v>       0.44874502       0.30128397       0.76888902 </v>
   <v>       0.44874501       0.80128391       0.76888902 </v>
   <v>       0.94874497       0.30128397       0.76888902 </v>
   <v>       0.94874501       0.80128391       0.76888902 </v>
   <v>       0.30127600       0.05129450       0.76887296 </v>
   <v>       0.30127601       0.55129450       0.76887296 </v>
   <v>       0.80127594       0.05129450       0.76887296 </v>
   <v>       0.80127598       0.55129450       0.76887296 </v>
   <v>       0.07877100       0.17118050       0.74344197 </v>
   <v>       0.07877101       0.67118045       0.74344197 </v>
   <v>       0.57877100       0.17118050       0.74344197 </v>
   <v>       0.57877099       0.67118045       0.74344197 </v>
   <v>       0.17119950       0.42117448       0.74342103 </v>
   <v>       0.17119950       0.92117451       0.74342103 </v>
   <v>       0.67119951       0.42117448       0.74342103 </v>
   <v>       0.67119950       0.92117451       0.74342103 </v>
   <v>       0.05125600       0.19871499       0.76888902 </v>
   <v>       0.05125600       0.69871493       0.76888902 </v>
   <v>       0.55125603       0.19871499       0.76888902 </v>
   <v>       0.55125602       0.69871493       0.76888902 </v>
   <v>       0.19872349       0.44870397       0.76887205 </v>
   <v>       0.19872349       0.94870397       0.76887205 </v>
   <v>       0.69872352       0.44870397       0.76887205 </v>
   <v>       0.69872351       0.94870397       0.76887205 </v>
   <v>       0.42123152       0.32881747       0.74344197 </v>
   <v>       0.42123151       0.82881744       0.74344197 </v>
   <v>       0.92123147       0.32881747       0.74344197 </v>
   <v>       0.92123151       0.82881744       0.74344197 </v>
   <v>       0.32880050       0.07882500       0.74342103 </v>
   <v>       0.32880049       0.57882496       0.74342103 </v>
   <v>       0.82880048       0.07882500       0.74342103 </v>
   <v>       0.82880052       0.57882496       0.74342103 </v>
   <v>       0.00000350       0.25000148       0.72582199 </v>
   <v>       0.00000350       0.75000145       0.72582199 </v>
   <v>       0.50000351       0.25000148       0.72582199 </v>
   <v>       0.50000350       0.75000145       0.72582199 </v>
   <v>       0.25000050       0.00000000       0.72580398 </v>
   <v>       0.25000052       0.50000000       0.72580398 </v>
   <v>       0.75000050       0.00000000       0.72580398 </v>
   <v>       0.75000049       0.50000000       0.72580398 </v>
   <v>       0.71815639       0.43804269       0.54200489 </v>
   <v>       0.73525565       0.49618885       0.51950466 </v>
   <v>       0.65473230       0.55357731       0.56045792 </v>
   <v>       0.70738370       0.63591517       0.55820228 </v>
   <v>       0.84654025       0.50245288       0.57187158 </v>
   <v>       0.78369905       0.57143001       0.58147079 </v>
   <v>       0.86626211       0.55987201       0.53148930 </v>
   <v>       0.79375198       0.62507712       0.52701270 </v>
   <v>       0.86706448       0.46415332       0.51884138 </v>
   <v>       0.86419998       0.42415985       0.54446449 </v>
   <v>       0.87204758       0.32738673       0.51913618 </v>
   <v>       0.78394524       0.32255151       0.53076284 </v>
   <v>       0.63857796       0.55031193       0.52072360 </v>
   <v>       0.68940418       0.63468071       0.51841338 </v>
   <v>       0.60589218       0.63229499       0.53258132 </v>
   <v>       0.75264404       0.45401700       0.59825143 </v>
   <v>       0.74820110       0.40557545       0.57380422 </v>
   <v>       0.67920487       0.47187023       0.58068304 </v>
   <v>       0.82314351       0.68738713       0.56159133 </v>
   <v>       0.89802810       0.68204162       0.54387941 </v>
   <v>       0.89665338       0.62103440       0.56603814 </v>
   <v>       0.81732083       0.38597299       0.48614023 </v>
   <v>       0.78385300       0.29776732       0.49207434 </v>
   <v>       0.66264852       0.31845576       0.52203844 </v>
   <v>       0.72941313       0.46084665       0.47008053 </v>
   <v>       0.53696875       0.37549578       0.52148474 </v>
   <v>       0.60413306       0.51701765       0.46925868 </v>
   <v>       0.50824324       0.47338362       0.49510757 </v>
   <v>       0.99269606       0.24375342       0.55590226 </v>
   <v>       0.03545372       0.77145200       0.56252749 </v>
   <v>       0.47229562       0.22917809       0.55762050 </v>
   <v>       0.49760927       0.75714630       0.55694550 </v>
   <v>       0.23740291       0.52189061       0.55925718 </v>
   <v>       0.25310787       0.98765060       0.55538446 </v>
   <v>       0.76640695       0.98026748       0.56371187 </v>
   <v>       0.00746454       0.24666585       0.64992949 </v>
   <v>       0.01009668       0.76225622       0.65242248 </v>
   <v>       0.49669019       0.24321998       0.64893259 </v>
   <v>       0.49799287       0.75477241       0.65028546 </v>
   <v>       0.25025585       0.49662617       0.64982058 </v>
   <v>       0.25497875       0.00003107       0.64801108 </v>
   <v>       0.75037722       0.51989956       0.65206456 </v>
   <v>       0.74821053       0.99502070       0.64899162 </v>
   <v>       0.49998898       0.24999498       0.74327702 </v>
   <v>       0.49998903       0.74999496       0.74327702 </v>
   <v>       0.99998898       0.24999498       0.74327702 </v>
   <v>       0.99998903       0.74999496       0.74327702 </v>
   <v>       0.25000050       0.00000100       0.74325596 </v>
   <v>       0.25000052       0.50000100       0.74325596 </v>
   <v>       0.75000050       0.00000100       0.74325596 </v>
   <v>       0.75000049       0.50000100       0.74325596 </v>
   <v>       0.70522585       0.38589096       0.49615893 </v>
   <v>       0.64966278       0.36121063       0.51019225 </v>
   <v>       0.68770917       0.44133922       0.48124652 </v>
   <v>       0.57905968       0.39336635       0.50993506 </v>
   <v>       0.61717043       0.47347211       0.48061010 </v>
   <v>       0.56236446       0.44939345       0.49506380 </v>
   <v>       0.75916854       0.47453630       0.53446371 </v>
   <v>       0.69327495       0.58409961       0.55018847 </v>
   <v>       0.78824645       0.52030821       0.57200540 </v>
   <v>       0.82428456       0.59420087       0.53909391 </v>
   <v>       0.83171829       0.43189308       0.52979334 </v>
   <v>       0.81789291       0.35552120       0.51979549 </v>
   <v>       0.65592575       0.60044758       0.52906926 </v>
   <v>       0.73918751       0.46014671       0.58123747 </v>
   <v>       0.86174817       0.64835188       0.55410094 </v>
   <v>       0.78296735       0.35544163       0.49730158 </v>
   <v>       0.05587060       0.23890747       0.56633587 </v>
   <v>       0.05017584       0.71005434       0.57296103 </v>
   <v>       0.54186444       0.21440742       0.56180628 </v>
   <v>       0.48721208       0.70221647       0.57031384 </v>
   <v>       0.43862850       0.29066160       0.56378470 </v>
   <v>       0.47877764       0.82663082       0.56068508 </v>
   <v>       0.92627977       0.24531616       0.56481103 </v>
   <v>       0.97896950       0.81546939       0.56625730 </v>
   <v>       0.24180520       0.45388928       0.56709658 </v>
   <v>       0.18479234       0.00384757       0.56058802 </v>
   <v>       0.69374612       0.98266824       0.56636297 </v>
   <v>       0.31220022       0.02314897       0.56260807 </v>
   <v>       0.28332022       0.57600736       0.56390649 </v>
   <v>       0.81218844       0.03234840       0.56980476 </v>
   <v>       0.05498471       0.19857702       0.65677962 </v>
   <v>       0.04942892       0.70915530       0.66048269 </v>
   <v>       0.55120530       0.20729624       0.65756689 </v>
   <v>       0.53750643       0.70931728       0.66177805 </v>
   <v>       0.20810344       0.44343386       0.65743911 </v>
   <v>       0.20786745       0.95804215       0.65821673 </v>
   <v>       0.70438692       0.47394180       0.66169875 </v>
   <v>       0.70413668       0.94889875       0.65877147 </v>
   <v>       0.45618996       0.29493401       0.65846202 </v>
   <v>       0.44935149       0.80314054       0.65776614 </v>
   <v>       0.95921722       0.28334017       0.66166689 </v>
   <v>       0.94873604       0.78956805       0.66062450 </v>
   <v>       0.30234001       0.04701937       0.65697308 </v>
   <v>       0.29077353       0.54242095       0.66128925 </v>
   <v>       0.78993057       0.04662188       0.65837076 </v>
   <v>       0.82288475       0.52170403       0.65546618 </v>
   <v>       0.04586250       0.20411950       0.75272599 </v>
   <v>       0.04586250       0.70411946       0.75272599 </v>
   <v>       0.54586251       0.20411950       0.75272599 </v>
   <v>       0.54586250       0.70411946       0.75272599 </v>
   <v>       0.20411900       0.45410100       0.75270499 </v>
   <v>       0.20411899       0.95410095       0.75270499 </v>
   <v>       0.70411898       0.45410100       0.75270499 </v>
   <v>       0.70411896       0.95410095       0.75270499 </v>
   <v>       0.45414002       0.29588849       0.75272697 </v>
   <v>       0.45414001       0.79588852       0.75272697 </v>
   <v>       0.95414002       0.29588849       0.75272697 </v>
[...]
   <v>       0.56363709       0.16538768       0.55692969 </v>
   <v>       0.49362192       0.64877849       0.56468796 </v>
   <v>       0.36372671       0.00557205       0.55873041 </v>
   <v>       0.27425345       0.62778739       0.55791964 </v>
   <v>       0.86732558       0.02648709       0.56673500 </v>
   <v>       0.05751993       0.23566912       0.58265841 </v>
   <v>       0.01931912       0.69330870       0.58575601 </v>
   <v>       0.57244443       0.24632399       0.57193635 </v>
   <v>       0.46086344       0.70692096       0.58490575 </v>
   <v>       0.28391752       0.43898426       0.57773555 </v>
   <v>       0.17171886       0.04662859       0.57125940 </v>
   <v>       0.66950717       0.02529833       0.57499257 </v>
   <v>       0.38274850       0.29505136       0.56097249 </v>
   <v>       0.49324329       0.86914517       0.55041551 </v>
   <v>       0.87856927       0.23850330       0.55603303 </v>
   <v>       0.97949117       0.86771277       0.55962927 </v>
   <v>       0.20437487       0.41502970       0.56297912 </v>
   <v>       0.14079374       0.97703422       0.55415668 </v>
   <v>       0.66481434       0.93621851       0.56282107 </v>
   <v>       0.44102802       0.18815734       0.54846694 </v>
   <v>       0.52377277       0.74522025       0.54159410 </v>
   <v>       0.99495483       0.24700890       0.53869075 </v>
   <v>       0.07320770       0.78804748       0.54987793 </v>
   <v>       0.19142188       0.53318388       0.54827263 </v>
   <v>       0.26197048       0.94065507       0.54461809 </v>
   <v>       0.78760586       0.93115688       0.55553073 </v>
   <v>       0.46480203       0.31112300       0.67375274 </v>
   <v>       0.43770808       0.80950779       0.67363467 </v>
   <v>       0.95403617       0.27828320       0.67784035 </v>
   <v>       0.92287791       0.76928465       0.67419973 </v>
   <v>       0.30662745       0.05459411       0.67303849 </v>
   <v>       0.29333225       0.54190918       0.67757724 </v>
   <v>       0.79057365       0.05489939       0.67445320 </v>
   <v>       0.84858028       0.48897600       0.66639458 </v>
   <v>       0.08950275       0.17353730       0.64588376 </v>
   <v>       0.09757680       0.69347106       0.65278358 </v>
   <v>       0.57823856       0.16758829       0.64864964 </v>
   <v>       0.57350359       0.67453310       0.65428797 </v>
   <v>       0.17925224       0.41111272       0.64681608 </v>
   <v>       0.17419636       0.92374241       0.64938843 </v>
   <v>       0.64838151       0.48125687       0.65943329 </v>
   <v>       0.67420572       0.91220871       0.64971790 </v>
   <v>       0.06058790       0.18358991       0.67259443 </v>
   <v>       0.03604586       0.68106244       0.67434246 </v>
   <v>       0.57032152       0.21394693       0.67272855 </v>
   <v>       0.53519860       0.70505572       0.67812758 </v>
   <v>       0.20078918       0.43337743       0.67347717 </v>
   <v>       0.20285561       0.95675426       0.67443574 </v>
   <v>       0.72191749       0.43500706       0.67262330 </v>
   <v>       0.69759520       0.94688836       0.67495067 </v>
   <v>       0.41377289       0.31904730       0.65013241 </v>
   <v>       0.42175890       0.83547523       0.64690399 </v>
   <v>       0.92500526       0.32028296       0.65441006 </v>
   <v>       0.92168221       0.83055818       0.65270355 </v>
   <v>       0.33637854       0.07692527       0.64699543 </v>
   <v>       0.32081604       0.58211342       0.65333001 </v>
   <v>       0.82293832       0.07917179       0.64884120 </v>
   <v>       0.85514835       0.55718234       0.64703066 </v>
   <v>       0.00606842       0.26032602       0.63268264 </v>
   <v>       0.02935386       0.78880069       0.63766117 </v>
   <v>       0.48140999       0.22860405       0.63234101 </v>
   <v>       0.50606831       0.75315031       0.63294142 </v>
   <v>       0.25522912       0.99634655       0.63045032 </v>
   <v>       0.25153442       0.50354711       0.63242086 </v>
   <v>       0.75169456       0.99152660       0.63146315 </v>
   <v>       0.72610256       0.55896595       0.64064352 </v>
   <v>       0.44874502       0.30128397       0.76888902 </v>
   <v>       0.44874501       0.80128391       0.76888902 </v>
   <v>       0.94874497       0.30128397       0.76888902 </v>
   <v>       0.94874501       0.80128391       0.76888902 </v>
   <v>       0.30127600       0.05129450       0.76887296 </v>
   <v>       0.30127601       0.55129450       0.76887296 </v>
   <v>       0.80127594       0.05129450       0.76887296 </v>
   <v>       0.80127598       0.55129450       0.76887296 </v>
   <v>       0.07877100       0.17118050       0.74344197 </v>
   <v>       0.07877101       0.67118045       0.74344197 </v>
   <v>       0.57877100       0.17118050       0.74344197 </v>
   <v>       0.57877099       0.67118045       0.74344197 </v>
   <v>       0.17119950       0.42117448       0.74342103 </v>
   <v>       0.17119950       0.92117451       0.74342103 </v>
   <v>       0.67119951       0.42117448       0.74342103 </v>
   <v>       0.67119950       0.92117451       0.74342103 </v>
   <v>       0.05125600       0.19871499       0.76888902 </v>
   <v>       0.05125600       0.69871493       0.76888902 </v>
   <v>       0.55125603       0.19871499       0.76888902 </v>
   <v>       0.55125602       0.69871493       0.76888902 </v>
   <v>       0.19872349       0.44870397       0.76887205 </v>
   <v>       0.19872349       0.94870397       0.76887205 </v>
   <v>       0.69872352       0.44870397       0.76887205 </v>
   <v>       0.69872351       0.94870397       0.76887205 </v>
   <v>       0.42123152       0.32881747       0.74344197 </v>
   <v>       0.42123151       0.82881744       0.74344197 </v>
   <v>       0.92123147       0.32881747       0.74344197 </v>
   <v>       0.92123151       0.82881744       0.74344197 </v>
   <v>       0.32880050       0.07882500       0.74342103 </v>
   <v>       0.32880049       0.57882496       0.74342103 </v>
   <v>       0.82880048       0.07882500       0.74342103 </v>
   <v>       0.82880052       0.57882496       0.74342103 </v>
   <v>       0.00000350       0.25000148       0.72582199 </v>
   <v>       0.00000350       0.75000145       0.72582199 </v>
   <v>       0.50000351       0.25000148       0.72582199 </v>
   <v>       0.50000350       0.75000145       0.72582199 </v>
   <v>       0.25000050       0.00000000       0.72580398 </v>
   <v>       0.25000052       0.50000000       0.72580398 </v>
   <v>       0.75000050       0.00000000       0.72580398 </v>
   <v>       0.75000049       0.50000000       0.72580398 </v>
   <v>       0.71815639       0.43804269       0.54200489 </v>
   <v>       0.73525565       0.49618885       0.51950466 </v>
   <v>       0.65473230       0.55357731       0.56045792 </v>
   <v>       0.70738370       0.63591517       0.55820228 </v>
   <v>       0.84654025       0.50245288       0.57187158 </v>
   <v>       0.78369905       0.57143001       0.58147079 </v>
   <v>       0.86626211       0.55987201       0.53148930 </v>
   <v>       0.79375198       0.62507712       0.52701270 </v>
   <v>       0.86706448       0.46415332       0.51884138 </v>
   <v>       0.86419998       0.42415985       0.54446449 </v>
   <v>       0.87204758       0.32738673       0.51913618 </v>
   <v>       0.78394524       0.32255151       0.53076284 </v>
   <v>       0.63857796       0.55031193       0.52072360 </v>
   <v>       0.68940418       0.63468071       0.51841338 </v>
   <v>       0.60589218       0.63229499       0.53258132 </v>
   <v>       0.75264404       0.45401700       0.59825143 </v>
   <v>       0.74820110       0.40557545       0.57380422 </v>
   <v>       0.67920487       0.47187023       0.58068304 </v>
   <v>       0.82314351       0.68738713       0.56159133 </v>
   <v>       0.89802810       0.68204162       0.54387941 </v>
   <v>       0.89665338       0.62103440       0.56603814 </v>
   <v>       0.81732083       0.38597299       0.48614023 </v>
   <v>       0.78385300       0.29776732       0.49207434 </v>
   <v>       0.66264852       0.31845576       0.52203844 </v>
   <v>       0.72941313       0.46084665       0.47008053 </v>
   <v>       0.53696875       0.37549578       0.52148474 </v>
   <v>       0.60413306       0.51701765       0.46925868 </v>
   <v>       0.50824324       0.47338362       0.49510757 </v>
   <v>       0.99269606       0.24375342       0.55590226 </v>
   <v>       0.03545372       0.77145200       0.56252749 </v>
   <v>       0.47229562       0.22917809       0.55762050 </v>
   <v>       0.49760927       0.75714630       0.55694550 </v>
   <v>       0.23740291       0.52189061       0.55925718 </v>
   <v>       0.25310787       0.98765060       0.55538446 </v>
   <v>       0.76640695       0.98026748       0.56371187 </v>
   <v>       0.00746454       0.24666585       0.64992949 </v>
   <v>       0.01009668       0.76225622       0.65242248 </v>
   <v>       0.49669019       0.24321998       0.64893259 </v>
   <v>       0.49799287       0.75477241       0.65028546 </v>
   <v>       0.25025585       0.49662617       0.64982058 </v>
   <v>       0.25497875       0.00003107       0.64801108 </v>
   <v>       0.75037722       0.51989956       0.65206456 </v>
   <v>       0.74821053       0.99502070       0.64899162 </v>
   <v>       0.49998898       0.24999498       0.74327702 </v>
   <v>       0.49998903       0.74999496       0.74327702 </v>
   <v>       0.99998898       0.24999498       0.74327702 </v>
   <v>       0.99998903       0.74999496       0.74327702 </v>
   <v>       0.25000050       0.00000100       0.74325596 </v>
   <v>       0.25000052       0.50000100       0.74325596 </v>
   <v>       0.75000050       0.00000100       0.74325596 </v>
   <v>       0.75000049       0.50000100       0.74325596 </v>
   <v>       0.70522585       0.38589096       0.49615893 </v>
   <v>       0.64966278       0.36121063       0.51019225 </v>
   <v>       0.68770917       0.44133922       0.48124652 </v>
   <v>       0.57905968       0.39336635       0.50993506 </v>
   <v>       0.61717043       0.47347211       0.48061010 </v>
   <v>       0.56236446       0.44939345       0.49506380 </v>
   <v>       0.75916854       0.47453630       0.53446371 </v>
   <v>       0.69327495       0.58409961       0.55018847 </v>
   <v>       0.78824645       0.52030821       0.57200540 </v>
   <v>       0.82428456       0.59420087       0.53909391 </v>
   <v>       0.83171829       0.43189308       0.52979334 </v>
   <v>       0.81789291       0.35552120       0.51979549 </v>
   <v>       0.65592575       0.60044758       0.52906926 </v>
   <v>       0.73918751       0.46014671       0.58123747 </v>
   <v>       0.86174817       0.64835188       0.55410094 </v>
   <v>       0.78296735       0.35544163       0.49730158 </v>
   <v>       0.05587060       0.23890747       0.56633587 </v>
   <v>       0.05017584       0.71005434       0.57296103 </v>
   <v>       0.54186444       0.21440742       0.56180628 </v>
   <v>       0.48721208       0.70221647       0.57031384 </v>
   <v>       0.43862850       0.29066160       0.56378470 </v>
   <v>       0.47877764       0.82663082       0.56068508 </v>
   <v>       0.92627977       0.24531616       0.56481103 </v>
   <v>       0.97896950       0.81546939       0.56625730 </v>
   <v>       0.24180520       0.45388928       0.56709658 </v>
   <v>       0.18479234       0.00384757       0.56058802 </v>
   <v>       0.69374612       0.98266824       0.56636297 </v>
   <v>       0.31220022       0.02314897       0.56260807 </v>
   <v>       0.28332022       0.57600736       0.56390649 </v>
   <v>       0.81218844       0.03234840       0.56980476 </v>
   <v>       0.05498471       0.19857702       0.65677962 </v>
   <v>       0.04942892       0.70915530       0.66048269 </v>
   <v>       0.55120530       0.20729624       0.65756689 </v>
   <v>       0.53750643       0.70931728       0.66177805 </v>
   <v>       0.20810344       0.44343386       0.65743911 </v>
   <v>       0.20786745       0.95804215       0.65821673 </v>
   <v>       0.70438692       0.47394180       0.66169875 </v>
   <v>       0.70413668       0.94889875       0.65877147 </v>
   <v>       0.45618996       0.29493401       0.65846202 </v>
   <v>       0.44935149       0.80314054       0.65776614 </v>
   <v>       0.95921722       0.28334017       0.66166689 </v>
   <v>       0.94873604       0.78956805       0.66062450 </v>
   <v>       0.30234001       0.04701937       0.65697308 </v>
   <v>       0.29077353       0.54242095       0.66128925 </v>
   <v>       0.78993057       0.04662188       0.65837076 </v>
   <v>       0.82288475       0.52170403       0.65546618 </v>
   <v>       0.04586250       0.20411950       0.75272599 </v>
   <v>       0.04586250       0.70411946       0.75272599 </v>
   <v>       0.54586251       0.20411950       0.75272599 </v>
   <v>       0.54586250       0.70411946       0.75272599 </v>
   <v>       0.20411900       0.45410100       0.75270499 </v>
   <v>       0.20411899       0.95410095       0.75270499 </v>
   <v>       0.70411898       0.45410100       0.75270499 </v>
   <v>       0.70411896       0.95410095       0.75270499 </v>
   <v>       0.45414002       0.29588849       0.75272697 </v>
   <v>       0.45414001       0.79588852       0.75272697 </v>
   <v>       0.95414002       0.29588849       0.75272697 </v>
   <v>       0.95414006       0.79588852       0.75272697 </v>
   <v>       0.29588249       0.04590050       0.75270499 </v>
   <v>       0.29588248       0.54590053       0.75270499 </v>
   <v>       0.79588244       0.04590050       0.75270499 </v>
   <v>       0.79588248       0.54590053       0.75270499 </v>
   <v>       0.76678980       0.54128638       0.54900141 </v>
   <v>       0.50438433       0.01803793       0.55286326 </v>
   <v>       0.48256607       0.51266501       0.55541620 </v>
   <v>       0.99504876       0.00534070       0.55190763 </v>
   <v>       0.03437862       0.50642791       0.55412408 </v>
   <v>       0.24758966       0.24870144       0.55377525 </v>
   <v>       0.24289799       0.76483080       0.55268623 </v>
   <v>       0.73883862       0.21208436       0.55649308 </v>
   <v>       0.70415732       0.79326363       0.55106133 </v>
   <v>       0.00396404       0.99614613       0.65453900 </v>
   <v>       0.01446501       0.49208473       0.65568547 </v>
   <v>       0.50234331       0.00095355       0.65486304 </v>
   <v>       0.50290434       0.49419141       0.65520533 </v>
   <v>       0.25759073       0.24558854       0.65458997 </v>
   <v>       0.25099734       0.75321440       0.65465077 </v>
   <v>       0.74740748       0.26058789       0.65536326 </v>
   <v>       0.74959083       0.74328289       0.65401692 </v>
   <v>       0.13840719       0.11489538       0.60715092 </v>
   <v>       0.14717004       0.61203514       0.61080460 </v>
   <v>       0.64387320       0.11192710       0.61030206 </v>
   <v>       0.62333394       0.62554349       0.61335834 </v>
   <v>       0.36038941       0.39169428       0.60927714 </v>
   <v>       0.37442919       0.88182771       0.60586929 </v>
   <v>       0.88552175       0.37033111       0.61244037 </v>
   <v>       0.86793724       0.88147755       0.60995379 </v>
   <v>       0.11694442       0.36357390       0.60886519 </v>
   <v>       0.12003433       0.87538200       0.60818817 </v>
   <v>       0.59130883       0.34585354       0.60409440 </v>
   <v>       0.61204785       0.86453334       0.60985147 </v>
   <v>       0.38264596       0.13306736       0.60671003 </v>
   <v>       0.38016919       0.63431910       0.61327269 </v>
   <v>       0.88811572       0.14268711       0.61362945 </v>
   <v>       0.91075603       0.64930921       0.61688974 </v>
   <v>       0.00000000       0.00000000       0.75492797 </v>
   <v>       0.00000000       0.50000000       0.75492797 </v>
   <v>       0.50000000       0.00000000       0.75492797 </v>
   <v>       0.49999999       0.50000000       0.75492797 </v>
   <v>       0.25000050       0.25000000       0.75493902 </v>
   <v>       0.25000051       0.74999997       0.75493902 </v>
   <v>       0.75000047       0.25000000       0.75493902 </v>
   <v>       0.75000046       0.74999997       0.75493902 </v>
   <v>       0.13579050       0.11421000       0.70478299 </v>
   <v>       0.13579050       0.61420998       0.70478299 </v>
   <v>       0.63579045       0.11421000       0.70478299 </v>
   <v>       0.63579049       0.61420998       0.70478299 </v>
   <v>       0.36420952       0.38578999       0.70478299 </v>
   <v>       0.36420950       0.88578996       0.70478299 </v>
   <v>       0.86420954       0.38578999       0.70478299 </v>
   <v>       0.86420953       0.88578996       0.70478299 </v>
   <v>       0.11421799       0.36421899       0.70478098 </v>
   <v>       0.11421799       0.86421899       0.70478098 </v>
   <v>       0.61421800       0.36421899       0.70478098 </v>
   <v>       0.61421799       0.86421899       0.70478098 </v>
   <v>       0.38578201       0.13578149       0.70478202 </v>
   <v>       0.38578200       0.63578149       0.70478202 </v>
   <v>       0.88578199       0.13578149       0.70478202 </v>
   <v>       0.88578203       0.63578149       0.70478202 </v>
   <v>       0.13466700       0.11533200       0.80125603 </v>
   <v>       0.13466699       0.61533199       0.80125603 </v>
   <v>       0.63466699       0.11533200       0.80125603 </v>
   <v>       0.63466698       0.61533199       0.80125603 </v>
   <v>       0.36533300       0.38466799       0.80125603 </v>
   <v>       0.36533299       0.88466796       0.80125603 </v>
   <v>       0.86533295       0.38466799       0.80125603 </v>
   <v>       0.86533294       0.88466796       0.80125603 </v>
   <v>       0.11532850       0.36533700       0.80126500 </v>
   <v>       0.11532850       0.86533698       0.80126500 </v>
   <v>       0.61532850       0.36533700       0.80126500 </v>
   <v>       0.61532849       0.86533698       0.80126500 </v>
   <v>       0.38467151       0.13466300       0.80126500 </v>
   <v>       0.38467150       0.63466297       0.80126500 </v>
   <v>       0.88467149       0.13466300       0.80126500 </v>
   <v>       0.88467153       0.63466297       0.80126500 </v>
   <v>       0.99645793       0.00363911       0.60514472 </v>
   <v>       0.00555123       0.50720953       0.60423401 </v>
   <v>       0.50360438       0.00625680       0.60517341 </v>
   <v>       0.49802140       0.50332562       0.60449835 </v>
   <v>       0.24964076       0.25238965       0.60477856 </v>
   <v>       0.24664328       0.75539701       0.60363172 </v>
   <v>       0.74722770       0.25833098       0.60574634 </v>
   <v>       0.73866020       0.75654536       0.60179340 </v>
   <v>       0.00000050       0.00000050       0.70482896 </v>
   <v>       0.00000050       0.50000048       0.70482896 </v>
   <v>       0.50000048       0.00000050       0.70482896 </v>
   <v>       0.50000046       0.50000048       0.70482896 </v>
   <v>       0.24999999       0.24999947       0.70482499 </v>
   <v>       0.25000001       0.74999950       0.70482499 </v>
   <v>       0.74999999       0.24999947       0.70482499 </v>
   <v>       0.74999998       0.74999950       0.70482499 </v>
   <v>       0.00000000       0.00000000       0.80731797 </v>
   <v>       0.00000000       0.50000000       0.80731797 </v>
   <v>       0.50000000       0.00000000       0.80731797 </v>
   <v>       0.49999999       0.50000000       0.80731797 </v>
   <v>       0.24999999       0.25000000       0.80731797 </v>
   <v>       0.25000001       0.74999997       0.80731797 </v>
   <v>       0.74999999       0.25000000       0.80731797 </v>
   <v>       0.74999998       0.74999997       0.80731797 </v>
  </varray>
 </structure>
</modeling>
