 vasp.6.2.1 16May21 (build Nov 15 2021 14:57:28) complex                         
 executed on             LinuxPGI date 2023.07.24  23:24:32
 running on    4 total cores
 distrk:  each k-point on    4 cores,    1 groups
 distr:  one band on NCORE=   1 cores,    4 groups


--------------------------------------------------------------------------------------------------------


 INCAR:
   SYSTEM = PSC
   ISTART = 1
   ICHARG = 1
   PREC = Normal
   ENCUT = 500
   GGA_COMPAT = F
   NELM = 600
   ISYM = 0
   LREAL = Auto
   ISMEAR = 0
   SIGMA = 0.05
   AMIN = 0.01
   BMIX = 0.01
   LVTOT = T
   LWAVE = F
   LDIPOL = T
   IDIPOL = 3
   LVDW = T
   IVDW = 12

 POTCAR:    PAW_PBE H 15Jun2001                   
 POTCAR:    PAW_PBE C 08Apr2002                   
 POTCAR:    PAW_PBE N 08Apr2002                   
 POTCAR:    PAW_PBE I 08Apr2002                   
 POTCAR:    PAW_PBE Pb 08Apr2002                  
 WARNING: For LVTOT=.TRUE., VASP.5.x writes the TOTAL local potential to the
     file LOCPOT. If you want only the Hartree contributions, use LVHAR=.TRUE.
     instead. 

 POTCAR:    PAW_PBE H 15Jun2001                   
   SHA256 =  030f79b5d3ab3cf0e668861823c8fb652ff669f3e15e46930bd03bfd63a607b6 H/POTCAR              
   COPYR  = (c) Copyright 15Jun2001 Georg Kresse                                                    
   COPYR  = This file is part of the software VASP. Any use, copying, and all other rights are regul
   COPYR  = If you do not have a valid VASP license, you may not use, copy or distribute this file. 
   VRHFIN =H: ultrasoft test                                                                        
   LEXCH  = PE                                                                                      
   EATOM  =    12.4884 eV,    0.9179 Ry                                                             
                                                                                                    
   TITEL  = PAW_PBE H 15Jun2001                                                                     
   LULTRA =        F    use ultrasoft PP ?                                                          
   IUNSCR =        0    unscreen: 0-lin 1-nonlin 2-no                                               
   RPACOR =    0.000    partial core radius                                                         
   POMASS =    1.000; ZVAL   =    1.000    mass and valenz                                          
   RCORE  =    1.100    outmost cutoff radius                                                       
   RWIGS  =    0.700; RWIGS  =    0.370    wigner-seitz radius (au A)                               
   ENMAX  =  250.000; ENMIN  =  200.000 eV                                                          
   RCLOC  =    0.701    cutoff for local pot                                                        
   LCOR   =        T    correct aug charges                                                         
   LPAW   =        T    paw PP                                                                      
   EAUG   =  400.000                                                                                
   RMAX   =    1.123    core radius for proj-oper                                                   
   RAUG   =    1.200    factor for augmentation sphere                                              
   RDEP   =    1.112    radius for radial grids                                                     
   RDEPT  =    0.926    core radius for aug-charge                                                  
                                                                                                    
   Atomic configuration                                                                             
    2 entries                                                                                       
     n  l   j            E        occ.                                                              
     1  0  0.50        -6.4927   1.0000                                                             
     2  1  0.50        -3.4015   0.0000                                                             
   Description                                                                                      
     l       E           TYP  RCUT    TYP  RCUT                                                     
     0     -6.4927494     23  1.100                                                                 
     0      6.8029130     23  1.100                                                                 
     1     -4.0817478     23  1.100                                                                 
  local pseudopotential read in
  atomic valenz-charges read in
  non local Contribution for L=            0  read in
    real space projection operators read in
  non local Contribution for L=            0  read in
    real space projection operators read in
  non local Contribution for L=            1  read in
    real space projection operators read in
    PAW grid and wavefunctions read in
 
   number of l-projection  operators is LMAX  =            3
   number of lm-projection operators is LMMAX =            5
 
 POTCAR:    PAW_PBE C 08Apr2002                   
   SHA256 =  253f7b50bb8d59471dbedb8285d89021f4a42ed1a2c5d38a03a736e69125dd95 C/POTCAR              
   COPYR  = (c) Copyright 08Apr2002 Georg Kresse                                                    
   COPYR  = This file is part of the software VASP. Any use, copying, and all other rights are regul
   COPYR  = If you do not have a valid VASP license, you may not use, copy or distribute this file. 
   VRHFIN =C: s2p2                                                                                  
   LEXCH  = PE                                                                                      
   EATOM  =   147.1560 eV,   10.8157 Ry                                                             
                                                                                                    
   TITEL  = PAW_PBE C 08Apr2002                                                                     
   LULTRA =        F    use ultrasoft PP ?                                                          
   IUNSCR =        1    unscreen: 0-lin 1-nonlin 2-no                                               
   RPACOR =    1.200    partial core radius                                                         
   POMASS =   12.011; ZVAL   =    4.000    mass and valenz                                          
   RCORE  =    1.500    outmost cutoff radius                                                       
   RWIGS  =    1.630; RWIGS  =    0.863    wigner-seitz radius (au A)                               
   ENMAX  =  400.000; ENMIN  =  300.000 eV                                                          
   ICORE  =        2    local potential                                                             
   LCOR   =        T    correct aug charges                                                         
   LPAW   =        T    paw PP                                                                      
   EAUG   =  644.873                                                                                
   DEXC   =    0.000                                                                                
   RMAX   =    1.529    core radius for proj-oper                                                   
   RAUG   =    1.300    factor for augmentation sphere                                              
   RDEP   =    1.501    radius for radial grids                                                     
   RDEPT  =    1.300    core radius for aug-charge                                                  
                                                                                                    
   Atomic configuration                                                                             
    4 entries                                                                                       
     n  l   j            E        occ.                                                              
     1  0  0.50      -273.3789   2.0000                                                             
     2  0  0.50       -13.7508   2.0000                                                             
     2  1  0.50        -5.2854   2.0000                                                             
     3  2  1.50        -5.4423   0.0000                                                             
   Description                                                                                      
     l       E           TYP  RCUT    TYP  RCUT                                                     
     0    -13.7508458     23  1.200                                                                 
     0     -8.2022199     23  1.200                                                                 
     1     -5.2854383     23  1.500                                                                 
     1     34.0145650     23  1.500                                                                 
     2     -5.4423304      7  1.500                                                                 
  local pseudopotential read in
  partial core-charges read in
  partial kinetic energy density read in
  atomic valenz-charges read in
  non local Contribution for L=            0  read in
    real space projection operators read in
  non local Contribution for L=            0  read in
    real space projection operators read in
  non local Contribution for L=            1  read in
    real space projection operators read in
  non local Contribution for L=            1  read in
    real space projection operators read in
    PAW grid and wavefunctions read in
 
   number of l-projection  operators is LMAX  =            4
   number of lm-projection operators is LMMAX =            8
 
 POTCAR:    PAW_PBE N 08Apr2002                   
   SHA256 =  e053789ff3a61a86a1b75d8a110fcc91f86041011e7b0817c7c99e4e8a6349d7 N/POTCAR              
   COPYR  = (c) Copyright 08Apr2002 Georg Kresse                                                    
   COPYR  = This file is part of the software VASP. Any use, copying, and all other rights are regul
   COPYR  = If you do not have a valid VASP license, you may not use, copy or distribute this file. 
   VRHFIN =N: s2p3                                                                                  
   LEXCH  = PE                                                                                      
   EATOM  =   264.5486 eV,   19.4438 Ry                                                             
                                                                                                    
   TITEL  = PAW_PBE N 08Apr2002                                                                     
   LULTRA =        F    use ultrasoft PP ?                                                          
   IUNSCR =        1    unscreen: 0-lin 1-nonlin 2-no                                               
   RPACOR =    1.200    partial core radius                                                         
   POMASS =   14.001; ZVAL   =    5.000    mass and valenz                                          
   RCORE  =    1.500    outmost cutoff radius                                                       
   RWIGS  =    1.400; RWIGS  =    0.741    wigner-seitz radius (au A)                               
   ENMAX  =  400.000; ENMIN  =  300.000 eV                                                          
   ICORE  =        2    local potential                                                             
   LCOR   =        T    correct aug charges                                                         
   LPAW   =        T    paw PP                                                                      
   EAUG   =  627.112                                                                                
   DEXC   =    0.000                                                                                
   RMAX   =    1.529    core radius for proj-oper                                                   
   RAUG   =    1.300    factor for augmentation sphere                                              
   RDEP   =    1.514    radius for radial grids                                                     
   RDEPT  =    1.338    core radius for aug-charge                                                  
                                                                                                    
   Atomic configuration                                                                             
    4 entries                                                                                       
     n  l   j            E        occ.                                                              
     1  0  0.50      -384.7179   2.0000                                                             
     2  0  0.50       -18.5828   2.0000                                                             
     2  1  0.50        -7.0898   3.0000                                                             
     3  2  1.50        -6.8029   0.0000                                                             
   Description                                                                                      
     l       E           TYP  RCUT    TYP  RCUT                                                     
     0    -18.5828119     23  1.200                                                                 
     0    -13.5018863     23  1.200                                                                 
     1     -7.0897853     23  1.500                                                                 
     1      9.5240782     23  1.500                                                                 
     2     -6.8029130      7  1.500                                                                 
  local pseudopotential read in
  partial core-charges read in
  partial kinetic energy density read in
  atomic valenz-charges read in
  non local Contribution for L=            0  read in
    real space projection operators read in
  non local Contribution for L=            0  read in
    real space projection operators read in
  non local Contribution for L=            1  read in
    real space projection operators read in
  non local Contribution for L=            1  read in
    real space projection operators read in
    PAW grid and wavefunctions read in
 
   number of l-projection  operators is LMAX  =            4
   number of lm-projection operators is LMMAX =            8
 
 POTCAR:    PAW_PBE I 08Apr2002                   
   SHA256 =  e40f3f59b681c1fc3e3091736183c4589116986673d2b852a5012aec72758799 I/POTCAR              
   COPYR  = (c) Copyright 08Apr2002 Georg Kresse                                                    
   COPYR  = This file is part of the software VASP. Any use, copying, and all other rights are regul
   COPYR  = If you do not have a valid VASP license, you may not use, copy or distribute this file. 
   VRHFIN =I : s2p5                                                                                 
   LEXCH  = PE                                                                                      
   EATOM  =   315.8678 eV,   23.2156 Ry                                                             
                                                                                                    
   TITEL  = PAW_PBE I 08Apr2002                                                                     
   LULTRA =        F    use ultrasoft PP ?                                                          
   IUNSCR =        1    unscreen: 0-lin 1-nonlin 2-no                                               
   RPACOR =    2.200    partial core radius                                                         
   POMASS =  126.904; ZVAL   =    7.000    mass and valenz                                          
   RCORE  =    2.300    outmost cutoff radius                                                       
   RWIGS  =    2.810; RWIGS  =    1.487    wigner-seitz radius (au A)                               
   ENMAX  =  175.647; ENMIN  =  131.735 eV                                                          
   ICORE  =        3    local potential                                                             
   LCOR   =        T    correct aug charges                                                         
   LPAW   =        T    paw PP                                                                      
   EAUG   =  370.139                                                                                
   DEXC   =    0.000                                                                                
   RMAX   =    2.359    core radius for proj-oper                                                   
   RAUG   =    1.300    factor for augmentation sphere                                              
   RDEP   =    2.392    radius for radial grids                                                     
   RDEPT  =    2.170    core radius for aug-charge                                                  
                                                                                                    
   Atomic configuration                                                                             
   13 entries                                                                                       
     n  l   j            E        occ.                                                              
     1  0  0.50    -32976.3739   2.0000                                                             
     2  0  0.50     -5094.5933   2.0000                                                             
     2  1  1.50     -4572.0131   6.0000                                                             
     3  0  0.50     -1028.2813   2.0000                                                             
     3  1  1.50      -859.0250   6.0000                                                             
     3  2  2.50      -605.7620  10.0000                                                             
     4  0  0.50      -180.5540   2.0000                                                             
     4  1  1.50      -127.5306   6.0000                                                             
     4  2  2.50       -50.2720  10.0000                                                             
     5  0  0.50       -17.4058   2.0000                                                             
     5  1  0.50        -7.0851   5.0000                                                             
     5  2  1.50        -7.0750   0.0000                                                             
     4  3  2.50        -7.0750   0.0000                                                             
   Description                                                                                      
     l       E           TYP  RCUT    TYP  RCUT                                                     
     0    -17.4058016     23  2.300                                                                 
     0    -18.7663842     23  2.300                                                                 
     1     -7.0850686     23  2.300                                                                 
     1     -4.2150896     23  2.300                                                                 
     2     -7.0750295     23  2.300                                                                 
     3     -1.3605826     23  2.300                                                                 
  local pseudopotential read in
  partial core-charges read in
  partial kinetic energy density read in
  atomic valenz-charges read in
  non local Contribution for L=            0  read in
    real space projection operators read in
  non local Contribution for L=            0  read in
    real space projection operators read in
  non local Contribution for L=            1  read in
    real space projection operators read in
  non local Contribution for L=            1  read in
    real space projection operators read in
  non local Contribution for L=            2  read in
    real space projection operators read in
    PAW grid and wavefunctions read in
 
   number of l-projection  operators is LMAX  =            5
   number of lm-projection operators is LMMAX =           13
 
 POTCAR:    PAW_PBE Pb 08Apr2002                  
   SHA256 =  797118a27cf1bcd06b9881c67a26cdde129e3cd1a551dd4a281f9681ce847303 Pb/POTCAR             
   COPYR  = (c) Copyright 08Apr2002 Georg Kresse                                                    
   COPYR  = This file is part of the software VASP. Any use, copying, and all other rights are regul
   COPYR  = If you do not have a valid VASP license, you may not use, copy or distribute this file. 
   VRHFIN =Pb:                                                                                      
   LEXCH  = PE                                                                                      
   EATOM  =    96.9868 eV,    7.1283 Ry                                                             
                                                                                                    
   TITEL  = PAW_PBE Pb 08Apr2002                                                                    
   LULTRA =        F    use ultrasoft PP ?                                                          
   IUNSCR =        1    unscreen: 0-lin 1-nonlin 2-no                                               
   RPACOR =    2.200    partial core radius                                                         
   POMASS =  207.200; ZVAL   =    4.000    mass and valenz                                          
   RCORE  =    3.100    outmost cutoff radius                                                       
   RWIGS  =    3.260; RWIGS  =    1.725    wigner-seitz radius (au A)                               
   ENMAX  =   97.973; ENMIN  =   73.480 eV                                                          
   ICORE  =        3    local potential                                                             
   LCOR   =        T    correct aug charges                                                         
   LPAW   =        T    paw PP                                                                      
   EAUG   =  234.873                                                                                
   DEXC   =    0.000                                                                                
   RMAX   =    3.158    core radius for proj-oper                                                   
   RAUG   =    1.300    factor for augmentation sphere                                              
   RDEP   =    3.202    radius for radial grids                                                     
   RDEPT  =    2.659    core radius for aug-charge                                                  
                                                                                                    
   Atomic configuration                                                                             
   17 entries                                                                                       
     n  l   j            E        occ.                                                              
     1  0  0.50    -88091.8466   2.0000                                                             
     2  0  0.50    -15753.4197   2.0000                                                             
     2  1  1.50    -13508.1797   6.0000                                                             
     3  0  0.50     -3781.7194   2.0000                                                             
     3  1  1.50     -3138.2529   6.0000                                                             
     3  2  2.50     -2483.2977  10.0000                                                             
     4  0  0.50      -856.2895   2.0000                                                             
     4  1  1.50      -645.4943   6.0000                                                             
     4  2  2.50      -401.8768  10.0000                                                             
     4  3  3.50      -132.9059  14.0000                                                             
     5  0  0.50      -144.0950   2.0000                                                             
     5  1  1.50       -85.7879   6.0000                                                             
     5  2  2.50       -21.1769  10.0000                                                             
     6  0  0.50       -12.0372   2.0000                                                             
     6  1  1.50        -3.4971   2.0000                                                             
     6  2  2.50        -1.3606   0.0000                                                             
     5  3  2.50        -2.7212   0.0000                                                             
   Description                                                                                      
     l       E           TYP  RCUT    TYP  RCUT                                                     
     0    -12.0371566     23  3.100                                                                 
     0    -13.3977392     23  3.100                                                                 
     1     -3.4971341     23  3.100                                                                 
     1     -5.4423304     23  3.100                                                                 
     2     -1.3605826     23  3.100                                                                 
     3     -1.3605826     23  3.100                                                                 
  local pseudopotential read in
  partial core-charges read in
  partial kinetic energy density read in
  atomic valenz-charges read in
  non local Contribution for L=            0  read in
    real space projection operators read in
  non local Contribution for L=            0  read in
    real space projection operators read in
  non local Contribution for L=            1  read in
    real space projection operators read in
  non local Contribution for L=            1  read in
    real space projection operators read in
  non local Contribution for L=            2  read in
    real space projection operators read in
    PAW grid and wavefunctions read in
 
   number of l-projection  operators is LMAX  =            5
   number of lm-projection operators is LMMAX =           13
 
 Optimization of the real space projectors (new method)

 maximal supplied QI-value         = 34.20
 optimisation between [QCUT,QGAM] = [ 11.29, 22.57] = [ 35.68,142.71] Ry 
 Optimized for a Real-space Cutoff    1.16 Angstroem

   l    n(q)    QCUT    max X(q) W(low)/X(q) W(high)/X(q)  e(spline) 
   0      8    11.287    19.460    0.40E-03    0.73E-03    0.16E-06
   0      8    11.287    12.209    0.38E-03    0.70E-03    0.15E-06
   1      7    11.287     4.655    0.22E-03    0.25E-04    0.22E-06
 Optimization of the real space projectors (new method)

 maximal supplied QI-value         = 25.13
 optimisation between [QCUT,QGAM] = [ 11.31, 22.87] = [ 35.82,146.48] Ry 
 Optimized for a Real-space Cutoff    1.00 Angstroem

   l    n(q)    QCUT    max X(q) W(low)/X(q) W(high)/X(q)  e(spline) 
   0      7    11.310   115.676    0.43E-03    0.13E-02    0.19E-06
   0      7    11.310    87.132    0.43E-03    0.13E-02    0.18E-06
   1      6    11.310     4.429    0.42E-03    0.74E-03    0.11E-06
   1      6    11.310     2.733    0.34E-03    0.55E-03    0.92E-07
 Optimization of the real space projectors (new method)

 maximal supplied QI-value         = 25.13
 optimisation between [QCUT,QGAM] = [ 11.31, 22.87] = [ 35.82,146.48] Ry 
 Optimized for a Real-space Cutoff    1.27 Angstroem

   l    n(q)    QCUT    max X(q) W(low)/X(q) W(high)/X(q)  e(spline) 
   0      9    11.310    79.467    0.75E-04    0.16E-03    0.36E-06
   0      9    11.310    66.151    0.74E-04    0.16E-03    0.36E-06
   1      8    11.310    17.416    0.35E-03    0.12E-03    0.95E-06
   1      8    11.310    12.382    0.37E-03    0.13E-03    0.98E-06
 Optimization of the real space projectors (new method)

 maximal supplied QI-value         = 16.25
 optimisation between [QCUT,QGAM] = [ 11.38, 22.75] = [ 36.24,144.96] Ry 
 Optimized for a Real-space Cutoff    1.31 Angstroem

   l    n(q)    QCUT    max X(q) W(low)/X(q) W(high)/X(q)  e(spline) 
   0      9    11.376   194.483    0.24E-03    0.23E-03    0.67E-07
   0      9    11.376   190.334    0.23E-03    0.22E-03    0.65E-07
   1      8    11.376   116.687    0.25E-03    0.63E-04    0.16E-06
   1      8    11.376    88.696    0.25E-03    0.61E-04    0.16E-06
   2      8    11.376     4.877    0.17E-03    0.14E-03    0.29E-07
 Optimization of the real space projectors (new method)

 maximal supplied QI-value         = 12.09
 optimisation between [QCUT,QGAM] = [ 11.37, 22.86] = [ 36.19,146.31] Ry 
 Optimized for a Real-space Cutoff    1.66 Angstroem

   l    n(q)    QCUT    max X(q) W(low)/X(q) W(high)/X(q)  e(spline) 
   0     11    11.369   135.111    0.12E-03    0.69E-04    0.19E-05
   0     11    11.369   146.850    0.11E-03    0.65E-04    0.18E-05
   1     11    11.369   148.016    0.17E-03    0.32E-03    0.89E-06
   1     11    11.369   122.989    0.17E-03    0.32E-03    0.91E-06
   2     10    11.369     8.916    0.12E-03    0.45E-04    0.33E-06
  PAW_PBE H 15Jun2001                   :
 energy of atom  1       EATOM=  -12.4884
 kinetic energy error for atom=    0.0020 (will be added to EATOM!!)
  PAW_PBE C 08Apr2002                   :
 energy of atom  2       EATOM= -147.1560
 kinetic energy error for atom=    0.0076 (will be added to EATOM!!)
  PAW_PBE N 08Apr2002                   :
 energy of atom  3       EATOM= -264.5486
 kinetic energy error for atom=    0.0138 (will be added to EATOM!!)
  PAW_PBE I 08Apr2002                   :
 energy of atom  4       EATOM= -315.8678
 kinetic energy error for atom=    0.0009 (will be added to EATOM!!)
  PAW_PBE Pb 08Apr2002                  :
 energy of atom  5       EATOM=  -96.9868
 kinetic energy error for atom=    0.0000 (will be added to EATOM!!)
 
 
 POSCAR:  H  C  N  I Pb
  positions in cartesian coordinates
  No initial velocities read in
 exchange correlation table for  LEXCH =        8
   RHO(1)=    0.500       N(1)  =     2000
   RHO(2)=  100.500       N(2)  =     4000
 


--------------------------------------------------------------------------------------------------------


 ion  position               nearest neighbor table
   1  0.437  0.306  0.574- 187 1.04
   2  0.433  0.835  0.574- 188 1.03
   3  0.983  0.314  0.583- 189 1.04
   4  0.966  0.806  0.582- 190 1.02
   5  0.315  0.970  0.576- 194 1.02
   6  0.321  0.562  0.577- 195 1.00
   7  0.795  0.070  0.581- 196 1.00
   8  0.040  0.137  0.561- 183 1.02
   9  0.057  0.641  0.561- 184 1.03
  10  0.582  0.186  0.553- 185 1.03
  11  0.534  0.665  0.564- 186 1.02
  12  0.351  0.031  0.558- 194 1.05
  13  0.283  0.621  0.557- 195 1.05
  14  0.865  0.045  0.564- 196 1.03
  15  0.015  0.178  0.585- 183 1.04
  16  0.015  0.677  0.583- 184 1.03
  17  0.564  0.258  0.571- 185 1.04
  18  0.466  0.702  0.581- 186 1.03
  19  0.269  0.435  0.579- 191 1.01
  20  0.179  0.944  0.575- 192 1.01
  21  0.678  0.001  0.580- 193 1.01
  22  0.370  0.262  0.558- 187 1.02
  23  0.485  0.881  0.555- 188 1.03
  24  0.010  0.359  0.559- 189 1.03
  25  0.983  0.855  0.559- 190 1.03
  26  0.192  0.416  0.562- 191 1.03
  27  0.128  0.993  0.556- 192 1.04
  28  0.677  0.924  0.562- 193 1.04
  29  0.456  0.183  0.542- 146 1.08
  30  0.553  0.776  0.546- 147 1.09
  31  0.041  0.247  0.542- 144 1.09
  32  0.041  0.752  0.542- 145 1.07
  33  0.198  0.532  0.546- 148 1.10
  34  0.233  0.055  0.543- 149 1.10
  35  0.794  0.946  0.550- 150 1.10
  36  0.468  0.319  0.674- 205 1.04
  37  0.433  0.819  0.671- 206 1.04
  38  0.972  0.276  0.682- 207 1.04
  39  0.923  0.772  0.673- 208 1.01
  40  0.297  0.055  0.675- 209 1.04
  41  0.308  0.544  0.675- 210 1.02
  42  0.788  0.063  0.675- 211 1.03
  43  0.798  0.589  0.669- 212 1.01
  44  0.086  0.168  0.645- 197 1.01
  45  0.101  0.700  0.656- 198 1.01
  46  0.574  0.164  0.652- 199 1.00
  47  0.574  0.678  0.658- 200 1.04
  48  0.179  0.412  0.650- 201 1.00
  49  0.176  0.917  0.649- 202 1.01
  50  0.701  0.412  0.660- 203 1.04
  51  0.675  0.921  0.649- 204 1.02
  52  0.070  0.180  0.672- 197 1.01
  53  0.039  0.691  0.677- 198 1.00
  54  0.577  0.231  0.672- 199 1.01
  55  0.530  0.718  0.680- 200 1.03
  56  0.212  0.434  0.675- 201 1.03
  57  0.198  0.948  0.674- 202 1.02
  58  0.702  0.488  0.678- 203 1.02
  59  0.688  0.959  0.674- 204 1.02
  60  0.400  0.300  0.655- 205 1.01
  61  0.423  0.834  0.644- 206 1.01
  62  0.932  0.321  0.660- 207 1.03
  63  0.919  0.827  0.650- 208 1.02
  64  0.327  0.080  0.649- 209 1.01
  65  0.324  0.581  0.650- 210 1.02
  66  0.830  0.080  0.651- 211 1.01
  67  0.843  0.578  0.644- 212 1.05
  68  0.000  0.257  0.635- 151 1.08
  69  0.032  0.784  0.638- 152 1.08
  70  0.461  0.203  0.640- 153 1.08
  71  0.510  0.748  0.634- 154 1.07
  72  0.254  0.997  0.632- 156 1.08
  73  0.247  0.501  0.632- 155 1.08
  74  0.763  0.992  0.633- 158 1.08
  75  0.788  0.463  0.638- 157 1.09
  76  0.449  0.301  0.769- 221 1.02
  77  0.449  0.801  0.769- 222 1.02
  78  0.949  0.301  0.769- 223 1.02
  79  0.949  0.801  0.769- 224 1.02
  80  0.301  0.051  0.769- 225 1.02
  81  0.301  0.551  0.769- 226 1.02
  82  0.801  0.051  0.769- 227 1.02
  83  0.801  0.551  0.769- 228 1.02
  84  0.079  0.171  0.743- 213 1.02
  85  0.079  0.671  0.743- 214 1.02
  86  0.579  0.171  0.743- 215 1.02
  87  0.579  0.671  0.743- 216 1.02
  88  0.171  0.421  0.743- 217 1.02
  89  0.171  0.921  0.743- 218 1.02
  90  0.671  0.421  0.743- 219 1.02
  91  0.671  0.921  0.743- 220 1.02
  92  0.051  0.199  0.769- 213 1.02
  93  0.051  0.699  0.769- 214 1.02
  94  0.551  0.199  0.769- 215 1.02
  95  0.551  0.699  0.769- 216 1.02
  96  0.199  0.449  0.769- 217 1.02
  97  0.199  0.949  0.769- 218 1.02
  98  0.699  0.449  0.769- 219 1.02
  99  0.699  0.949  0.769- 220 1.02
 100  0.421  0.329  0.743- 221 1.02
 101  0.421  0.829  0.743- 222 1.02
 102  0.921  0.329  0.743- 223 1.02
 103  0.921  0.829  0.743- 224 1.02
 104  0.329  0.079  0.743- 225 1.02
 105  0.329  0.579  0.743- 226 1.02
 106  0.829  0.079  0.743- 227 1.02
 107  0.829  0.579  0.743- 228 1.02
 108  0.000  0.250  0.726- 161 1.09
 109  0.000  0.750  0.726- 162 1.09
 110  0.500  0.250  0.726- 159 1.09
 111  0.500  0.750  0.726- 160 1.09
 112  0.250  0.000  0.726- 163 1.09
 113  0.250  0.500  0.726- 164 1.09
 114  0.750  0.000  0.726- 165 1.09
 115  0.750  0.500  0.726- 166 1.09
 116  0.775  0.555  0.522- 173 1.10
 117  0.722  0.473  0.527- 173 1.11
 118  0.872  0.500  0.543- 174 1.10
 119  0.855  0.477  0.570- 174 1.10
 120  0.742  0.637  0.560- 175 1.09
 121  0.803  0.596  0.580- 175 1.10
 122  0.666  0.545  0.571- 176 1.11
 123  0.677  0.453  0.561- 176 1.10
 124  0.614  0.549  0.539- 177 1.10
 125  0.667  0.632  0.539- 177 1.12
 126  0.608  0.647  0.507- 178 1.10
 127  0.687  0.603  0.497- 178 1.10
 128  0.823  0.386  0.530- 179 1.09
 129  0.764  0.375  0.553- 179 1.07
 130  0.859  0.362  0.556- 179 1.09
 131  0.864  0.691  0.558- 180 1.09
 132  0.849  0.642  0.534- 180 1.10
 133  0.908  0.605  0.554- 180 1.09
 134  0.758  0.519  0.601- 181 1.11
 135  0.772  0.427  0.590- 181 1.11
 136  0.683  0.453  0.600- 181 1.11
 137  0.535  0.534  0.506- 182 1.11
 138  0.575  0.553  0.481- 182 1.11
 139  0.698  0.483  0.471- 168 1.11
 140  0.560  0.419  0.523- 169 1.09
 141  0.765  0.362  0.473- 170 1.12
 142  0.625  0.300  0.526- 171 1.09
 143  0.728  0.271  0.501- 172 1.09
 144  0.022  0.247  0.559-  31 1.09 183 1.30 189 1.31
 145  0.020  0.748  0.558-  32 1.07 184 1.31 190 1.32
 146  0.473  0.223  0.554-  29 1.08 187 1.30 185 1.32
 147  0.510  0.773  0.558-  30 1.09 188 1.30 186 1.31
 148  0.237  0.518  0.559-  33 1.10 195 1.29 191 1.32
 149  0.239  0.014  0.556-  34 1.10 194 1.29 192 1.32
 150  0.771  0.982  0.562-  35 1.10 193 1.29 196 1.32
 151  0.008  0.245  0.652-  68 1.08 207 1.30 197 1.33
 152  0.010  0.764  0.653-  69 1.08 208 1.31 198 1.34
 153  0.487  0.232  0.653-  70 1.08 205 1.29 199 1.32
 154  0.498  0.756  0.650-  71 1.07 206 1.31 200 1.31
 155  0.251  0.496  0.649-  73 1.08 201 1.30 210 1.32
 156  0.252  0.999  0.649-  72 1.08 209 1.29 202 1.31
 157  0.772  0.494  0.652-  75 1.09 212 1.31 203 1.31
 158  0.754  0.001  0.649-  74 1.08 211 1.29 204 1.32
 159  0.500  0.250  0.743- 110 1.09 221 1.31 215 1.31
 160  0.500  0.750  0.743- 111 1.09 222 1.31 216 1.31
 161  1.000  0.250  0.743- 108 1.09 223 1.31 213 1.31
 162  1.000  0.750  0.743- 109 1.09 224 1.31 214 1.31
 163  0.250  0.000  0.743- 112 1.09 225 1.31 218 1.31
 164  0.250  0.500  0.743- 113 1.09 226 1.31 217 1.31
 165  0.750  0.000  0.743- 114 1.09 227 1.31 220 1.31
 166  0.750  0.500  0.743- 115 1.09 228 1.31 219 1.31
 167  0.625  0.460  0.497- 169 1.40 168 1.40 182 1.50
 168  0.682  0.442  0.483- 139 1.11 170 1.38 167 1.40
 169  0.605  0.407  0.512- 140 1.09 171 1.38 167 1.40
 170  0.719  0.375  0.484- 141 1.12 168 1.38 172 1.39
 171  0.641  0.339  0.514- 142 1.09 169 1.38 172 1.39
 172  0.698  0.323  0.500- 143 1.09 170 1.39 171 1.39
 173  0.731  0.531  0.532- 116 1.10 117 1.11 177 1.53 229 1.53
 174  0.831  0.475  0.554- 118 1.10 119 1.10 179 1.50 229 1.52
 175  0.790  0.601  0.563- 120 1.09 121 1.10 180 1.51 229 1.51
 176  0.705  0.498  0.570- 123 1.10 122 1.11 181 1.52 229 1.54
 177  0.661  0.577  0.530- 124 1.10 125 1.12 173 1.53 178 1.54
 178  0.638  0.595  0.507- 126 1.10 127 1.10 182 1.53 177 1.54
 179  0.817  0.396  0.548- 129 1.07 128 1.09 130 1.09 174 1.50
 180  0.856  0.635  0.551- 133 1.09 131 1.09 132 1.10 175 1.51
 181  0.732  0.474  0.592- 135 1.11 136 1.11 134 1.11 176 1.52
 182  0.589  0.535  0.497- 138 1.11 137 1.11 167 1.50 178 1.53
 183  0.025  0.185  0.569-   8 1.02  15 1.04 144 1.30
 184  0.033  0.686  0.568-   9 1.03  16 1.03 145 1.31
 185  0.543  0.222  0.559-  10 1.03  17 1.04 146 1.32
 186  0.504  0.710  0.569-  11 1.02  18 1.03 147 1.31
 187  0.425  0.269  0.561-  22 1.02   1 1.04 146 1.30
 188  0.472  0.832  0.562-  23 1.03   2 1.03 147 1.30
 189  0.999  0.309  0.567-  24 1.03   3 1.04 144 1.31
 190  0.984  0.804  0.566-   4 1.02  25 1.03 145 1.32
 191  0.234  0.451  0.567-  19 1.01  26 1.03 148 1.32
 192  0.179  0.979  0.563-  20 1.01  27 1.04 149 1.32
 193  0.703  0.972  0.568-  21 1.01  28 1.04 150 1.29
 194  0.304  0.006  0.564-   5 1.02  12 1.05 149 1.29
 195  0.284  0.568  0.565-   6 1.00  13 1.05 148 1.29
 196  0.813  0.034  0.570-   7 1.00  14 1.03 150 1.32
 197  0.058  0.194  0.657-  52 1.01  44 1.01 151 1.33
 198  0.053  0.714  0.663-  53 1.00  45 1.01 152 1.34
 199  0.551  0.207  0.659-  46 1.00  54 1.01 153 1.32
 200  0.536  0.716  0.664-  55 1.03  47 1.04 154 1.31
 201  0.212  0.445  0.659-  48 1.00  56 1.03 155 1.30
 202  0.206  0.953  0.658-  49 1.01  57 1.02 156 1.31
 203  0.722  0.464  0.664-  58 1.02  50 1.04 157 1.31
 204  0.703  0.958  0.658-  51 1.02  59 1.02 158 1.32
 205  0.450  0.287  0.661-  60 1.01  36 1.04 153 1.29
 206  0.449  0.806  0.656-  61 1.01  37 1.04 154 1.31
 207  0.969  0.282  0.666-  62 1.03  38 1.04 151 1.30
 208  0.946  0.788  0.659-  39 1.01  63 1.02 152 1.31
 209  0.294  0.047  0.658-  64 1.01  40 1.04 156 1.29
 210  0.297  0.543  0.659-  65 1.02  41 1.02 155 1.32
 211  0.792  0.050  0.659-  66 1.01  42 1.03 158 1.29
 212  0.804  0.558  0.655-  43 1.01  67 1.05 157 1.31
 213  0.046  0.204  0.753-  92 1.02  84 1.02 161 1.31
 214  0.046  0.704  0.753-  93 1.02  85 1.02 162 1.31
 215  0.546  0.204  0.753-  94 1.02  86 1.02 159 1.31
 216  0.546  0.704  0.753-  95 1.02  87 1.02 160 1.31
 217  0.204  0.454  0.753-  96 1.02  88 1.02 164 1.31
 218  0.204  0.954  0.753-  97 1.02  89 1.02 163 1.31
 219  0.704  0.454  0.753-  98 1.02  90 1.02 166 1.31
 220  0.704  0.954  0.753-  99 1.02  91 1.02 165 1.31
 221  0.454  0.296  0.753-  76 1.02 100 1.02 159 1.31
 222  0.454  0.796  0.753-  77 1.02 101 1.02 160 1.31
 223  0.954  0.296  0.753-  78 1.02 102 1.02 161 1.31
 224  0.954  0.796  0.753-  79 1.02 103 1.02 162 1.31
 225  0.296  0.046  0.753-  80 1.02 104 1.02 163 1.31
 226  0.296  0.546  0.753-  81 1.02 105 1.02 164 1.31
 227  0.796  0.046  0.753-  82 1.02 106 1.02 165 1.31
 228  0.796  0.546  0.753-  83 1.02 107 1.02 166 1.31
 229  0.765  0.526  0.554- 175 1.51 174 1.52 173 1.53 176 1.54
 230  0.503  0.023  0.552- 304 3.22
 231  0.471  0.509  0.557- 305 3.10
 232  0.988  0.997  0.550- 302 3.48
 233  0.037  0.494  0.553- 303 3.40
 234  0.230  0.234  0.553- 306 3.18
 235  0.259  0.761  0.553- 307 3.12
 236  0.743  0.208  0.555- 308 3.11
 237  0.714  0.789  0.548- 309 3.51
 238  0.002  0.992  0.654- 302 3.06 310 3.15
 239  0.013  0.497  0.656- 303 3.06 311 3.08
 240  0.498  0.008  0.655- 312 3.13 304 3.18
 241  0.504  0.493  0.656- 313 3.08 305 3.13
 242  0.254  0.246  0.655- 314 3.11 306 3.24
 243  0.246  0.753  0.654- 315 3.15 307 3.24
 244  0.744  0.264  0.655- 316 3.13 308 3.22
 245  0.752  0.754  0.654- 317 3.19 309 3.20
 246  0.140  0.104  0.611- 306 3.18 302 3.26
 247  0.147  0.606  0.610- 307 3.15 303 3.19
 248  0.650  0.102  0.611- 308 3.15 304 3.18
 249  0.617  0.637  0.615- 309 3.12 305 3.42
 250  0.356  0.391  0.609- 305 3.17 306 3.35
 251  0.362  0.891  0.608- 304 3.32 307 3.35
 252  0.893  0.362  0.614- 303 3.24 308 3.48
 253  0.866  0.881  0.609- 302 3.16 309 3.29
 254  0.118  0.357  0.611- 306 3.14 303 3.26
 255  0.119  0.868  0.608- 307 3.23 302 3.30
 256  0.578  0.329  0.605- 308 3.30 305 3.34
 257  0.615  0.866  0.612- 309 3.05 304 3.32
 258  0.383  0.132  0.607- 304 3.10 306 3.20
 259  0.389  0.640  0.612- 307 3.23 305 3.30
 260  0.889  0.140  0.613- 302 3.18 308 3.34
 261  0.913  0.647  0.615- 303 3.21 309 3.80
 262  0.000  0.000  0.755- 310 3.13 318 3.27
 263  0.000  0.500  0.755- 311 3.13 319 3.27
 264  0.500  0.000  0.755- 312 3.13 320 3.27
 265  0.500  0.500  0.755- 313 3.13 321 3.27
 266  0.250  0.250  0.755- 314 3.13 322 3.27
 267  0.250  0.750  0.755- 315 3.13 323 3.27
 268  0.750  0.250  0.755- 316 3.13 324 3.27
 269  0.750  0.750  0.755- 317 3.13 325 3.27
 270  0.136  0.114  0.705- 310 3.20 314 3.20
 271  0.136  0.614  0.705- 311 3.20 315 3.20
 272  0.636  0.114  0.705- 312 3.20 316 3.20
 273  0.636  0.614  0.705- 313 3.20 317 3.20
 274  0.364  0.386  0.705- 313 3.20 314 3.20
 275  0.364  0.886  0.705- 312 3.20 315 3.20
 276  0.864  0.386  0.705- 311 3.20 316 3.20
 277  0.864  0.886  0.705- 310 3.20 317 3.20
 278  0.114  0.364  0.705- 314 3.21 311 3.21
 279  0.114  0.864  0.705- 315 3.21 310 3.21
 280  0.614  0.364  0.705- 316 3.21 313 3.21
 281  0.614  0.864  0.705- 317 3.21 312 3.21
 282  0.386  0.136  0.705- 314 3.21 312 3.21
 283  0.386  0.636  0.705- 315 3.21 313 3.21
 284  0.886  0.136  0.705- 316 3.21 310 3.21
 285  0.886  0.636  0.705- 317 3.21 311 3.21
 286  0.135  0.115  0.801- 318 3.22 322 3.22
 287  0.135  0.615  0.801- 319 3.22 323 3.22
 288  0.635  0.115  0.801- 320 3.22 324 3.22
 289  0.635  0.615  0.801- 321 3.22 325 3.22
 290  0.365  0.385  0.801- 321 3.22 322 3.22
 291  0.365  0.885  0.801- 320 3.22 323 3.22
 292  0.865  0.385  0.801- 319 3.22 324 3.22
 293  0.865  0.885  0.801- 318 3.22 325 3.22
 294  0.115  0.365  0.801- 319 3.23 322 3.23
 295  0.115  0.865  0.801- 318 3.23 323 3.23
 296  0.615  0.365  0.801- 321 3.23 324 3.23
 297  0.615  0.865  0.801- 320 3.23 325 3.23
 298  0.385  0.135  0.801- 320 3.23 322 3.23
 299  0.385  0.635  0.801- 321 3.23 323 3.23
 300  0.885  0.135  0.801- 318 3.23 324 3.23
 301  0.885  0.635  0.801- 319 3.23 325 3.23
 302  0.993  1.000  0.606- 238 3.06 253 3.16 260 3.18 246 3.26 255 3.30 232 3.48
 303  0.007  0.499  0.607- 239 3.06 247 3.19 261 3.21 252 3.24 254 3.26 233 3.40
 304  0.503  0.009  0.604- 258 3.10 248 3.18 240 3.18 230 3.22 251 3.32 257 3.32
 305  0.497  0.494  0.606- 231 3.10 241 3.13 250 3.17 259 3.30 256 3.34 249 3.42
 306  0.245  0.243  0.603- 254 3.14 234 3.18 246 3.18 258 3.20 242 3.24 250 3.35
 307  0.248  0.746  0.603- 235 3.12 247 3.15 255 3.23 259 3.23 243 3.24 251 3.35
 308  0.742  0.248  0.604- 236 3.11 248 3.15 244 3.22 256 3.30 260 3.34 252 3.48
 309  0.737  0.754  0.603- 257 3.05 249 3.12 245 3.20 253 3.29 237 3.51 261 3.80
 310  0.000  0.000  0.705- 262 3.13 238 3.15 270 3.20 277 3.20 279 3.21 284 3.21
 311  0.000  0.500  0.705- 239 3.08 263 3.13 271 3.20 276 3.20 278 3.21 285 3.21
 312  0.500  0.000  0.705- 264 3.13 240 3.13 272 3.20 275 3.20 281 3.21 282 3.21
 313  0.500  0.500  0.705- 241 3.08 265 3.13 273 3.20 274 3.20 280 3.21 283 3.21
 314  0.250  0.250  0.705- 242 3.11 266 3.13 270 3.20 274 3.20 282 3.21 278 3.21
 315  0.250  0.750  0.705- 267 3.13 243 3.15 271 3.20 275 3.20 283 3.21 279 3.21
 316  0.750  0.250  0.705- 268 3.13 244 3.13 272 3.20 276 3.20 284 3.21 280 3.21
 317  0.750  0.750  0.705- 269 3.13 245 3.19 273 3.20 277 3.20 285 3.21 281 3.21
 318  0.000  0.000  0.807- 286 3.22 293 3.22 300 3.23 295 3.23 262 3.27
 319  0.000  0.500  0.807- 287 3.22 292 3.22 301 3.23 294 3.23 263 3.27
 320  0.500  0.000  0.807- 288 3.22 291 3.22 298 3.23 297 3.23 264 3.27
 321  0.500  0.500  0.807- 289 3.22 290 3.22 299 3.23 296 3.23 265 3.27
 322  0.250  0.250  0.807- 290 3.22 286 3.22 294 3.23 298 3.23 266 3.27
 323  0.250  0.750  0.807- 291 3.22 287 3.22 299 3.23 295 3.23 267 3.27
 324  0.750  0.250  0.807- 292 3.22 288 3.22 296 3.23 300 3.23 268 3.27
 325  0.750  0.750  0.807- 293 3.22 289 3.22 297 3.23 301 3.23 269 3.27
 

IMPORTANT INFORMATION: All symmetrisations will be switched off!
NOSYMM: (Re-)initialisation of all symmetry stuff for point group C_1.


----------------------------------------------------------------------------------------

                                     Primitive cell                                     

  volume of cell :   20385.2105

  direct lattice vectors                    reciprocal lattice vectors
    18.060800552  0.000000000  0.000000000     0.055368531  0.000015077 -0.000000000
    -0.004918649 18.062799454  0.000000000     0.000000000  0.055362404  0.000000000
     0.000000000  0.000000000 62.487499237     0.000000000 -0.000000000  0.016003201

  length of vectors
    18.060800552 18.062800123 62.487499237     0.055368533  0.055362404  0.016003201

  position of ions in fractional coordinates (direct lattice)
     0.437221522  0.305961658  0.573661126
     0.432564672  0.835280354  0.573979061
     0.983472241  0.314351292  0.582592783
     0.965697693  0.805944472  0.581551132
     0.315333839  0.969697768  0.576463383
     0.320999762  0.561632501  0.576612644
     0.794844239  0.069637662  0.581391127
     0.040042351  0.136676502  0.561418931
     0.057088570  0.641055874  0.560528006
     0.581624639  0.186010781  0.552908806
     0.533831669  0.665288383  0.563789523
     0.351264798  0.030557357  0.557683626
     0.283373009  0.620854998  0.557453905
     0.865019406  0.044991120  0.563895318
     0.014507996  0.178416782  0.585302309
     0.015463557  0.676815652  0.583430780
     0.563641394  0.257579163  0.571018508
     0.466396252  0.702484945  0.580895422
     0.269052945  0.434504819  0.578571410
     0.178865673  0.943855094  0.574962351
     0.678327852  0.000702500  0.579933560
     0.370112671  0.262219685  0.558074390
     0.484760452  0.881341968  0.554519968
     0.009828694  0.358889401  0.558938882
     0.983299878  0.854869622  0.558518876
     0.192341569  0.415718710  0.562025498
     0.128162269  0.993396598  0.556148102
     0.676831468  0.923979696  0.562466321
     0.456120846  0.182880934  0.541962037
     0.553091023  0.775804798  0.545842757
     0.040900984  0.246982822  0.541982243
     0.041071350  0.752337011  0.541821933
     0.197654908  0.531792242  0.545916014
     0.233390134  0.054933594  0.542980124
     0.793841174  0.945518176  0.549910953
     0.467609423  0.318620145  0.673599511
     0.432714484  0.819413272  0.671131549
     0.971654834  0.276155348  0.682236614
     0.922887090  0.771836523  0.673389996
     0.297329606  0.055134093  0.674821740
     0.308355149  0.543555518  0.674672907
     0.788209164  0.063074030  0.675413594
     0.798275951  0.589490945  0.668537707
     0.085714978  0.168360707  0.644770930
     0.100978593  0.699729697  0.655917507
     0.574331784  0.163718232  0.651881239
     0.573836699  0.677916062  0.657699114
     0.179285819  0.411861759  0.649874307
     0.175848197  0.917328730  0.649295700
     0.701383249  0.412312097  0.660475609
     0.675409692  0.920922221  0.648616303
     0.069625561  0.179565528  0.672023817
     0.039276389  0.690935870  0.676702304
     0.577411027  0.230625408  0.671857585
     0.529996245  0.718271564  0.680284930
     0.212062352  0.434397957  0.674785417
     0.197576171  0.948013171  0.674424688
     0.702489900  0.487521844  0.678121228
     0.687732077  0.958695796  0.673790772
     0.399847895  0.300278328  0.654763346
     0.422772448  0.834152754  0.643773233
     0.931880719  0.320861750  0.660006094
     0.919356909  0.826536315  0.650406212
     0.326838007  0.079990717  0.649496912
     0.323793158  0.580666284  0.649609727
     0.830379156  0.079641513  0.651073094
     0.842748417  0.577854595  0.644235728
     0.000458161  0.256605705  0.635379647
     0.032321808  0.784096466  0.637724599
     0.460819509  0.202631802  0.639574883
     0.510197835  0.747608238  0.633723798
     0.254265164  0.996643714  0.631645441
     0.246505050  0.501438315  0.632104700
     0.763342265  0.992234846  0.632509566
     0.787691256  0.463417528  0.637722035
     0.448745018  0.301283966  0.768889017
     0.448745007  0.801283913  0.768889017
     0.948744965  0.301283966  0.768889017
     0.948745007  0.801283913  0.768889017
     0.301275995  0.051294496  0.768872961
     0.301276011  0.551294499  0.768872961
     0.801275943  0.051294496  0.768872961
     0.801275984  0.551294499  0.768872961
     0.078771004  0.171180501  0.743441971
     0.078771006  0.671180448  0.743441971
     0.578771004  0.171180501  0.743441971
     0.578770992  0.671180448  0.743441971
     0.171199499  0.421174482  0.743421032
     0.171199501  0.921174508  0.743421032
     0.671199512  0.421174482  0.743421032
     0.671199501  0.921174508  0.743421032
     0.051256000  0.198714991  0.768889017
     0.051256002  0.698714925  0.768889017
     0.551256027  0.198714991  0.768889017
     0.551256016  0.698714925  0.768889017
     0.198723491  0.448703970  0.768872046
     0.198723493  0.948703970  0.768872046
     0.698723518  0.448703970  0.768872046
     0.698723507  0.948703970  0.768872046
     0.421231519  0.328817467  0.743441971
     0.421231508  0.828817440  0.743441971
     0.921231466  0.328817467  0.743441971
     0.921231508  0.828817440  0.743441971
     0.328800503  0.078824997  0.743421032
     0.328800492  0.578824964  0.743421032
     0.828800477  0.078824997  0.743421032
     0.828800519  0.578824964  0.743421032
     0.000003500  0.250001478  0.725821992
     0.000003500  0.750001452  0.725821992
     0.500003506  0.250001478  0.725821992
     0.500003495  0.750001452  0.725821992
     0.250000502  0.000000000  0.725803983
     0.250000517  0.500000000  0.725803983
     0.750000502  0.000000000  0.725803983
     0.750000490  0.500000000  0.725803983
     0.774791962  0.555045935  0.521976045
     0.722141955  0.472787430  0.526878698
     0.872215571  0.500214570  0.543326506
     0.854668494  0.477203377  0.570292593
     0.742276387  0.636883219  0.560475688
     0.802714912  0.595614581  0.579764092
     0.665553931  0.544934435  0.571199696
     0.677251474  0.452934280  0.560795821
     0.614450223  0.549149857  0.538616336
     0.666867874  0.631916011  0.538730311
     0.607744828  0.647143555  0.506821219
     0.687456086  0.603039680  0.497205526
     0.822771560  0.386068286  0.530492335
     0.764480627  0.375057193  0.552660954
     0.858928794  0.362047443  0.555645682
     0.863829222  0.690672515  0.557777883
     0.848534835  0.641818167  0.534081005
     0.907679533  0.605272020  0.554264119
     0.757893318  0.519258596  0.600951802
     0.771841435  0.427190648  0.590409593
     0.683235501  0.453367960  0.600304516
     0.535403364  0.534015184  0.506086911
     0.575063702  0.553467758  0.480550889
     0.697600318  0.483158219  0.470698973
     0.559684202  0.419129706  0.523363102
     0.764590622  0.362473072  0.472862523
     0.624965314  0.299628494  0.526015427
     0.727594248  0.270794349  0.501082522
     0.021968278  0.246614664  0.558566981
     0.020245570  0.747847622  0.557748458
     0.473089397  0.222725499  0.553911021
     0.510275147  0.772841263  0.558198133
     0.237398970  0.518199421  0.558606235
     0.239303186  0.014335581  0.555939137
     0.770813752  0.982330407  0.562220666
     0.008194892  0.245070938  0.652125123
     0.009992871  0.763754145  0.652708797
     0.486575033  0.231761535  0.652670154
     0.498324827  0.756242140  0.650312260
     0.251034514  0.495824705  0.649190515
     0.251734354  0.999110349  0.648922151
     0.771508356  0.494297531  0.651896989
     0.753905764  0.000647206  0.649408759
     0.499988984  0.249994984  0.743277021
     0.499989025  0.749994958  0.743277021
     0.999988984  0.249994984  0.743277021
     0.999989025  0.749994958  0.743277021
     0.250000502  0.000001000  0.743255960
     0.250000517  0.500001003  0.743255960
     0.750000502  0.000001000  0.743255960
     0.750000491  0.500001003  0.743255960
     0.624679525  0.460306159  0.497351857
     0.682484284  0.442191901  0.483281843
     0.604654405  0.406566361  0.512436600
     0.718533807  0.374767598  0.484245323
     0.640592127  0.339277589  0.513706629
     0.698241826  0.323384187  0.499640339
     0.731071510  0.530762582  0.531970781
     0.831467133  0.474836562  0.554072613
     0.790271896  0.601170060  0.562620954
     0.704533090  0.498027531  0.569624735
     0.660552759  0.577158880  0.530468649
     0.638062628  0.594638721  0.507312345
     0.817341550  0.396114237  0.547634497
     0.856228438  0.634913231  0.551360218
     0.732384724  0.473914503  0.591530362
     0.588591473  0.535352814  0.497068689
     0.025403586  0.184622149  0.569057544
     0.032655592  0.685898916  0.567884580
     0.543466508  0.222009219  0.559314934
     0.503747534  0.710074351  0.568587174
     0.424796100  0.268898251  0.561486999
     0.471528567  0.832275109  0.561865920
     0.998666934  0.309493666  0.566579692
     0.983592043  0.804275378  0.566046322
     0.233609511  0.451066614  0.566919604
     0.179385587  0.979474106  0.562539211
     0.702876649  0.971831997  0.568084754
     0.304215216  0.005502522  0.564350670
     0.283691112  0.568364947  0.564850465
     0.813490571  0.034257077  0.570405958
     0.058146622  0.193589100  0.656778764
     0.052535466  0.714157356  0.662697733
     0.551304319  0.206968922  0.659362655
     0.535858016  0.715545724  0.663855374
     0.212261135  0.444543722  0.658604202
     0.206013681  0.952831272  0.658349879
     0.722128936  0.463956275  0.664488008
     0.702959759  0.957865123  0.658010455
     0.450284792  0.286827427  0.660710825
     0.448591169  0.805665384  0.655578633
     0.968679818  0.282098231  0.665753398
     0.945911218  0.787855135  0.659446900
     0.293872307  0.046844940  0.658395237
     0.296613476  0.542636521  0.658645470
     0.792414629  0.050201907  0.659334573
     0.804006960  0.557801658  0.655353857
     0.045862501  0.204119496  0.752725994
     0.045862500  0.704119456  0.752725994
     0.545862507  0.204119496  0.752725994
     0.545862496  0.704119456  0.752725994
     0.204119002  0.454101003  0.752704994
     0.204118991  0.954100951  0.752704994
     0.704118976  0.454101003  0.752704994
     0.704118964  0.954100951  0.752704994
     0.454140018  0.295888490  0.752726971
     0.454140007  0.795888516  0.752726971
     0.954140018  0.295888490  0.752726971
     0.954140060  0.795888516  0.752726971
     0.295882492  0.045900498  0.752704994
     0.295882481  0.545900528  0.752704994
     0.795882439  0.045900498  0.752704994
     0.795882481  0.545900528  0.752704994
     0.765101471  0.526408249  0.554387740
     0.503379051  0.023244218  0.552496370
     0.471190896  0.508704124  0.556740322
     0.987657789  0.996744695  0.550006798
     0.037462131  0.493987292  0.553071314
     0.229677076  0.233829146  0.552786467
     0.259094113  0.760516748  0.553027849
     0.742751442  0.207932889  0.555245394
     0.713533205  0.788718905  0.547838395
     0.001590757  0.991645272  0.654419771
     0.012778881  0.497148924  0.655710862
     0.497588985  0.007738282  0.654770305
     0.504381007  0.493263119  0.655563738
     0.253958917  0.245843897  0.655119924
     0.245913688  0.752953899  0.654456278
     0.743720679  0.264454427  0.654888798
     0.752026773  0.753606162  0.653712599
     0.139965766  0.103828372  0.610527325
     0.146865441  0.605738857  0.609725529
     0.649678823  0.102337035  0.611372160
     0.617277144  0.636706188  0.614530262
     0.355558214  0.390556540  0.609209496
     0.362468021  0.891037791  0.608157467
     0.893100010  0.362370855  0.614191571
     0.866133946  0.880517479  0.609451976
     0.117795440  0.357417560  0.611318011
     0.118717995  0.867629243  0.607798386
     0.578397298  0.328562507  0.605417172
     0.615014688  0.866336597  0.611816524
     0.383383241  0.131862197  0.606781703
     0.388731334  0.640209104  0.611755476
     0.889169993  0.139564431  0.612636512
     0.912580709  0.646584849  0.615054659
     0.000000000  0.000000000  0.754927972
     0.000000000  0.500000000  0.754927972
     0.500000000  0.000000000  0.754927972
     0.499999989  0.500000000  0.754927972
     0.250000496  0.250000000  0.754939022
     0.250000511  0.749999974  0.754939022
     0.750000470  0.250000000  0.754939022
     0.750000458  0.749999974  0.754939022
     0.135790500  0.114209997  0.704782994
     0.135790502  0.614209984  0.704782994
     0.635790447  0.114209997  0.704782994
     0.635790488  0.614209984  0.704782994
     0.364209516  0.385789989  0.704782994
     0.364209505  0.885789963  0.704782994
     0.864209542  0.385789989  0.704782994
     0.864209531  0.885789963  0.704782994
     0.114217990  0.364218986  0.704780979
     0.114217992  0.864218986  0.704780979
     0.614218004  0.364218986  0.704780979
     0.614217992  0.864218986  0.704780979
     0.385782012  0.135781489  0.704782017
     0.385782001  0.635781489  0.704782017
     0.885781985  0.135781489  0.704782017
     0.885782027  0.635781489  0.704782017
     0.134667000  0.115332001  0.801256025
     0.134666989  0.615331988  0.801256025
     0.634666987  0.115332001  0.801256025
     0.634666976  0.615331988  0.801256025
     0.365333002  0.384667985  0.801256025
     0.365332990  0.884667959  0.801256025
     0.865332949  0.384667985  0.801256025
     0.865332938  0.884667959  0.801256025
     0.115328503  0.365337004  0.801264999
     0.115328505  0.865336978  0.801264999
     0.615328503  0.365337004  0.801264999
     0.615328492  0.865336978  0.801264999
     0.384671513  0.134662996  0.801264999
     0.384671501  0.634662970  0.801264999
     0.884671486  0.134662996  0.801264999
     0.884671528  0.634662970  0.801264999
     0.993261508  0.999949226  0.605604405
     0.006856465  0.498673775  0.606795744
     0.502519360  0.008909533  0.603852528
     0.496664401  0.494227733  0.605573087
     0.245406549  0.242780046  0.603406455
     0.248161113  0.745878427  0.602686951
     0.742345072  0.247894375  0.603601441
     0.737093319  0.754268668  0.602732492
     0.000000500  0.000000500  0.704828963
     0.000000500  0.500000475  0.704828963
     0.500000475  0.000000500  0.704828963
     0.500000464  0.500000475  0.704828963
     0.249999994  0.249999472  0.704824995
     0.250000010  0.749999498  0.704824995
     0.749999994  0.249999472  0.704824995
     0.749999983  0.749999498  0.704824995
     0.000000000  0.000000000  0.807317968
     0.000000000  0.500000000  0.807317968
     0.500000000  0.000000000  0.807317968
     0.499999989  0.500000000  0.807317968
     0.249999994  0.250000000  0.807317968
     0.250000010  0.749999974  0.807317968
     0.749999994  0.250000000  0.807317968
     0.749999983  0.749999974  0.807317968

  ion indices of the primitive-cell ions
   primitive index   ion index
                 1           1
                 2           2
                 3           3
                 4           4
                 5           5
                 6           6
                 7           7
                 8           8
                 9           9
                10          10
                11          11
                12          12
                13          13
                14          14
                15          15
                16          16
                17          17
                18          18
                19          19
                20          20
                21          21
                22          22
                23          23
                24          24
                25          25
                26          26
                27          27
                28          28
                29          29
                30          30
                31          31
                32          32
                33          33
                34          34
                35          35
                36          36
                37          37
                38          38
                39          39
                40          40
                41          41
                42          42
                43          43
                44          44
                45          45
                46          46
                47          47
                48          48
                49          49
                50          50
                51          51
                52          52
                53          53
                54          54
                55          55
                56          56
                57          57
                58          58
                59          59
                60          60
                61          61
                62          62
                63          63
                64          64
                65          65
                66          66
                67          67
                68          68
                69          69
                70          70
                71          71
                72          72
                73          73
                74          74
                75          75
                76          76
                77          77
                78          78
                79          79
                80          80
                81          81
                82          82
                83          83
                84          84
                85          85
                86          86
                87          87
                88          88
                89          89
                90          90
                91          91
                92          92
                93          93
                94          94
                95          95
                96          96
                97          97
                98          98
                99          99
               100         100
               101         101
               102         102
               103         103
               104         104
               105         105
               106         106
               107         107
               108         108
               109         109
               110         110
               111         111
               112         112
               113         113
               114         114
               115         115
               116         116
               117         117
               118         118
               119         119
               120         120
               121         121
               122         122
               123         123
               124         124
               125         125
               126         126
               127         127
               128         128
               129         129
               130         130
               131         131
               132         132
               133         133
               134         134
               135         135
               136         136
               137         137
               138         138
               139         139
               140         140
               141         141
               142         142
               143         143
               144         144
               145         145
               146         146
               147         147
               148         148
               149         149
               150         150
               151         151
               152         152
               153         153
               154         154
               155         155
               156         156
               157         157
               158         158
               159         159
               160         160
               161         161
               162         162
               163         163
               164         164
               165         165
               166         166
               167         167
               168         168
               169         169
               170         170
               171         171
               172         172
               173         173
               174         174
               175         175
               176         176
               177         177
               178         178
               179         179
               180         180
               181         181
               182         182
               183         183
               184         184
               185         185
               186         186
               187         187
               188         188
               189         189
               190         190
               191         191
               192         192
               193         193
               194         194
               195         195
               196         196
               197         197
               198         198
               199         199
               200         200
               201         201
               202         202
               203         203
               204         204
               205         205
               206         206
               207         207
               208         208
               209         209
               210         210
               211         211
               212         212
               213         213
               214         214
               215         215
               216         216
               217         217
               218         218
               219         219
               220         220
               221         221
               222         222
               223         223
               224         224
               225         225
               226         226
               227         227
               228         228
               229         229
               230         230
               231         231
               232         232
               233         233
               234         234
               235         235
               236         236
               237         237
               238         238
               239         239
               240         240
               241         241
               242         242
               243         243
               244         244
               245         245
               246         246
               247         247
               248         248
               249         249
               250         250
               251         251
               252         252
               253         253
               254         254
               255         255
               256         256
               257         257
               258         258
               259         259
               260         260
               261         261
               262         262
               263         263
               264         264
               265         265
               266         266
               267         267
               268         268
               269         269
               270         270
               271         271
               272         272
               273         273
               274         274
               275         275
               276         276
               277         277
               278         278
               279         279
               280         280
               281         281
               282         282
               283         283
               284         284
               285         285
               286         286
               287         287
               288         288
               289         289
               290         290
               291         291
               292         292
               293         293
               294         294
               295         295
               296         296
               297         297
               298         298
               299         299
               300         300
               301         301
               302         302
               303         303
               304         304
               305         305
               306         306
               307         307
               308         308
               309         309
               310         310
               311         311
               312         312
               313         313
               314         314
               315         315
               316         316
               317         317
               318         318
               319         319
               320         320
               321         321
               322         322
               323         323
               324         324
               325         325

----------------------------------------------------------------------------------------

 
 
 KPOINTS: Automatic Mesh                          

Automatic generation of k-mesh.
 Grid dimensions read from file:
 generate k-points for:    3    3    1

 Generating k-lattice:

  Cartesian coordinates                     Fractional coordinates (reciprocal lattice)
     0.018456177  0.000005026 -0.000000000     0.333333333  0.000000000  0.000000000
     0.000000000  0.018454135  0.000000000     0.000000000  0.333333333  0.000000000
     0.000000000 -0.000000000  0.016003201     0.000000000  0.000000000  1.000000000

  Length of vectors
     0.018456178  0.018454135  0.016003201

  Shift w.r.t. Gamma in fractional coordinates (k-lattice)
     0.000000000  0.000000000  0.000000000

 
 Subroutine IBZKPT returns following result:
 ===========================================
 
 Found      5 irreducible k-points:
 
 Following reciprocal coordinates:
            Coordinates               Weight
  0.000000  0.000000  0.000000      1.000000
  0.333333  0.000000  0.000000      2.000000
  0.000000  0.333333  0.000000      2.000000
  0.333333  0.333333  0.000000      2.000000
 -0.333333  0.333333  0.000000      2.000000
 
 Following cartesian coordinates:
            Coordinates               Weight
  0.000000  0.000000  0.000000      1.000000
  0.018456  0.000005  0.000000      2.000000
  0.000000  0.018454  0.000000      2.000000
  0.018456  0.018459  0.000000      2.000000
 -0.018456  0.018449  0.000000      2.000000
 


--------------------------------------------------------------------------------------------------------




 Dimension of arrays:
   k-points           NKPTS =      5   k-points in BZ     NKDIM =      5   number of bands    NBANDS=    732
   number of dos      NEDOS =    301   number of ions     NIONS =    325
   non local maximal  LDIM  =      5   non local SUM 2l+1 LMDIM =     13
   total plane-waves  NPLWV = ******
   max r-space proj   IRMAX =   3336   max aug-charges    IRDMAX=  19845
   dimension x,y,z NGX =   100 NGY =  100 NGZ =  350
   dimension x,y,z NGXF=   200 NGYF=  200 NGZF=  700
   support grid    NGXF=   200 NGYF=  200 NGZF=  700
   ions per type =             143  39  47  72  24
   NGX,Y,Z   is equivalent  to a cutoff of   9.20,  9.20,  9.31 a.u.
   NGXF,Y,Z  is equivalent  to a cutoff of  18.41, 18.41, 18.62 a.u.

 SYSTEM =  PSC                                     
 POSCAR =   H  C  N  I Pb                          

 Startparameter for this run:
   NWRITE =      2    write-flag & timer
   PREC   = normal    normal or accurate (medium, high low for compatibility)
   ISTART =      0    job   : 0-new  1-cont  2-samecut
   ICHARG =      1    charge: 1-file 2-atom 10-const
   ISPIN  =      1    spin polarized calculation?
   LNONCOLLINEAR =      F non collinear calculations
   LSORBIT =      F    spin-orbit coupling
   INIWAV =      1    electr: 0-lowe 1-rand  2-diag
   LASPH  =      F    aspherical Exc in radial PAW
 Electronic Relaxation 1
   ENCUT  =  500.0 eV  36.75 Ry    6.06 a.u.  32.93 32.93113.93*2*pi/ulx,y,z
   ENINI  =  500.0     initial cutoff
   ENAUG  =  644.9 eV  augmentation charge cutoff
   NELM   =    600;   NELMIN=  2; NELMDL=  0     # of ELM steps 
   EDIFF  = 0.1E-03   stopping-criterion for ELM
   LREAL  =      T    real-space projection
   NLSPLINE    = F    spline interpolate recip. space projectors
   LCOMPAT=      F    compatible to vasp.4.4
   GGA_COMPAT  = F    GGA compatible to vasp.4.4-vasp.4.6
   LMAXPAW     = -100 max onsite density
   LMAXMIX     =    2 max onsite mixed and CHGCAR
   VOSKOWN=      0    Vosko Wilk Nusair interpolation
   ROPT   =   -0.00050  -0.00050  -0.00050  -0.00050
   ROPT   =   -0.00050
 Ionic relaxation
   EDIFFG = 0.1E-02   stopping-criterion for IOM
   NSW    =      0    number of steps for IOM
   NBLOCK =      1;   KBLOCK =      1    inner block; outer block 
   IBRION =     -1    ionic relax: 0-MD 1-quasi-New 2-CG
   NFREE  =      0    steps in history (QN), initial steepest desc. (CG)
   ISIF   =      2    stress and relaxation
   IWAVPR =     10    prediction:  0-non 1-charg 2-wave 3-comb
   ISYM   =      0    0-nonsym 1-usesym 2-fastsym
   LCORR  =      T    Harris-Foulkes like correction to forces

   POTIM  = 0.5000    time-step for ionic-motion
   TEIN   =    0.0    initial temperature
   TEBEG  =    0.0;   TEEND  =   0.0 temperature during run
   SMASS  =  -3.00    Nose mass-parameter (am)
   estimated Nose-frequenzy (Omega)   =  0.10E-29 period in steps = 0.13E+47 mass=  -0.745E-26a.u.
   SCALEE = 1.0000    scale energy and forces
   NPACO  =    256;   APACO  = 16.0  distance and # of slots for P.C.
   PSTRESS=    0.0 pullay stress

  Mass of Ions in am
   POMASS =   1.00 12.01 14.00126.90207.20
  Ionic Valenz
   ZVAL   =   1.00  4.00  5.00  7.00  4.00
  Atomic Wigner-Seitz radii
   RWIGS  =  -1.00 -1.00 -1.00 -1.00 -1.00
  virtual crystal weights 
   VCA    =   1.00  1.00  1.00  1.00  1.00
   NELECT =    1134.0000    total number of electrons
   NUPDOWN=      -1.0000    fix difference up-down

 DOS related values:
   EMIN   =  10.00;   EMAX   =-10.00  energy-range for DOS
   EFERMI =   0.00
   ISMEAR =     0;   SIGMA  =   0.05  broadening in eV -4-tet -1-fermi 0-gaus

 Electronic relaxation 2 (details)
   IALGO  =     38    algorithm
   LDIAG  =      T    sub-space diagonalisation (order eigenvalues)
   LSUBROT=      F    optimize rotation matrix (better conditioning)
   TURBO    =      0    0=normal 1=particle mesh
   IRESTART =      0    0=no restart 2=restart with 2 vectors
   NREBOOT  =      0    no. of reboots
   NMIN     =      0    reboot dimension
   EREF     =   0.00    reference energy to select bands
   IMIX   =      4    mixing-type and parameters
     AMIX     =   0.40;   BMIX     =  0.01
     AMIX_MAG =   1.60;   BMIX_MAG =  0.01
     AMIN     =   0.01
     WC   =   100.;   INIMIX=   1;  MIXPRE=   1;  MAXMIX= -45

 Intra band minimization:
   WEIMIN = 0.0000     energy-eigenvalue tresh-hold
   EBREAK =  0.34E-07  absolut break condition
   DEPER  =   0.30     relativ break condition  

   TIME   =   0.40     timestep for ELM

  volume/ion in A,a.u.               =      62.72       423.28
  Fermi-wavevector in a.u.,A,eV,Ry     =   0.624944  1.180972  5.313816  0.390554
  Thomas-Fermi vector in A             =   1.685677
 
 Write flags
   LWAVE        =      F    write WAVECAR
   LDOWNSAMPLE  =      F    k-point downsampling of WAVECAR
   LCHARG       =      T    write CHGCAR
   LVTOT        =      T    write LOCPOT, total local potential
   LVHAR        =      F    write LOCPOT, Hartree potential only
   LELF         =      F    write electronic localiz. function (ELF)
   LORBIT       =      0    0 simple, 1 ext, 2 COOP (PROOUT), +10 PAW based schemes


 Dipole corrections
   LMONO  =      F    monopole corrections only (constant potential shift)
   LDIPOL =      T    correct potential (dipole corrections)
   IDIPOL =      3    1-x, 2-y, 3-z, 4-all directions 
   EPSILON=  1.0000000 bulk dielectric constant

 Exchange correlation treatment:
   GGA     =    --    GGA type
   LEXCH   =     8    internal setting for exchange type
   VOSKOWN=      0    Vosko Wilk Nusair interpolation
   LHFCALC =     F    Hartree Fock is set to
   LHFONE  =     F    Hartree Fock one center treatment
   AEXX    =    0.0000 exact exchange contribution

 Linear response parameters
   LEPSILON=     F    determine dielectric tensor
   LRPA    =     F    only Hartree local field effects (RPA)
   LNABLA  =     F    use nabla operator in PAW spheres
   LVEL    =     F    velocity operator in full k-point grid
   LINTERFAST=   F  fast interpolation
   KINTER  =     0    interpolate to denser k-point grid
   CSHIFT  =0.1000    complex shift for real part using Kramers Kronig
   OMEGAMAX=  -1.0    maximum frequency
   DEG_THRESHOLD= 0.2000000E-02 threshold for treating states as degnerate
   RTIME   =   -0.100 relaxation time in fs
  (WPLASMAI=    0.000 imaginary part of plasma frequency in eV, 0.658/RTIME)
   DFIELD  = 0.0000000 0.0000000 0.0000000 field for delta impulse in time
 
 Orbital magnetization related:
   ORBITALMAG=     F  switch on orbital magnetization
   LCHIMAG   =     F  perturbation theory with respect to B field
   DQ        =  0.001000  dq finite difference perturbation B field
   LLRAUG    =     F  two centre corrections for induced B field



--------------------------------------------------------------------------------------------------------


 Static calculation
 charge density and potential will be updated during run
 non-spin polarized calculation
 Variant of blocked Davidson
 Davidson routine will perform the subspace rotation
 perform sub-space diagonalisation
    after iterative eigenvector-optimisation
 modified Broyden-mixing scheme, WC =      100.0
 initial mixing is a Kerker type mixing with AMIX =  0.4000 and BMIX =      0.0100
 Hartree-type preconditioning will be used
 using additional bands           165
 real space projection scheme for non local part
[...]
     13.54561      0.00000     45.35368        -0.000448     -0.004736      0.012902
     13.54315      9.03140     45.35368         0.008971     -0.005632      0.016548
     13.99063     10.02568     32.61698        -0.014099     -0.070131     -0.102547
     13.04014      8.53986     32.92333         0.030494      0.371985      0.116144
     15.75045      9.03528     33.95111        -0.038185      0.039558      0.093771
     15.43365      8.61963     35.63616        -0.003350      0.093576     -0.019173
     13.40297     11.50389     35.02272        -0.144670      0.258693      0.180650
     14.49474     10.75847     36.22801        -0.076901     -0.138532     -0.076383
     12.01776      9.84304     35.69284         0.078675     -0.318942     -0.020073
     12.22948      8.18126     35.04273        -0.067398      0.034684      0.253204
     11.09476      9.91918     33.65679        -0.051044     -0.064806     -0.051584
     12.04106     11.41417     33.66391         0.195781     -0.552901     -0.217950
     10.97318     11.68922     31.66999        -0.020437      0.167781      0.113790
     12.41304     10.89258     31.06913         0.038562      0.009241      0.086971
     14.85801      6.97347     33.14914        -0.083168      0.060365     -0.199424
     13.80529      6.77458     34.53440        -0.628118     -0.284084      0.222204
     15.51116      6.53959     34.72091         0.086820     -0.170848      0.025871
     15.59805     12.47548     34.85415        -0.106620      0.179002      0.093471
     15.32206     11.59303     33.37339        -0.093265     -0.040596     -0.071357
     16.39044     10.93291     34.63458         0.201494     -0.244886      0.036727
     13.68561      9.37926     37.55198        -0.186373     -0.257796     -0.242866
     13.93797      7.71626     36.89322        -0.209980      0.279280      0.087870
     12.33755      8.18909     37.51153         0.279137      0.137494     -0.028408
      9.66719      9.64581     31.62411         0.333325     -0.119254     -0.205425
     10.38339      9.99718     30.02842         0.087600     -0.207220      0.193544
     12.59684      8.72719     29.41280        -0.044353     -0.410770      0.444176
     10.10628      7.57066     32.70365        -0.201686      0.030980      0.222835
     13.80734      6.54728     29.54800        -0.606053      0.130406      0.478614
     11.28590      5.41213     32.86939         0.005803     -0.093181      0.024050
     13.13960      4.89130     31.31139        -0.016414      0.003747     -0.037784
      0.39555      4.45455     34.90345         0.111869      0.655724     -0.222144
      0.36197     13.50822     34.85231        -0.443785      0.261132      1.045088
      8.54328      4.02305     34.61251         1.181198     -0.315506     -0.204586
      9.21218     13.95968     34.88041         0.410248     -0.368784     -0.174830
      4.28507      9.36013     34.90591        -0.592366     -0.942353     -0.023586
      4.32194      0.25894     34.73925        -0.989582      0.072143     -0.131228
     13.91668     17.74364     35.13176         1.122712      0.470368     -0.067719
      0.14680      4.42667     40.74967         1.189533     -1.238623     -0.089865
      0.17672     13.79554     40.78614         0.847538     -1.168942      0.692855
      8.78679      4.18626     40.78373         0.895657     -0.716020      0.081462
      8.99643     13.65985     40.63639        -0.162350      0.106426      0.877328
      4.53145      8.95598     40.56629         0.660952      0.556507      0.458670
      4.54161     18.04673     40.54952        -0.678142     -0.732464      0.012874
     13.93163      8.92840     40.73541        -0.013641      0.197843      0.330238
     13.61614      0.01169     40.57993        -1.028767     -1.009601      0.001075
      9.02897      4.51561     46.44552         0.008468      0.002872      0.023573
      9.02651     13.54701     46.44552         0.000854      0.012634      0.052389
     18.05937      4.51561     46.44552        -0.002728      0.020436      0.071395
     18.05691     13.54701     46.44552         0.025320     -0.003464      0.041844
      4.51521      0.00002     46.44421         0.003382      0.002546      0.063762
      4.51275      9.03142     46.44421        -0.000521      0.003104      0.042269
     13.54561      0.00002     46.44421        -0.002011     -0.004414      0.031943
     13.54315      9.03142     46.44421        -0.010680     -0.015507      0.038751
     11.27995      8.31442     31.07827         0.039937     -0.313241     -0.230038
     12.32404      7.98722     30.19907        -0.238231      1.221363     -0.772201
     10.91854      7.34373     32.02088        -0.492088      0.588024      0.003257
     12.97545      6.76935     30.25928         0.974410     -0.265285     -0.653146
     11.56794      6.12830     32.10024         0.221533     -0.325072      0.055512
     12.60922      5.84122     31.22128         0.178248     -0.565781      0.282015
     13.20113      9.58706     33.24152         0.314360      0.161773      0.164305
     15.01463      8.57688     34.62261         0.148183      0.478490     -0.012065
     14.26999     10.85881     35.15678         0.049925      0.063695     -0.306961
     12.72198      8.99577     35.59443         0.241647      0.316181     -0.012774
     11.92727     10.42511     33.14766        -0.001673      0.606233      0.310725
     11.52100     10.74084     31.70068         0.098274     -0.092106     -0.175109
     14.75989      7.15493     34.22031         0.409887     -0.096421     -0.133602
     15.46105     11.46831     34.45312         0.005645      0.090057     -0.103450
     13.22512      8.56022     36.96325        -0.112407     -0.184884     -0.148837
     10.62780      9.66997     31.06058        -0.373016      0.065175     -0.012989
      0.45790      3.33479     35.55898         0.000174     -1.110480      0.781614
      0.58641     12.38925     35.48569         0.200732     -0.602887      0.270565
      9.81435      4.01011     34.95019         0.450388      0.160038      0.111722
      9.09459     12.82593     35.52959        -0.119902     -0.084101     -0.011227
      7.67084      4.85706     35.08592        -0.288591      1.021213      0.974292
      8.51209     15.03322     35.10960        -0.547997      0.435948      0.379322
     18.03520      5.59032     35.40415        -0.077971      0.232026      0.559329
     17.76050     14.52746     35.37082         0.248868      0.066756     -0.322367
      4.21696      8.14753     35.42539        -0.649243      0.089500     -0.812036
      3.23503     17.69204     35.15167        -0.375257      0.801740     -1.015876
     12.68973     17.55401     35.49820        -1.071930     -1.479530     -0.604523
      5.49434      0.09939     35.26486         1.812559      0.636428     -0.671097
      5.12089     10.26626     35.29609         0.101627      1.788313     -1.006375
     14.69212      0.61878     35.64324         0.541519     -0.588372     -1.089907
      1.04922      3.49676     41.04046        -1.191635      1.185539     -0.117556
      0.94532     12.89968     41.41032        -1.145239      1.225986     -1.045711
      9.95598      3.73844     41.20192        -1.024325      0.722463     -0.103153
      9.67451     12.92476     41.48266         0.609532     -0.658121      0.322187
      3.83142      8.02970     41.15453         0.193640      0.040003      0.993209
      3.71609     17.21080     41.13864        -0.032068     -0.007394      0.048447
     13.03994      8.38035     41.52219        -0.493800     -0.852258     -0.306069
     12.69130     17.30173     41.11743         0.023867      0.075476      0.279417
      8.13109      5.18091     41.28617        -0.026019      1.252615      1.040144
      8.09795     14.55257     40.96547        -0.249734      0.246994      0.719692
     17.49375      5.09548     41.60126        -0.747061      0.696536      0.956074
     17.08004     14.23087     41.20719         0.367576      0.270382     -0.459927
      5.30734      0.84615     41.14147         0.568662      0.698490      1.292742
      5.35441      9.80153     41.15711        -0.126799     -0.199381      0.191800
     14.31140      0.90679     41.20017         0.459542      0.817962      1.165831
     14.51827     10.07546     40.95142         0.995702      0.267357     -1.159966
      0.82731      3.68697     47.03596         0.024424     -0.033964     -0.100489
      0.82485     12.71837     47.03596         0.008275     -0.016653     -0.080106
      9.85771      3.68697     47.03596         0.022129     -0.025824     -0.083479
      9.85525     12.71837     47.03596         0.029991     -0.026928     -0.100069
      3.68432      8.20234     47.03465        -0.013503     -0.013316     -0.067880
      3.68186     17.23373     47.03465        -0.012295     -0.007405     -0.067579
     12.71472      8.20234     47.03465        -0.007830     -0.005616     -0.084770
     12.71226     17.23373     47.03465        -0.011094     -0.013488     -0.065550
      8.20068      5.34457     47.03603        -0.021769      0.019700     -0.087553
      8.19822     14.37597     47.03603        -0.012910      0.012102     -0.101764
     17.23108      5.34457     47.03603        -0.006155      0.002944     -0.096661
     17.22862     14.37597     47.03603        -0.026128      0.020220     -0.077785
      5.34365      0.82909     47.03465         0.003873      0.003548     -0.067593
      5.34119      9.86049     47.03465         0.010461      0.009272     -0.068348
     14.37405      0.82909     47.03465         0.017436      0.013690     -0.066932
     14.37159      9.86049     47.03465         0.019116      0.025443     -0.079398
     13.81576      9.50841     34.64230        -0.234895     -0.371612      0.235742
      9.09131      0.41986     34.52412        -0.036003     -0.082027      0.008580
      8.50758      9.18862     34.78931         0.104928     -0.040333     -0.008824
     17.83299     18.00400     34.36855         0.189213      0.022192      0.009836
      0.67417      8.92279     34.56004        -0.002101      0.035425     -0.024182
      4.14700      4.22361     34.54224         0.039656      0.036050      0.046469
      4.67571     13.73706     34.55733        -0.034887     -0.016713      0.000003
     13.41366      3.75585     34.69590        -0.030413     -0.002639      0.095066
     12.88310     14.24647     34.23305        -0.041948     -0.006626      0.302677
      0.02385     17.91189     40.89305        -0.011891     -0.004792      0.032036
      0.22835      8.97990     40.97373        -0.001352     -0.016684      0.011489
      8.98682      0.13978     40.91496        -0.004770     -0.032134     -0.070267
      9.10710      8.90971     40.96454         0.036994     -0.031771      0.102510
      4.58549      4.44063     40.93681         0.052544     -0.006076     -0.125024
      4.43769     13.60046     40.89534         0.075330     -0.008802      0.044567
     13.43089      4.77679     40.92236         0.014126     -0.018535      0.018170
     13.57850     13.61224     40.84887        -0.014166      0.000683      0.051650
      2.52738      1.87543     38.15033         0.003896      0.086424     -0.114921
      2.64953     10.94134     38.10022        -0.000711      0.056533     -0.048216
     11.73322      1.84849     38.20312         0.013586      0.086195     -0.019025
     11.14539     11.50070     38.40046         0.045393     -0.302471     -0.211911
      6.41974      7.05454     38.06798         0.021626     -0.066104     -0.071558
      6.54208     16.09464     38.00224         0.069409     -0.065800     -0.090415
     16.12832      6.54543     38.37930        -0.138112      0.067252     -0.176352
     15.63874     15.90461     38.08313         0.076539     -0.000723     -0.045001
      2.12572      6.45596     38.19973         0.053678     -0.006568     -0.036495
      2.13987     15.67181     37.97980        -0.042386      0.006355     -0.077961
     10.44470      5.93476     37.83101         0.111889      0.087059     -0.005778
     11.10340     15.64846     38.23088        -0.076191      0.082089     -0.075806
      6.92356      2.38180     37.91627         0.022704     -0.001895      0.010541
      7.01765     11.56397     38.22707        -0.039181     -0.077838     -0.018277
     16.05844      2.52092     38.28212        -0.003630      0.022040      0.039464
     16.47876     11.67913     38.43323        -0.151459     -0.003736     -0.378613
      0.00000      0.00000     47.17356        -0.001075      0.005084      0.339337
     -0.00246      9.03140     47.17356        -0.004018      0.002390      0.436184
      9.03040      0.00000     47.17356         0.000141     -0.001909      0.426363
      9.02794      9.03140     47.17356         0.004456      0.000946      0.507239
      4.51398      4.51570     47.17425        -0.003241     -0.003443      0.462089
      4.51152     13.54710     47.17425         0.002874      0.003184      0.459320
     13.54438      4.51570     47.17425         0.000763      0.000537      0.447182
     13.54192     13.54710     47.17425        -0.002502     -0.004903      0.338400
      2.45192      2.06295     44.04013         0.015601     -0.047841      0.014689
      2.44946     11.09435     44.04013         0.048766     -0.050904      0.081522
     11.48232      2.06295     44.04013         0.084308     -0.042758     -0.025626
     11.47986     11.09435     44.04013         0.080755     -0.045338     -0.033719
      6.57602      6.96845     44.04013        -0.037876      0.048311     -0.013191
      6.57356     15.99985     44.04013         0.026566     -0.004892     -0.070259
     15.60642      6.96845     44.04013         0.024412      0.001849      0.043649
     15.60396     15.99985     44.04013        -0.034847      0.004333      0.012255
      2.06108      6.57881     44.04000         0.031543     -0.032662      0.018729
      2.05862     15.61021     44.04000         0.015141      0.070236      0.018767
     11.09148      6.57881     44.04000        -0.061725     -0.069883     -0.007003
     11.08902     15.61021     44.04000         0.001204     -0.000990     -0.038727
      6.96686      2.45259     44.04007        -0.047169     -0.045655      0.015459
      6.96440     11.48399     44.04007         0.018832     -0.004442     -0.037365
     15.99726      2.45259     44.04007         0.007073      0.014165     -0.035533
     15.99481     11.48399     44.04007        -0.001337      0.080601     -0.086814
      2.43163      2.08322     50.06849        -0.003093     -0.022301      0.019759
      2.42917     11.11462     50.06849         0.006778     -0.012344      0.022472
     11.46203      2.08322     50.06849         0.009234     -0.013075      0.022243
     11.45957     11.11462     50.06849         0.025380      0.005323      0.019406
      6.59631      6.94818     50.06849        -0.014120      0.006306      0.022079
      6.59385     15.97958     50.06849        -0.006467      0.013256      0.020731
     15.62671      6.94818     50.06849        -0.009238      0.010786      0.020814
     15.62425     15.97958     50.06849        -0.011512      0.010193      0.020965
      2.08113      6.59901     50.06905        -0.015742     -0.007636      0.021724
      2.07867     15.63041     50.06905        -0.022662      0.001613      0.021651
     11.11153      6.59901     50.06905        -0.003542     -0.015274      0.020968
     11.10907     15.63041     50.06905        -0.001614     -0.019817      0.021004
      6.94681      2.43239     50.06905         0.013092      0.005149      0.022388
      6.94435     11.46379     50.06905         0.006699      0.014669      0.022279
     15.97721      2.43239     50.06905         0.019461      0.000538      0.020991
     15.97475     11.46379     50.06905         0.000313      0.018553      0.019996
     17.93418     18.06188     37.84270         0.023438     -0.104579     -0.033714
      0.12138      9.00744     37.91715         0.052973      0.024998     -0.116346
      9.07586      0.16093     37.73323        -0.063297     -0.076995      0.021880
      8.96773      8.92714     37.84075        -0.005730     -0.008072     -0.136722
      4.43104      4.38529     37.70536        -0.092541      0.023671     -0.016624
      4.47832     13.47265     37.66040        -0.000875      0.035019      0.051631
     13.40613      4.47767     37.71754        -0.031357      0.004990     -0.112647
     13.30879     13.62420     37.66325         0.040506      0.029616     -0.073930
      0.00001      0.00001     44.04300        -0.028215     -0.107174      0.162725
     -0.00245      9.03141     44.04300         0.020903     -0.059535      0.205811
      9.03041      0.00001     44.04300        -0.018416      0.067163      0.094934
      9.02795      9.03141     44.04300        -0.055411      0.008756      0.118674
      4.51397      4.51569     44.04275         0.055944     -0.003248      0.146739
      4.51151     13.54709     44.04275        -0.063132     -0.030840     -0.003380
     13.54437      4.51569     44.04275         0.024460      0.049277      0.127508
     13.54191     13.54709     44.04275        -0.036455      0.124958      0.051531
      0.00000      0.00000     50.44728         0.007854      0.004330     -0.608391
     -0.00246      9.03140     50.44728         0.008547     -0.006563     -0.634121
      9.03040      0.00000     50.44728        -0.008323      0.008248     -0.632527
      9.02794      9.03140     50.44728        -0.009914     -0.006996     -0.651416
      4.51397      4.51570     50.44728         0.009246      0.009370     -0.642316
      4.51151     13.54710     50.44728         0.007752     -0.009388     -0.643283
     13.54437      4.51570     50.44728        -0.010923      0.007573     -0.639147
     13.54191     13.54710     50.44728        -0.007757     -0.008742     -0.606846
 -----------------------------------------------------------------------------------
    total drift:                                0.137672      0.107435     -0.192389


--------------------------------------------------------------------------------------------------------



  FREE ENERGIE OF THE ION-ELECTRON SYSTEM (eV)
  ---------------------------------------------------
  free  energy   TOTEN  =     -1574.40660614 eV

  energy  without entropy=    -1574.40660614  energy(sigma->0) =    -1574.40660614
 


--------------------------------------------------------------------------------------------------------


    POTLOK:  cpu time    0.5020: real time    0.5019


--------------------------------------------------------------------------------------------------------


     LOOP+:  cpu time  323.9276: real time  324.1180
 vacuum level on the upper side and lower side of the slab         2.286         1.630
    4ORBIT:  cpu time    0.0000: real time    0.0000

 total amount of memory used by VASP MPI-rank0  8653576. kBytes
=======================================================================

   base      :      30000. kBytes
   nonlr-proj:      53614. kBytes
   fftplans  :     249280. kBytes
   grid      :     701440. kBytes
   one-center:       2636. kBytes
   wavefun   :    7616606. kBytes
 
  
  
 General timing and accounting informations for this job:
 ========================================================
  
                  Total CPU time used (sec):      537.090
                            User time (sec):      432.376
                          System time (sec):      104.714
                         Elapsed time (sec):      539.450
  
                   Maximum memory used (kb):    10307184.
                   Average memory used (kb):          N/A
  
                          Minor page faults:      3756659
                          Major page faults:           13
                 Voluntary context switches:        11011
