<?xml version="1.0" encoding="ISO-8859-1"?>
<modeling>
 <generator>
  <i name="program" type="string">vasp </i>
  <i name="version" type="string">6.2.1  </i>
  <i name="subversion" type="string">16May21 (build Nov 15 2021 14:57:28) complex                          parallel </i>
  <i name="platform" type="string">LinuxPGI </i>
  <i name="date" type="string">2023 07 24 </i>
  <i name="time" type="string">23:24:32 </i>
 </generator>
 <incar>
  <i type="string" name="SYSTEM">PSC</i>
  <i type="int" name="ISTART">     1</i>
  <i type="string" name="PREC">Normal</i>
  <i name="BMIX">      0.01000000</i>
  <i name="AMIN">      0.01000000</i>
  <i type="int" name="ICHARG">     1</i>
  <i type="int" name="NELM">   600</i>
  <i type="int" name="ISYM">     0</i>
  <i name="ENCUT">    500.00000000</i>
  <i type="string" name="LREAL">Auto</i>
  <i type="int" name="ISMEAR">     0</i>
  <i name="SIGMA">      0.05000000</i>
  <i type="logical" name="LWAVE"> F  </i>
  <i type="logical" name="LVTOT"> T  </i>
  <i type="logical" name="GGA_COMPAT"> F  </i>
  <i type="logical" name="LDIPOL"> T  </i>
  <i type="int" name="IDIPOL">     3</i>
  <i type="int" name="IVDW">    12</i>
 </incar>
 <primitive_cell>
  <structure name="primitive_cell" >
   <crystal>
    <varray name="basis" >
     <v>      18.06080055       0.00000000       0.00000000 </v>
     <v>      -0.00491865      18.06279945       0.00000000 </v>
     <v>       0.00000000       0.00000000      62.48749924 </v>
    </varray>
    <i name="volume">  20385.21054034 </i>
    <varray name="rec_basis" >
     <v>       0.05536853       0.00001508      -0.00000000 </v>
     <v>       0.00000000       0.05536240       0.00000000 </v>
     <v>       0.00000000      -0.00000000       0.01600320 </v>
    </varray>
   </crystal>
   <varray name="positions" >
    <v>       0.43722152       0.30596166       0.57366113 </v>
    <v>       0.43256467       0.83528035       0.57397906 </v>
    <v>       0.98347224       0.31435129       0.58259278 </v>
    <v>       0.96569769       0.80594447       0.58155113 </v>
    <v>       0.31533384       0.96969777       0.57646338 </v>
    <v>       0.32099976       0.56163250       0.57661264 </v>
    <v>       0.79484424       0.06963766       0.58139113 </v>
    <v>       0.04004235       0.13667650       0.56141893 </v>
    <v>       0.05708857       0.64105587       0.56052801 </v>
    <v>       0.58162464       0.18601078       0.55290881 </v>
    <v>       0.53383167       0.66528838       0.56378952 </v>
    <v>       0.35126480       0.03055736       0.55768363 </v>
    <v>       0.28337301       0.62085500       0.55745390 </v>
    <v>       0.86501941       0.04499112       0.56389532 </v>
    <v>       0.01450800       0.17841678       0.58530231 </v>
    <v>       0.01546356       0.67681565       0.58343078 </v>
    <v>       0.56364139       0.25757916       0.57101851 </v>
    <v>       0.46639625       0.70248494       0.58089542 </v>
    <v>       0.26905294       0.43450482       0.57857141 </v>
    <v>       0.17886567       0.94385509       0.57496235 </v>
    <v>       0.67832785       0.00070250       0.57993356 </v>
    <v>       0.37011267       0.26221969       0.55807439 </v>
    <v>       0.48476045       0.88134197       0.55451997 </v>
    <v>       0.00982869       0.35888940       0.55893888 </v>
    <v>       0.98329988       0.85486962       0.55851888 </v>
    <v>       0.19234157       0.41571871       0.56202550 </v>
    <v>       0.12816227       0.99339660       0.55614810 </v>
    <v>       0.67683147       0.92397970       0.56246632 </v>
    <v>       0.45612085       0.18288093       0.54196204 </v>
    <v>       0.55309102       0.77580480       0.54584276 </v>
    <v>       0.04090098       0.24698282       0.54198224 </v>
    <v>       0.04107135       0.75233701       0.54182193 </v>
    <v>       0.19765491       0.53179224       0.54591601 </v>
    <v>       0.23339013       0.05493359       0.54298012 </v>
    <v>       0.79384117       0.94551818       0.54991095 </v>
    <v>       0.46760942       0.31862014       0.67359951 </v>
    <v>       0.43271448       0.81941327       0.67113155 </v>
    <v>       0.97165483       0.27615535       0.68223661 </v>
    <v>       0.92288709       0.77183652       0.67339000 </v>
    <v>       0.29732961       0.05513409       0.67482174 </v>
    <v>       0.30835515       0.54355552       0.67467291 </v>
    <v>       0.78820916       0.06307403       0.67541359 </v>
    <v>       0.79827595       0.58949094       0.66853771 </v>
    <v>       0.08571498       0.16836071       0.64477093 </v>
    <v>       0.10097859       0.69972970       0.65591751 </v>
    <v>       0.57433178       0.16371823       0.65188124 </v>
    <v>       0.57383670       0.67791606       0.65769911 </v>
    <v>       0.17928582       0.41186176       0.64987431 </v>
    <v>       0.17584820       0.91732873       0.64929570 </v>
    <v>       0.70138325       0.41231210       0.66047561 </v>
    <v>       0.67540969       0.92092222       0.64861630 </v>
    <v>       0.06962556       0.17956553       0.67202382 </v>
    <v>       0.03927639       0.69093587       0.67670230 </v>
    <v>       0.57741103       0.23062541       0.67185759 </v>
    <v>       0.52999624       0.71827156       0.68028493 </v>
    <v>       0.21206235       0.43439796       0.67478542 </v>
    <v>       0.19757617       0.94801317       0.67442469 </v>
    <v>       0.70248990       0.48752184       0.67812123 </v>
    <v>       0.68773208       0.95869580       0.67379077 </v>
    <v>       0.39984789       0.30027833       0.65476335 </v>
    <v>       0.42277245       0.83415275       0.64377323 </v>
    <v>       0.93188072       0.32086175       0.66000609 </v>
    <v>       0.91935691       0.82653632       0.65040621 </v>
    <v>       0.32683801       0.07999072       0.64949691 </v>
    <v>       0.32379316       0.58066628       0.64960973 </v>
    <v>       0.83037916       0.07964151       0.65107309 </v>
    <v>       0.84274842       0.57785459       0.64423573 </v>
    <v>       0.00045816       0.25660571       0.63537965 </v>
    <v>       0.03232181       0.78409647       0.63772460 </v>
    <v>       0.46081951       0.20263180       0.63957488 </v>
    <v>       0.51019784       0.74760824       0.63372380 </v>
    <v>       0.25426516       0.99664371       0.63164544 </v>
    <v>       0.24650505       0.50143832       0.63210470 </v>
    <v>       0.76334227       0.99223485       0.63250957 </v>
    <v>       0.78769126       0.46341753       0.63772203 </v>
    <v>       0.44874502       0.30128397       0.76888902 </v>
    <v>       0.44874501       0.80128391       0.76888902 </v>
    <v>       0.94874497       0.30128397       0.76888902 </v>
    <v>       0.94874501       0.80128391       0.76888902 </v>
    <v>       0.30127600       0.05129450       0.76887296 </v>
    <v>       0.30127601       0.55129450       0.76887296 </v>
    <v>       0.80127594       0.05129450       0.76887296 </v>
    <v>       0.80127598       0.55129450       0.76887296 </v>
    <v>       0.07877100       0.17118050       0.74344197 </v>
    <v>       0.07877101       0.67118045       0.74344197 </v>
    <v>       0.57877100       0.17118050       0.74344197 </v>
    <v>       0.57877099       0.67118045       0.74344197 </v>
    <v>       0.17119950       0.42117448       0.74342103 </v>
    <v>       0.17119950       0.92117451       0.74342103 </v>
    <v>       0.67119951       0.42117448       0.74342103 </v>
    <v>       0.67119950       0.92117451       0.74342103 </v>
    <v>       0.05125600       0.19871499       0.76888902 </v>
    <v>       0.05125600       0.69871493       0.76888902 </v>
    <v>       0.55125603       0.19871499       0.76888902 </v>
    <v>       0.55125602       0.69871493       0.76888902 </v>
    <v>       0.19872349       0.44870397       0.76887205 </v>
    <v>       0.19872349       0.94870397       0.76887205 </v>
    <v>       0.69872352       0.44870397       0.76887205 </v>
    <v>       0.69872351       0.94870397       0.76887205 </v>
    <v>       0.42123152       0.32881747       0.74344197 </v>
    <v>       0.42123151       0.82881744       0.74344197 </v>
    <v>       0.92123147       0.32881747       0.74344197 </v>
    <v>       0.92123151       0.82881744       0.74344197 </v>
    <v>       0.32880050       0.07882500       0.74342103 </v>
    <v>       0.32880049       0.57882496       0.74342103 </v>
    <v>       0.82880048       0.07882500       0.74342103 </v>
    <v>       0.82880052       0.57882496       0.74342103 </v>
    <v>       0.00000350       0.25000148       0.72582199 </v>
    <v>       0.00000350       0.75000145       0.72582199 </v>
    <v>       0.50000351       0.25000148       0.72582199 </v>
    <v>       0.50000350       0.75000145       0.72582199 </v>
    <v>       0.25000050       0.00000000       0.72580398 </v>
    <v>       0.25000052       0.50000000       0.72580398 </v>
    <v>       0.75000050       0.00000000       0.72580398 </v>
    <v>       0.75000049       0.50000000       0.72580398 </v>
    <v>       0.77479196       0.55504593       0.52197604 </v>
    <v>       0.72214195       0.47278743       0.52687870 </v>
    <v>       0.87221557       0.50021457       0.54332651 </v>
    <v>       0.85466849       0.47720338       0.57029259 </v>
    <v>       0.74227639       0.63688322       0.56047569 </v>
    <v>       0.80271491       0.59561458       0.57976409 </v>
    <v>       0.66555393       0.54493444       0.57119970 </v>
    <v>       0.67725147       0.45293428       0.56079582 </v>
    <v>       0.61445022       0.54914986       0.53861634 </v>
    <v>       0.66686787       0.63191601       0.53873031 </v>
    <v>       0.60774483       0.64714355       0.50682122 </v>
    <v>       0.68745609       0.60303968       0.49720553 </v>
    <v>       0.82277156       0.38606829       0.53049234 </v>
    <v>       0.76448063       0.37505719       0.55266095 </v>
    <v>       0.85892879       0.36204744       0.55564568 </v>
    <v>       0.86382922       0.69067251       0.55777788 </v>
    <v>       0.84853484       0.64181817       0.53408100 </v>
    <v>       0.90767953       0.60527202       0.55426412 </v>
    <v>       0.75789332       0.51925860       0.60095180 </v>
    <v>       0.77184144       0.42719065       0.59040959 </v>
    <v>       0.68323550       0.45336796       0.60030452 </v>
    <v>       0.53540336       0.53401518       0.50608691 </v>
    <v>       0.57506370       0.55346776       0.48055089 </v>
    <v>       0.69760032       0.48315822       0.47069897 </v>
    <v>       0.55968420       0.41912971       0.52336310 </v>
    <v>       0.76459062       0.36247307       0.47286252 </v>
    <v>       0.62496531       0.29962849       0.52601543 </v>
    <v>       0.72759425       0.27079435       0.50108252 </v>
    <v>       0.02196828       0.24661466       0.55856698 </v>
    <v>       0.02024557       0.74784762       0.55774846 </v>
    <v>       0.47308940       0.22272550       0.55391102 </v>
    <v>       0.51027515       0.77284126       0.55819813 </v>
    <v>       0.23739897       0.51819942       0.55860623 </v>
    <v>       0.23930319       0.01433558       0.55593914 </v>
    <v>       0.77081375       0.98233041       0.56222067 </v>
    <v>       0.00819489       0.24507094       0.65212512 </v>
    <v>       0.00999287       0.76375414       0.65270880 </v>
    <v>       0.48657503       0.23176154       0.65267015 </v>
    <v>       0.49832483       0.75624214       0.65031226 </v>
    <v>       0.25103451       0.49582470       0.64919051 </v>
    <v>       0.25173435       0.99911035       0.64892215 </v>
    <v>       0.77150836       0.49429753       0.65189699 </v>
    <v>       0.75390576       0.00064721       0.64940876 </v>
    <v>       0.49998898       0.24999498       0.74327702 </v>
    <v>       0.49998903       0.74999496       0.74327702 </v>
    <v>       0.99998898       0.24999498       0.74327702 </v>
    <v>       0.99998903       0.74999496       0.74327702 </v>
    <v>       0.25000050       0.00000100       0.74325596 </v>
    <v>       0.25000052       0.50000100       0.74325596 </v>
    <v>       0.75000050       0.00000100       0.74325596 </v>
    <v>       0.75000049       0.50000100       0.74325596 </v>
    <v>       0.62467953       0.46030616       0.49735186 </v>
    <v>       0.68248428       0.44219190       0.48328184 </v>
    <v>       0.60465441       0.40656636       0.51243660 </v>
    <v>       0.71853381       0.37476760       0.48424532 </v>
    <v>       0.64059213       0.33927759       0.51370663 </v>
    <v>       0.69824183       0.32338419       0.49964034 </v>
    <v>       0.73107151       0.53076258       0.53197078 </v>
    <v>       0.83146713       0.47483656       0.55407261 </v>
    <v>       0.79027190       0.60117006       0.56262095 </v>
    <v>       0.70453309       0.49802753       0.56962474 </v>
    <v>       0.66055276       0.57715888       0.53046865 </v>
    <v>       0.63806263       0.59463872       0.50731235 </v>
    <v>       0.81734155       0.39611424       0.54763450 </v>
    <v>       0.85622844       0.63491323       0.55136022 </v>
    <v>       0.73238472       0.47391450       0.59153036 </v>
    <v>       0.58859147       0.53535281       0.49706869 </v>
    <v>       0.02540359       0.18462215       0.56905754 </v>
    <v>       0.03265559       0.68589892       0.56788458 </v>
    <v>       0.54346651       0.22200922       0.55931493 </v>
    <v>       0.50374753       0.71007435       0.56858717 </v>
    <v>       0.42479610       0.26889825       0.56148700 </v>
    <v>       0.47152857       0.83227511       0.56186592 </v>
    <v>       0.99866693       0.30949367       0.56657969 </v>
    <v>       0.98359204       0.80427538       0.56604632 </v>
    <v>       0.23360951       0.45106661       0.56691960 </v>
    <v>       0.17938559       0.97947411       0.56253921 </v>
    <v>       0.70287665       0.97183200       0.56808475 </v>
    <v>       0.30421522       0.00550252       0.56435067 </v>
    <v>       0.28369111       0.56836495       0.56485046 </v>
    <v>       0.81349057       0.03425708       0.57040596 </v>
    <v>       0.05814662       0.19358910       0.65677876 </v>
    <v>       0.05253547       0.71415736       0.66269773 </v>
    <v>       0.55130432       0.20696892       0.65936265 </v>
    <v>       0.53585802       0.71554572       0.66385537 </v>
    <v>       0.21226113       0.44454372       0.65860420 </v>
    <v>       0.20601368       0.95283127       0.65834988 </v>
    <v>       0.72212894       0.46395628       0.66448801 </v>
    <v>       0.70295976       0.95786512       0.65801046 </v>
    <v>       0.45028479       0.28682743       0.66071082 </v>
    <v>       0.44859117       0.80566538       0.65557863 </v>
    <v>       0.96867982       0.28209823       0.66575340 </v>
    <v>       0.94591122       0.78785513       0.65944690 </v>
    <v>       0.29387231       0.04684494       0.65839524 </v>
    <v>       0.29661348       0.54263652       0.65864547 </v>
    <v>       0.79241463       0.05020191       0.65933457 </v>
    <v>       0.80400696       0.55780166       0.65535386 </v>
    <v>       0.04586250       0.20411950       0.75272599 </v>
    <v>       0.04586250       0.70411946       0.75272599 </v>
    <v>       0.54586251       0.20411950       0.75272599 </v>
    <v>       0.54586250       0.70411946       0.75272599 </v>
    <v>       0.20411900       0.45410100       0.75270499 </v>
    <v>       0.20411899       0.95410095       0.75270499 </v>
    <v>       0.70411898       0.45410100       0.75270499 </v>
    <v>       0.70411896       0.95410095       0.75270499 </v>
    <v>       0.45414002       0.29588849       0.75272697 </v>
    <v>       0.45414001       0.79588852       0.75272697 </v>
    <v>       0.95414002       0.29588849       0.75272697 </v>
    <v>       0.95414006       0.79588852       0.75272697 </v>
    <v>       0.29588249       0.04590050       0.75270499 </v>
    <v>       0.29588248       0.54590053       0.75270499 </v>
    <v>       0.79588244       0.04590050       0.75270499 </v>
    <v>       0.79588248       0.54590053       0.75270499 </v>
    <v>       0.76510147       0.52640825       0.55438774 </v>
    <v>       0.50337905       0.02324422       0.55249637 </v>
    <v>       0.47119090       0.50870412       0.55674032 </v>
    <v>       0.98765779       0.99674470       0.55000680 </v>
    <v>       0.03746213       0.49398729       0.55307131 </v>
    <v>       0.22967708       0.23382915       0.55278647 </v>
    <v>       0.25909411       0.76051675       0.55302785 </v>
    <v>       0.74275144       0.20793289       0.55524539 </v>
    <v>       0.71353320       0.78871890       0.54783840 </v>
    <v>       0.00159076       0.99164527       0.65441977 </v>
    <v>       0.01277888       0.49714892       0.65571086 </v>
    <v>       0.49758899       0.00773828       0.65477031 </v>
    <v>       0.50438101       0.49326312       0.65556374 </v>
    <v>       0.25395892       0.24584390       0.65511992 </v>
    <v>       0.24591369       0.75295390       0.65445628 </v>
    <v>       0.74372068       0.26445443       0.65488880 </v>
    <v>       0.75202677       0.75360616       0.65371260 </v>
    <v>       0.13996577       0.10382837       0.61052733 </v>
    <v>       0.14686544       0.60573886       0.60972553 </v>
    <v>       0.64967882       0.10233703       0.61137216 </v>
    <v>       0.61727714       0.63670619       0.61453026 </v>
    <v>       0.35555821       0.39055654       0.60920950 </v>
    <v>       0.36246802       0.89103779       0.60815747 </v>
    <v>       0.89310001       0.36237086       0.61419157 </v>
    <v>       0.86613395       0.88051748       0.60945198 </v>
    <v>       0.11779544       0.35741756       0.61131801 </v>
    <v>       0.11871799       0.86762924       0.60779839 </v>
    <v>       0.57839730       0.32856251       0.60541717 </v>
    <v>       0.61501469       0.86633660       0.61181652 </v>
    <v>       0.38338324       0.13186220       0.60678170 </v>
    <v>       0.38873133       0.64020910       0.61175548 </v>
    <v>       0.88916999       0.13956443       0.61263651 </v>
    <v>       0.91258071       0.64658485       0.61505466 </v>
    <v>       0.00000000       0.00000000       0.75492797 </v>
    <v>       0.00000000       0.50000000       0.75492797 </v>
    <v>       0.50000000       0.00000000       0.75492797 </v>
    <v>       0.49999999       0.50000000       0.75492797 </v>
    <v>       0.25000050       0.25000000       0.75493902 </v>
    <v>       0.25000051       0.74999997       0.75493902 </v>
    <v>       0.75000047       0.25000000       0.75493902 </v>
    <v>       0.75000046       0.74999997       0.75493902 </v>
    <v>       0.13579050       0.11421000       0.70478299 </v>
    <v>       0.13579050       0.61420998       0.70478299 </v>
    <v>       0.63579045       0.11421000       0.70478299 </v>
    <v>       0.63579049       0.61420998       0.70478299 </v>
    <v>       0.36420952       0.38578999       0.70478299 </v>
    <v>       0.36420950       0.88578996       0.70478299 </v>
    <v>       0.86420954       0.38578999       0.70478299 </v>
    <v>       0.86420953       0.88578996       0.70478299 </v>
    <v>       0.11421799       0.36421899       0.70478098 </v>
    <v>       0.11421799       0.86421899       0.70478098 </v>
    <v>       0.61421800       0.36421899       0.70478098 </v>
    <v>       0.61421799       0.86421899       0.70478098 </v>
    <v>       0.38578201       0.13578149       0.70478202 </v>
    <v>       0.38578200       0.63578149       0.70478202 </v>
    <v>       0.88578199       0.13578149       0.70478202 </v>
    <v>       0.88578203       0.63578149       0.70478202 </v>
    <v>       0.13466700       0.11533200       0.80125603 </v>
    <v>       0.13466699       0.61533199       0.80125603 </v>
    <v>       0.63466699       0.11533200       0.80125603 </v>
    <v>       0.63466698       0.61533199       0.80125603 </v>
    <v>       0.36533300       0.38466799       0.80125603 </v>
    <v>       0.36533299       0.88466796       0.80125603 </v>
    <v>       0.86533295       0.38466799       0.80125603 </v>
    <v>       0.86533294       0.88466796       0.80125603 </v>
    <v>       0.11532850       0.36533700       0.80126500 </v>
    <v>       0.11532850       0.86533698       0.80126500 </v>
    <v>       0.61532850       0.36533700       0.80126500 </v>
    <v>       0.61532849       0.86533698       0.80126500 </v>
    <v>       0.38467151       0.13466300       0.80126500 </v>
    <v>       0.38467150       0.63466297       0.80126500 </v>
    <v>       0.88467149       0.13466300       0.80126500 </v>
    <v>       0.88467153       0.63466297       0.80126500 </v>
    <v>       0.99326151       0.99994923       0.60560440 </v>
    <v>       0.00685646       0.49867377       0.60679574 </v>
    <v>       0.50251936       0.00890953       0.60385253 </v>
    <v>       0.49666440       0.49422773       0.60557309 </v>
    <v>       0.24540655       0.24278005       0.60340646 </v>
    <v>       0.24816111       0.74587843       0.60268695 </v>
    <v>       0.74234507       0.24789437       0.60360144 </v>
    <v>       0.73709332       0.75426867       0.60273249 </v>
    <v>       0.00000050       0.00000050       0.70482896 </v>
    <v>       0.00000050       0.50000048       0.70482896 </v>
    <v>       0.50000048       0.00000050       0.70482896 </v>
    <v>       0.50000046       0.50000048       0.70482896 </v>
    <v>       0.24999999       0.24999947       0.70482499 </v>
    <v>       0.25000001       0.74999950       0.70482499 </v>
    <v>       0.74999999       0.24999947       0.70482499 </v>
    <v>       0.74999998       0.74999950       0.70482499 </v>
    <v>       0.00000000       0.00000000       0.80731797 </v>
    <v>       0.00000000       0.50000000       0.80731797 </v>
    <v>       0.50000000       0.00000000       0.80731797 </v>
    <v>       0.49999999       0.50000000       0.80731797 </v>
    <v>       0.24999999       0.25000000       0.80731797 </v>
    <v>       0.25000001       0.74999997       0.80731797 </v>
    <v>       0.74999999       0.25000000       0.80731797 </v>
    <v>       0.74999998       0.74999997       0.80731797 </v>
   </varray>
  </structure>
  <varray name="primitive_index" >
   <v type="int" >        1 </v>
   <v type="int" >        2 </v>
   <v type="int" >        3 </v>
   <v type="int" >        4 </v>
   <v type="int" >        5 </v>
   <v type="int" >        6 </v>
   <v type="int" >        7 </v>
   <v type="int" >        8 </v>
   <v type="int" >        9 </v>
   <v type="int" >       10 </v>
   <v type="int" >       11 </v>
   <v type="int" >       12 </v>
   <v type="int" >       13 </v>
   <v type="int" >       14 </v>
   <v type="int" >       15 </v>
   <v type="int" >       16 </v>
   <v type="int" >       17 </v>
   <v type="int" >       18 </v>
   <v type="int" >       19 </v>
   <v type="int" >       20 </v>
   <v type="int" >       21 </v>
   <v type="int" >       22 </v>
   <v type="int" >       23 </v>
   <v type="int" >       24 </v>
   <v type="int" >       25 </v>
   <v type="int" >       26 </v>
   <v type="int" >       27 </v>
   <v type="int" >       28 </v>
   <v type="int" >       29 </v>
   <v type="int" >       30 </v>
   <v type="int" >       31 </v>
   <v type="int" >       32 </v>
   <v type="int" >       33 </v>
   <v type="int" >       34 </v>
   <v type="int" >       35 </v>
   <v type="int" >       36 </v>
   <v type="int" >       37 </v>
   <v type="int" >       38 </v>
   <v type="int" >       39 </v>
   <v type="int" >       40 </v>
   <v type="int" >       41 </v>
   <v type="int" >       42 </v>
   <v type="int" >       43 </v>
   <v type="int" >       44 </v>
   <v type="int" >       45 </v>
   <v type="int" >       46 </v>
   <v type="int" >       47 </v>
   <v type="int" >       48 </v>
   <v type="int" >       49 </v>
   <v type="int" >       50 </v>
   <v type="int" >       51 </v>
   <v type="int" >       52 </v>
   <v type="int" >       53 </v>
   <v type="int" >       54 </v>
   <v type="int" >       55 </v>
   <v type="int" >       56 </v>
   <v type="int" >       57 </v>
   <v type="int" >       58 </v>
   <v type="int" >       59 </v>
   <v type="int" >       60 </v>
   <v type="int" >       61 </v>
   <v type="int" >       62 </v>
   <v type="int" >       63 </v>
   <v type="int" >       64 </v>
   <v type="int" >       65 </v>
   <v type="int" >       66 </v>
   <v type="int" >       67 </v>
   <v type="int" >       68 </v>
   <v type="int" >       69 </v>
   <v type="int" >       70 </v>
   <v type="int" >       71 </v>
   <v type="int" >       72 </v>
   <v type="int" >       73 </v>
   <v type="int" >       74 </v>
   <v type="int" >       75 </v>
   <v type="int" >       76 </v>
   <v type="int" >       77 </v>
   <v type="int" >       78 </v>
   <v type="int" >       79 </v>
   <v type="int" >       80 </v>
   <v type="int" >       81 </v>
   <v type="int" >       82 </v>
   <v type="int" >       83 </v>
   <v type="int" >       84 </v>
   <v type="int" >       85 </v>
   <v type="int" >       86 </v>
   <v type="int" >       87 </v>
   <v type="int" >       88 </v>
   <v type="int" >       89 </v>
   <v type="int" >       90 </v>
   <v type="int" >       91 </v>
   <v type="int" >       92 </v>
   <v type="int" >       93 </v>
   <v type="int" >       94 </v>
   <v type="int" >       95 </v>
   <v type="int" >       96 </v>
   <v type="int" >       97 </v>
   <v type="int" >       98 </v>
   <v type="int" >       99 </v>
   <v type="int" >      100 </v>
   <v type="int" >      101 </v>
   <v type="int" >      102 </v>
   <v type="int" >      103 </v>
   <v type="int" >      104 </v>
   <v type="int" >      105 </v>
   <v type="int" >      106 </v>
   <v type="int" >      107 </v>
   <v type="int" >      108 </v>
   <v type="int" >      109 </v>
   <v type="int" >      110 </v>
   <v type="int" >      111 </v>
   <v type="int" >      112 </v>
   <v type="int" >      113 </v>
   <v type="int" >      114 </v>
   <v type="int" >      115 </v>
   <v type="int" >      116 </v>
   <v type="int" >      117 </v>
   <v type="int" >      118 </v>
   <v type="int" >      119 </v>
   <v type="int" >      120 </v>
   <v type="int" >      121 </v>
   <v type="int" >      122 </v>
   <v type="int" >      123 </v>
   <v type="int" >      124 </v>
   <v type="int" >      125 </v>
   <v type="int" >      126 </v>
   <v type="int" >      127 </v>
   <v type="int" >      128 </v>
   <v type="int" >      129 </v>
   <v type="int" >      130 </v>
   <v type="int" >      131 </v>
   <v type="int" >      132 </v>
   <v type="int" >      133 </v>
   <v type="int" >      134 </v>
   <v type="int" >      135 </v>
   <v type="int" >      136 </v>
   <v type="int" >      137 </v>
   <v type="int" >      138 </v>
   <v type="int" >      139 </v>
   <v type="int" >      140 </v>
   <v type="int" >      141 </v>
   <v type="int" >      142 </v>
   <v type="int" >      143 </v>
   <v type="int" >      144 </v>
   <v type="int" >      145 </v>
   <v type="int" >      146 </v>
   <v type="int" >      147 </v>
   <v type="int" >      148 </v>
   <v type="int" >      149 </v>
   <v type="int" >      150 </v>
   <v type="int" >      151 </v>
   <v type="int" >      152 </v>
   <v type="int" >      153 </v>
   <v type="int" >      154 </v>
   <v type="int" >      155 </v>
   <v type="int" >      156 </v>
   <v type="int" >      157 </v>
   <v type="int" >      158 </v>
   <v type="int" >      159 </v>
   <v type="int" >      160 </v>
   <v type="int" >      161 </v>
   <v type="int" >      162 </v>
   <v type="int" >      163 </v>
   <v type="int" >      164 </v>
   <v type="int" >      165 </v>
   <v type="int" >      166 </v>
   <v type="int" >      167 </v>
   <v type="int" >      168 </v>
   <v type="int" >      169 </v>
   <v type="int" >      170 </v>
   <v type="int" >      171 </v>
   <v type="int" >      172 </v>
   <v type="int" >      173 </v>
   <v type="int" >      174 </v>
   <v type="int" >      175 </v>
   <v type="int" >      176 </v>
   <v type="int" >      177 </v>
   <v type="int" >      178 </v>
   <v type="int" >      179 </v>
   <v type="int" >      180 </v>
   <v type="int" >      181 </v>
   <v type="int" >      182 </v>
   <v type="int" >      183 </v>
   <v type="int" >      184 </v>
   <v type="int" >      185 </v>
   <v type="int" >      186 </v>
   <v type="int" >      187 </v>
   <v type="int" >      188 </v>
   <v type="int" >      189 </v>
   <v type="int" >      190 </v>
   <v type="int" >      191 </v>
   <v type="int" >      192 </v>
   <v type="int" >      193 </v>
   <v type="int" >      194 </v>
   <v type="int" >      195 </v>
   <v type="int" >      196 </v>
   <v type="int" >      197 </v>
   <v type="int" >      198 </v>
   <v type="int" >      199 </v>
   <v type="int" >      200 </v>
   <v type="int" >      201 </v>
   <v type="int" >      202 </v>
   <v type="int" >      203 </v>
   <v type="int" >      204 </v>
   <v type="int" >      205 </v>
   <v type="int" >      206 </v>
   <v type="int" >      207 </v>
   <v type="int" >      208 </v>
   <v type="int" >      209 </v>
   <v type="int" >      210 </v>
   <v type="int" >      211 </v>
   <v type="int" >      212 </v>
   <v type="int" >      213 </v>
   <v type="int" >      214 </v>
   <v type="int" >      215 </v>
   <v type="int" >      216 </v>
   <v type="int" >      217 </v>
   <v type="int" >      218 </v>
   <v type="int" >      219 </v>
   <v type="int" >      220 </v>
   <v type="int" >      221 </v>
   <v type="int" >      222 </v>
   <v type="int" >      223 </v>
   <v type="int" >      224 </v>
   <v type="int" >      225 </v>
   <v type="int" >      226 </v>
   <v type="int" >      227 </v>
   <v type="int" >      228 </v>
   <v type="int" >      229 </v>
   <v type="int" >      230 </v>
   <v type="int" >      231 </v>
   <v type="int" >      232 </v>
   <v type="int" >      233 </v>
   <v type="int" >      234 </v>
   <v type="int" >      235 </v>
   <v type="int" >      236 </v>
   <v type="int" >      237 </v>
   <v type="int" >      238 </v>
   <v type="int" >      239 </v>
   <v type="int" >      240 </v>
   <v type="int" >      241 </v>
   <v type="int" >      242 </v>
   <v type="int" >      243 </v>
   <v type="int" >      244 </v>
   <v type="int" >      245 </v>
   <v type="int" >      246 </v>
   <v type="int" >      247 </v>
   <v type="int" >      248 </v>
   <v type="int" >      249 </v>
   <v type="int" >      250 </v>
   <v type="int" >      251 </v>
   <v type="int" >      252 </v>
   <v type="int" >      253 </v>
   <v type="int" >      254 </v>
   <v type="int" >      255 </v>
   <v type="int" >      256 </v>
   <v type="int" >      257 </v>
   <v type="int" >      258 </v>
   <v type="int" >      259 </v>
   <v type="int" >      260 </v>
   <v type="int" >      261 </v>
   <v type="int" >      262 </v>
   <v type="int" >      263 </v>
   <v type="int" >      264 </v>
   <v type="int" >      265 </v>
   <v type="int" >      266 </v>
   <v type="int" >      267 </v>
   <v type="int" >      268 </v>
   <v type="int" >      269 </v>
   <v type="int" >      270 </v>
   <v type="int" >      271 </v>
   <v type="int" >      272 </v>
   <v type="int" >      273 </v>
   <v type="int" >      274 </v>
   <v type="int" >      275 </v>
   <v type="int" >      276 </v>
   <v type="int" >      277 </v>
   <v type="int" >      278 </v>
   <v type="int" >      279 </v>
   <v type="int" >      280 </v>
   <v type="int" >      281 </v>
   <v type="int" >      282 </v>
   <v type="int" >      283 </v>
   <v type="int" >      284 </v>
   <v type="int" >      285 </v>
   <v type="int" >      286 </v>
   <v type="int" >      287 </v>
   <v type="int" >      288 </v>
   <v type="int" >      289 </v>
   <v type="int" >      290 </v>
   <v type="int" >      291 </v>
   <v type="int" >      292 </v>
   <v type="int" >      293 </v>
   <v type="int" >      294 </v>
   <v type="int" >      295 </v>
   <v type="int" >      296 </v>
   <v type="int" >      297 </v>
   <v type="int" >      298 </v>
   <v type="int" >      299 </v>
   <v type="int" >      300 </v>
   <v type="int" >      301 </v>
   <v type="int" >      302 </v>
   <v type="int" >      303 </v>
   <v type="int" >      304 </v>
   <v type="int" >      305 </v>
   <v type="int" >      306 </v>
   <v type="int" >      307 </v>
   <v type="int" >      308 </v>
   <v type="int" >      309 </v>
   <v type="int" >      310 </v>
   <v type="int" >      311 </v>
   <v type="int" >      312 </v>
   <v type="int" >      313 </v>
   <v type="int" >      314 </v>
   <v type="int" >      315 </v>
   <v type="int" >      316 </v>
   <v type="int" >      317 </v>
   <v type="int" >      318 </v>
   <v type="int" >      319 </v>
   <v type="int" >      320 </v>
   <v type="int" >      321 </v>
   <v type="int" >      322 </v>
   <v type="int" >      323 </v>
   <v type="int" >      324 </v>
   <v type="int" >      325 </v>
  </varray>
 </primitive_cell>
 <kpoints>
  <generation param="Gamma">
   <v type="int" name="divisions">       3        3        1 </v>
   <v name="usershift">      0.00000000       0.00000000       0.00000000 </v>
   <v name="genvec1">      0.33333333       0.00000000       0.00000000 </v>
   <v name="genvec2">      0.00000000       0.33333333       0.00000000 </v>
   <v name="genvec3">      0.00000000       0.00000000       1.00000000 </v>
   <v name="shift">      0.00000000       0.00000000       0.00000000 </v>
  </generation>
  <varray name="kpointlist" >
   <v>       0.00000000       0.00000000       0.00000000 </v>
   <v>       0.33333333       0.00000000       0.00000000 </v>
   <v>       0.00000000       0.33333333       0.00000000 </v>
   <v>       0.33333333       0.33333333       0.00000000 </v>
   <v>      -0.33333333       0.33333333       0.00000000 </v>
  </varray>
  <varray name="weights" >
   <v>       0.11111111 </v>
   <v>       0.22222222 </v>
   <v>       0.22222222 </v>
   <v>       0.22222222 </v>
   <v>       0.22222222 </v>
  </varray>
 </kpoints>
 <parameters>
  <separator name="general" >
   <i type="string" name="SYSTEM">PSC</i>
   <i type="logical" name="LCOMPAT"> F  </i>
  </separator>
  <separator name="electronic" >
   <i type="string" name="PREC">normal</i>
   <i name="ENMAX">    500.00000000</i>
   <i name="ENAUG">    644.87300000</i>
   <i name="EDIFF">      0.00010000</i>
   <i type="int" name="IALGO">    38</i>
   <i type="int" name="IWAVPR">    10</i>
   <i type="int" name="NBANDS">   732</i>
   <i type="int" name="NBANDSLOW">    -1</i>
   <i type="int" name="NBANDSHIGH">    -1</i>
   <i name="NELECT">   1134.00000000</i>
   <i type="int" name="TURBO">     0</i>
   <i type="int" name="IRESTART">     0</i>
   <i type="int" name="NREBOOT">     0</i>
   <i type="int" name="NMIN">     0</i>
   <i name="EREF">      0.00000000</i>
   <separator name="electronic smearing" >
    <i type="int" name="ISMEAR">     0</i>
    <i name="SIGMA">      0.05000000</i>
    <i name="KSPACING">      0.50000000</i>
    <i type="logical" name="KGAMMA"> T  </i>
    <i type="logical" name="KBLOWUP"> T  </i>
   </separator>
   <separator name="electronic projectors" >
    <i type="logical" name="LREAL"> T  </i>
    <v name="ROPT">     -0.00050000     -0.00050000     -0.00050000     -0.00050000     -0.00050000</v>
    <i type="int" name="LMAXPAW">  -100</i>
    <i type="int" name="LMAXMIX">     2</i>
    <i type="logical" name="NLSPLINE"> F  </i>
   </separator>
   <separator name="electronic startup" >
    <i type="int" name="ISTART">     0</i>
    <i type="int" name="ICHARG">     1</i>
    <i type="int" name="INIWAV">     1</i>
   </separator>
   <separator name="electronic spin" >
    <i type="int" name="ISPIN">     1</i>
    <i type="logical" name="LNONCOLLINEAR"> F  </i>
    <v name="MAGMOM">      1.00000000      1.00000000      1.00000000      1.00000000      1.00000000      1.00000000      1.00000000      1.00000000      1.00000000      1.00000000      1.00000000      1.00000000      1.00000000      1.00000000      1.00000000      1.00000000      1.00000000      1.00000000      1.00000000      1.00000000
      1.00000000      1.00000000      1.00000000      1.00000000      1.00000000      1.00000000      1.00000000      1.00000000      1.00000000      1.00000000      1.00000000      1.00000000      1.00000000      1.00000000      1.00000000      1.00000000      1.00000000      1.00000000      1.00000000      1.00000000
      1.00000000      1.00000000      1.00000000      1.00000000      1.00000000      1.00000000      1.00000000      1.00000000      1.00000000      1.00000000      1.00000000      1.00000000      1.00000000      1.00000000      1.00000000      1.00000000      1.00000000      1.00000000      1.00000000      1.00000000
      1.00000000      1.00000000      1.00000000      1.00000000      1.00000000      1.00000000      1.00000000      1.00000000      1.00000000      1.00000000      1.00000000      1.00000000      1.00000000      1.00000000      1.00000000      1.00000000      1.00000000      1.00000000      1.00000000      1.00000000
      1.00000000      1.00000000      1.00000000      1.00000000      1.00000000      1.00000000      1.00000000      1.00000000      1.00000000      1.00000000      1.00000000      1.00000000      1.00000000      1.00000000      1.00000000      1.00000000      1.00000000      1.00000000      1.00000000      1.00000000
      1.00000000      1.00000000      1.00000000      1.00000000      1.00000000      1.00000000      1.00000000      1.00000000      1.00000000      1.00000000      1.00000000      1.00000000      1.00000000      1.00000000      1.00000000      1.00000000      1.00000000      1.00000000      1.00000000      1.00000000
      1.00000000      1.00000000      1.00000000      1.00000000      1.00000000      1.00000000      1.00000000      1.00000000      1.00000000      1.00000000      1.00000000      1.00000000      1.00000000      1.00000000      1.00000000      1.00000000      1.00000000      1.00000000      1.00000000      1.00000000
      1.00000000      1.00000000      1.00000000      1.00000000      1.00000000      1.00000000      1.00000000      1.00000000      1.00000000      1.00000000      1.00000000      1.00000000      1.00000000      1.00000000      1.00000000      1.00000000      1.00000000      1.00000000      1.00000000      1.00000000
      1.00000000      1.00000000      1.00000000      1.00000000      1.00000000      1.00000000      1.00000000      1.00000000      1.00000000      1.00000000      1.00000000      1.00000000      1.00000000      1.00000000      1.00000000      1.00000000      1.00000000      1.00000000      1.00000000      1.00000000
      1.00000000      1.00000000      1.00000000      1.00000000      1.00000000      1.00000000      1.00000000      1.00000000      1.00000000      1.00000000      1.00000000      1.00000000      1.00000000      1.00000000      1.00000000      1.00000000      1.00000000      1.00000000      1.00000000      1.00000000
      1.00000000      1.00000000      1.00000000      1.00000000      1.00000000      1.00000000      1.00000000      1.00000000      1.00000000      1.00000000      1.00000000      1.00000000      1.00000000      1.00000000      1.00000000      1.00000000      1.00000000      1.00000000      1.00000000      1.00000000
      1.00000000      1.00000000      1.00000000      1.00000000      1.00000000      1.00000000      1.00000000      1.00000000      1.00000000      1.00000000      1.00000000      1.00000000      1.00000000      1.00000000      1.00000000      1.00000000      1.00000000      1.00000000      1.00000000      1.00000000
      1.00000000      1.00000000      1.00000000      1.00000000      1.00000000      1.00000000      1.00000000      1.00000000      1.00000000      1.00000000      1.00000000      1.00000000      1.00000000      1.00000000      1.00000000      1.00000000      1.00000000      1.00000000      1.00000000      1.00000000
      1.00000000      1.00000000      1.00000000      1.00000000      1.00000000      1.00000000      1.00000000      1.00000000      1.00000000      1.00000000      1.00000000      1.00000000      1.00000000      1.00000000      1.00000000      1.00000000      1.00000000      1.00000000      1.00000000      1.00000000
      1.00000000      1.00000000      1.00000000      1.00000000      1.00000000      1.00000000      1.00000000      1.00000000      1.00000000      1.00000000      1.00000000      1.00000000      1.00000000      1.00000000      1.00000000      1.00000000      1.00000000      1.00000000      1.00000000      1.00000000
      1.00000000      1.00000000      1.00000000      1.00000000      1.00000000      1.00000000      1.00000000      1.00000000      1.00000000      1.00000000      1.00000000      1.00000000      1.00000000      1.00000000      1.00000000      1.00000000      1.00000000      1.00000000      1.00000000      1.00000000
      1.00000000      1.00000000      1.00000000      1.00000000      1.00000000</v>
    <i name="NUPDOWN">     -1.00000000</i>
    <i type="logical" name="LSORBIT"> F  </i>
    <v name="SAXIS">      0.00000000      0.00000000      1.00000000</v>
    <i type="logical" name="LSPIRAL"> F  </i>
    <v name="QSPIRAL">      0.00000000      0.00000000      0.00000000</v>
    <i type="logical" name="LZEROZ"> F  </i>
   </separator>
   <separator name="electronic exchange-correlation" >
    <i type="logical" name="LASPH"> F  </i>
    <i type="logical" name="LMETAGGA"> F  </i>
   </separator>
   <separator name="electronic convergence" >
    <i type="int" name="NELM">   600</i>
    <i type="int" name="NELMDL">     0</i>
    <i type="int" name="NELMIN">     2</i>
    <i name="ENINI">    500.00000000</i>
    <separator name="electronic convergence detail" >
     <i type="logical" name="LDIAG"> T  </i>
     <i type="logical" name="LSUBROT"> F  </i>
     <i name="WEIMIN">      0.00000000</i>
     <i name="EBREAK">      0.00000003</i>
     <i name="DEPER">      0.30000000</i>
     <i type="int" name="NRMM">     4</i>
     <i name="TIME">      0.40000000</i>
    </separator>
   </separator>
   <separator name="electronic mixer" >
    <i name="AMIX">      0.40000000</i>
    <i name="BMIX">      0.01000000</i>
    <i name="AMIN">      0.01000000</i>
    <i name="AMIX_MAG">      1.60000000</i>
    <i name="BMIX_MAG">      0.01000000</i>
    <separator name="electronic mixer details" >
     <i type="int" name="IMIX">     4</i>
     <i type="logical" name="MIXFIRST"> F  </i>
     <i type="int" name="MAXMIX">   -45</i>
     <i name="WC">    100.00000000</i>
     <i type="int" name="INIMIX">     1</i>
     <i type="int" name="MIXPRE">     1</i>
     <i type="int" name="MREMOVE">     5</i>
    </separator>
   </separator>
   <separator name="electronic dipolcorrection" >
    <i type="logical" name="LDIPOL"> T  </i>
    <i type="logical" name="LMONO"> F  </i>
    <i type="int" name="IDIPOL">     3</i>
    <i name="EPSILON">      1.00000000</i>
    <v name="DIPOL">   -100.00000000   -100.00000000   -100.00000000</v>
    <i name="EFIELD">      0.00000000</i>
   </separator>
  </separator>
  <separator name="grids" >
   <i type="int" name="NGX">   100</i>
   <i type="int" name="NGY">   100</i>
   <i type="int" name="NGZ">   350</i>
   <i type="int" name="NGXF">   200</i>
   <i type="int" name="NGYF">   200</i>
   <i type="int" name="NGZF">   700</i>
   <i type="logical" name="ADDGRID"> F  </i>
  </separator>
  <separator name="ionic" >
   <i type="int" name="NSW">     0</i>
   <i type="int" name="IBRION">    -1</i>
   <i type="int" name="MDALGO">     0</i>
   <i type="int" name="ISIF">     2</i>
   <i name="PSTRESS">      0.00000000</i>
   <i name="EDIFFG">      0.00100000</i>
   <i type="int" name="NFREE">     0</i>
   <i name="POTIM">      0.50000000</i>
   <i name="SMASS">     -3.00000000</i>
   <i name="SCALEE">      1.00000000</i>
  </separator>
  <separator name="ionic md" >
   <i name="TEBEG">      0.00010000</i>
   <i name="TEEND">      0.00010000</i>
   <i type="int" name="NBLOCK">     1</i>
   <i type="int" name="KBLOCK">     1</i>
   <i type="int" name="NPACO">   256</i>
   <i name="APACO">     16.00000000</i>
  </separator>
  <separator name="symmetry" >
   <i type="int" name="ISYM">     0</i>
   <i name="SYMPREC">      0.00001000</i>
  </separator>
  <separator name="dos" >
   <i type="int" name="LORBIT">     0</i>
   <v name="RWIGS">     -1.00000000     -1.00000000     -1.00000000     -1.00000000     -1.00000000</v>
   <i type="int" name="NEDOS">   301</i>
   <i name="EMIN">     10.00000000</i>
   <i name="EMAX">    -10.00000000</i>
   <i name="EFERMI">      0.00000000</i>
  </separator>
  <separator name="writing" >
   <i type="int" name="NWRITE">     2</i>
   <i type="logical" name="LWAVE"> F  </i>
   <i type="logical" name="LDOWNSAMPLE"> F  </i>
   <i type="logical" name="LCHARG"> T  </i>
   <i type="logical" name="LPARD"> F  </i>
   <i type="logical" name="LVTOT"> T  </i>
   <i type="logical" name="LVHAR"> F  </i>
   <i type="logical" name="LELF"> F  </i>
   <i type="logical" name="LOPTICS"> F  </i>
   <v name="STM">      0.00000000      0.00000000      0.00000000      0.00000000      0.00000000      0.00000000      0.00000000</v>
  </separator>
  <separator name="performance" >
   <i type="int" name="NPAR">     4</i>
   <i type="int" name="NSIM">     4</i>
   <i type="int" name="NBLK">    -1</i>
   <i type="logical" name="LPLANE"> T  </i>
   <i type="logical" name="LSCALAPACK"> T  </i>
   <i type="logical" name="LSCAAWARE"> F  </i>
   <i type="logical" name="LSCALU"> F  </i>
   <i type="logical" name="LASYNC"> F  </i>
   <i type="logical" name="LORBITALREAL"> F  </i>
  </separator>
  <separator name="miscellaneous" >
   <i type="int" name="IDIOT">     3</i>
   <i type="int" name="PHON_NSTRUCT">    -1</i>
   <i type="logical" name="LMUSIC"> F  </i>
   <v name="POMASS">      1.00000000     12.01100000     14.00100000    126.90400000    207.20000000</v>
   <v name="DARWINR">      0.00000000      0.00000000      0.00000000      0.00000000      0.00000000</v>
   <v name="DARWINV">      1.00000000      1.00000000      1.00000000      1.00000000      1.00000000</v>
   <i type="logical" name="LCORR"> T  </i>
  </separator>
  <i type="logical" name="GGA_COMPAT"> F  </i>
  <i type="logical" name="LBERRY"> F  </i>
  <i type="int" name="ICORELEVEL">     0</i>
  <i type="logical" name="LDAU"> F  </i>
  <i type="int" name="I_CONSTRAINED_M">     0</i>
  <separator name="electronic exchange-correlation" >
   <i type="string" name="GGA">--</i>
   <i type="int" name="VOSKOWN">     0</i>
   <i type="logical" name="LHFCALC"> F  </i>
   <i type="string" name="PRECFOCK"></i>
   <i type="logical" name="LSYMGRAD"> F  </i>
   <i type="logical" name="LHFONE"> F  </i>
   <i type="logical" name="LRHFCALC"> F  </i>
   <i type="logical" name="LTHOMAS"> F  </i>
   <i type="logical" name="LMODELHF"> F  </i>
   <i type="logical" name="LFOCKACE"> F  </i>
   <i name="ENCUT4O">     -1.00000000</i>
   <i type="int" name="EXXOEP">     0</i>
   <i type="int" name="FOURORBIT">     0</i>
   <i name="AEXX">      0.00000000</i>
   <i name="HFALPHA">      0.00000000</i>
   <i name="MCALPHA">      0.00000000</i>
   <i name="ALDAX">      1.00000000</i>
   <i name="AGGAX">      1.00000000</i>
   <i name="ALDAC">      1.00000000</i>
   <i name="AGGAC">      1.00000000</i>
   <i type="int" name="NKREDX">     1</i>
   <i type="int" name="NKREDY">     1</i>
   <i type="int" name="NKREDZ">     1</i>
   <i type="logical" name="SHIFTRED"> F  </i>
   <i type="logical" name="ODDONLY"> F  </i>
   <i type="logical" name="EVENONLY"> F  </i>
   <i type="int" name="LMAXFOCK">     0</i>
   <i type="int" name="NMAXFOCKAE">     0</i>
   <i type="logical" name="LFOCKAEDFT"> F  </i>
   <i name="HFSCREEN">      0.00000000</i>
   <i name="HFSCREENC">      0.00000000</i>
   <i type="int" name="NBANDSGWLOW">     0</i>
  </separator>
  <separator name="vdW DFT" >
   <i type="logical" name="LUSE_VDW"> F  </i>
   <i name="Zab_VDW">     -0.84910000</i>
   <i name="PARAM1">      0.12340000</i>
   <i name="PARAM2">      1.00000000</i>
   <i name="PARAM3">      0.00000000</i>
  </separator>
  <separator name="model GW" >
   <i type="int" name="MODEL_GW">     0</i>
   <i name="MODEL_EPS0">     37.63423484</i>
   <i name="MODEL_ALPHA">      1.00000000</i>
  </separator>
  <separator name="linear response parameters" >
   <i type="logical" name="LEPSILON"> F  </i>
   <i type="logical" name="LRPA"> F  </i>
   <i type="logical" name="LNABLA"> F  </i>
   <i type="logical" name="LVEL"> F  </i>
   <i type="int" name="KINTER">     0</i>
   <i name="CSHIFT">      0.10000000</i>
   <i name="OMEGAMAX">     -1.00000000</i>
   <i name="DEG_THRESHOLD">      0.00200000</i>
   <i name="RTIME">     -0.10000000</i>
   <i name="WPLASMAI">      0.00000000</i>
   <v name="DFIELD">      0.00000000      0.00000000      0.00000000</v>
   <v name="WPLASMA">      0.00000000      0.00000000      0.00000000      0.00000000      0.00000000      0.00000000      0.00000000      0.00000000      0.00000000</v>
  </separator>
  <separator name="orbital magnetization" >
   <i type="logical" name="NUCIND"> F  </i>
   <v name="MAGPOS">      0.00000000      0.00000000      0.00000000</v>
   <i type="logical" name="LNICSALL"> T  </i>
   <i type="logical" name="ORBITALMAG"> F  </i>
   <i type="logical" name="LMAGBLOCH"> F  </i>
   <i type="logical" name="LCHIMAG"> F  </i>
   <i type="logical" name="LGAUGE"> T  </i>
   <i type="int" name="MAGATOM">     0</i>
   <v name="MAGDIPOL">      0.00000000      0.00000000      0.00000000</v>
   <v name="AVECCONST">      0.00000000      0.00000000      0.00000000</v>
  </separator>
  <separator name="response functions" >
   <i type="logical" name="LFINITE_TEMPERATURE"> F  </i>
   <i type="logical" name="LADDER"> F  </i>
   <i type="logical" name="LRPAFORCE"> F  </i>
   <i type="logical" name="LFXC"> F  </i>
   <i type="logical" name="LHARTREE"> T  </i>
   <i type="int" name="IBSE">     0</i>
   <v type="int" name="KPOINT">    -1     0     0     0</v>
   <i type="logical" name="LTCTC"> F  </i>
   <i type="logical" name="LTCTE"> F  </i>
   <i type="logical" name="LTETE"> F  </i>
   <i type="logical" name="LTRIPLET"> F  </i>
   <i type="logical" name="LFXCEPS"> F  </i>
   <i type="logical" name="LFXHEG"> F  </i>
   <i type="int" name="NATURALO">     2</i>
   <i type="logical" name="LHOLEGF"> F  </i>
   <i type="logical" name="L2ORDER"> F  </i>
   <i type="logical" name="LDMP1"> F  </i>
   <i type="logical" name="LMP2LT"> F  </i>
   <i type="logical" name="LSMP2LT"> F  </i>
   <i type="logical" name="LGWLF"> F  </i>
   <i name="ENCUTGW">     -2.00000000</i>
   <i name="ENCUTGWSOFT">     -2.00000000</i>
   <i name="ENCUTLF">     -1.00000000</i>
   <i type="logical" name="LESF_SPLINES"> F  </i>
   <i type="int" name="LMAXMP2">    -1</i>
   <i name="SCISSOR">      0.00000000</i>
   <i type="int" name="NOMEGA">     0</i>
   <i type="int" name="NOMEGAR">     0</i>
   <i type="int" name="NBANDSGW">    -1</i>
   <i type="int" name="NBANDSO">    -1</i>
   <i type="int" name="NBANDSV">    -1</i>
   <i type="int" name="NELM">   600</i>
   <i type="int" name="NELMHF">     1</i>
   <i type="int" name="DIM">     3</i>
   <i type="int" name="IESPILON">     4</i>
   <i type="int" name="ANTIRES">     0</i>
   <i name="OMEGAMAX">    -30.00000000</i>
   <i name="OMEGAMIN">    -30.00000000</i>
   <i name="OMEGATL">   -200.00000000</i>
   <i type="int" name="OMEGAGRID">     0</i>
   <i name="CSHIFT">     -0.10000000</i>
   <i type="logical" name="LSELFENERGY"> F  </i>
   <i type="logical" name="LSPECTRAL"> F  </i>
   <i type="logical" name="LSPECTRALGW"> F  </i>
   <i type="logical" name="LSINGLES"> F  </i>
   <i type="logical" name="LFERMIGW"> F  </i>
   <i type="logical" name="ODDONLYGW"> F  </i>
   <i type="logical" name="EVENONLYGW"> F  </i>
   <i type="int" name="NKREDLFX">     1</i>
   <i type="int" name="NKREDLFY">     1</i>
   <i type="int" name="NKREDLFZ">     1</i>
   <i type="int" name="MAXMEM">  2800</i>
   <i type="int" name="TELESCOPE">     0</i>
   <i type="int" name="NTAUPAR">    -1</i>
   <i type="int" name="NOMEGAPAR">    -1</i>
   <i name="DAMP_NEWTON">      0.80000001</i>
   <i name="LAMBDA">      1.00000000</i>
  </separator>
  <separator name="External order field" >
   <i name="OFIELD_KAPPA">      0.00000000</i>
   <v name="OFIELD_K">      0.00000000      0.00000000      0.00000000</v>
   <i name="OFIELD_Q6_NEAR">      0.00000000</i>
   <i name="OFIELD_Q6_FAR">      0.00000000</i>
   <i name="OFIELD_A">      0.00000000</i>
  </separator>
 </parameters>
 <atominfo>
  <atoms>     325 </atoms>
  <types>       5 </types>
  <array name="atoms" >
   <dimension dim="1">ion</dimension>
   <field type="string">element</field>
   <field type="int">atomtype</field>
   <set>
    <rc><c>H </c><c>   1</c></rc>
    <rc><c>H </c><c>   1</c></rc>
    <rc><c>H </c><c>   1</c></rc>
    <rc><c>H </c><c>   1</c></rc>
    <rc><c>H </c><c>   1</c></rc>
    <rc><c>H </c><c>   1</c></rc>
    <rc><c>H </c><c>   1</c></rc>
    <rc><c>H </c><c>   1</c></rc>
    <rc><c>H </c><c>   1</c></rc>
    <rc><c>H </c><c>   1</c></rc>
    <rc><c>H </c><c>   1</c></rc>
    <rc><c>H </c><c>   1</c></rc>
    <rc><c>H </c><c>   1</c></rc>
    <rc><c>H </c><c>   1</c></rc>
    <rc><c>H </c><c>   1</c></rc>
    <rc><c>H </c><c>   1</c></rc>
    <rc><c>H </c><c>   1</c></rc>
    <rc><c>H </c><c>   1</c></rc>
    <rc><c>H </c><c>   1</c></rc>
    <rc><c>H </c><c>   1</c></rc>
    <rc><c>H </c><c>   1</c></rc>
    <rc><c>H </c><c>   1</c></rc>
    <rc><c>H </c><c>   1</c></rc>
    <rc><c>H </c><c>   1</c></rc>
    <rc><c>H </c><c>   1</c></rc>
    <rc><c>H </c><c>   1</c></rc>
    <rc><c>H </c><c>   1</c></rc>
    <rc><c>H </c><c>   1</c></rc>
    <rc><c>H </c><c>   1</c></rc>
    <rc><c>H </c><c>   1</c></rc>
    <rc><c>H </c><c>   1</c></rc>
    <rc><c>H </c><c>   1</c></rc>
    <rc><c>H </c><c>   1</c></rc>
    <rc><c>H </c><c>   1</c></rc>
    <rc><c>H </c><c>   1</c></rc>
    <rc><c>H </c><c>   1</c></rc>
    <rc><c>H </c><c>   1</c></rc>
    <rc><c>H </c><c>   1</c></rc>
    <rc><c>H </c><c>   1</c></rc>
    <rc><c>H </c><c>   1</c></rc>
    <rc><c>H </c><c>   1</c></rc>
    <rc><c>H </c><c>   1</c></rc>
    <rc><c>H </c><c>   1</c></rc>
    <rc><c>H </c><c>   1</c></rc>
    <rc><c>H </c><c>   1</c></rc>
    <rc><c>H </c><c>   1</c></rc>
    <rc><c>H </c><c>   1</c></rc>
    <rc><c>H </c><c>   1</c></rc>
    <rc><c>H </c><c>   1</c></rc>
    <rc><c>H </c><c>   1</c></rc>
    <rc><c>H </c><c>   1</c></rc>
    <rc><c>H </c><c>   1</c></rc>
    <rc><c>H </c><c>   1</c></rc>
    <rc><c>H </c><c>   1</c></rc>
    <rc><c>H </c><c>   1</c></rc>
    <rc><c>H </c><c>   1</c></rc>
    <rc><c>H </c><c>   1</c></rc>
    <rc><c>H </c><c>   1</c></rc>
    <rc><c>H </c><c>   1</c></rc>
    <rc><c>H </c><c>   1</c></rc>
    <rc><c>H </c><c>   1</c></rc>
    <rc><c>H </c><c>   1</c></rc>
    <rc><c>H </c><c>   1</c></rc>
    <rc><c>H </c><c>   1</c></rc>
    <rc><c>H </c><c>   1</c></rc>
    <rc><c>H </c><c>   1</c></rc>
    <rc><c>H </c><c>   1</c></rc>
    <rc><c>H </c><c>   1</c></rc>
    <rc><c>H </c><c>   1</c></rc>
    <rc><c>H </c><c>   1</c></rc>
    <rc><c>H </c><c>   1</c></rc>
    <rc><c>H </c><c>   1</c></rc>
    <rc><c>H </c><c>   1</c></rc>
    <rc><c>H </c><c>   1</c></rc>
    <rc><c>H </c><c>   1</c></rc>
    <rc><c>H </c><c>   1</c></rc>
    <rc><c>H </c><c>   1</c></rc>
    <rc><c>H </c><c>   1</c></rc>
    <rc><c>H </c><c>   1</c></rc>
    <rc><c>H </c><c>   1</c></rc>
    <rc><c>H </c><c>   1</c></rc>
    <rc><c>H </c><c>   1</c></rc>
    <rc><c>H </c><c>   1</c></rc>
    <rc><c>H </c><c>   1</c></rc>
    <rc><c>H </c><c>   1</c></rc>
    <rc><c>H </c><c>   1</c></rc>
    <rc><c>H </c><c>   1</c></rc>
    <rc><c>H </c><c>   1</c></rc>
    <rc><c>H </c><c>   1</c></rc>
    <rc><c>H </c><c>   1</c></rc>
    <rc><c>H </c><c>   1</c></rc>
    <rc><c>H </c><c>   1</c></rc>
    <rc><c>H </c><c>   1</c></rc>
    <rc><c>H </c><c>   1</c></rc>
    <rc><c>H </c><c>   1</c></rc>
    <rc><c>H </c><c>   1</c></rc>
    <rc><c>H </c><c>   1</c></rc>
    <rc><c>H </c><c>   1</c></rc>
    <rc><c>H </c><c>   1</c></rc>
    <rc><c>H </c><c>   1</c></rc>
    <rc><c>H </c><c>   1</c></rc>
    <rc><c>H </c><c>   1</c></rc>
    <rc><c>H </c><c>   1</c></rc>
    <rc><c>H </c><c>   1</c></rc>
    <rc><c>H </c><c>   1</c></rc>
    <rc><c>H </c><c>   1</c></rc>
    <rc><c>H </c><c>   1</c></rc>
    <rc><c>H </c><c>   1</c></rc>
    <rc><c>H </c><c>   1</c></rc>
    <rc><c>H </c><c>   1</c></rc>
    <rc><c>H </c><c>   1</c></rc>
    <rc><c>H </c><c>   1</c></rc>
    <rc><c>H </c><c>   1</c></rc>
    <rc><c>H </c><c>   1</c></rc>
    <rc><c>H </c><c>   1</c></rc>
    <rc><c>H </c><c>   1</c></rc>
    <rc><c>H </c><c>   1</c></rc>
    <rc><c>H </c><c>   1</c></rc>
    <rc><c>H </c><c>   1</c></rc>
    <rc><c>H </c><c>   1</c></rc>
    <rc><c>H </c><c>   1</c></rc>
    <rc><c>H </c><c>   1</c></rc>
    <rc><c>H </c><c>   1</c></rc>
    <rc><c>H </c><c>   1</c></rc>
    <rc><c>H </c><c>   1</c></rc>
    <rc><c>H </c><c>   1</c></rc>
    <rc><c>H </c><c>   1</c></rc>
    <rc><c>H </c><c>   1</c></rc>
    <rc><c>H </c><c>   1</c></rc>
    <rc><c>H </c><c>   1</c></rc>
    <rc><c>H </c><c>   1</c></rc>
    <rc><c>H </c><c>   1</c></rc>
    <rc><c>H </c><c>   1</c></rc>
    <rc><c>H </c><c>   1</c></rc>
    <rc><c>H </c><c>   1</c></rc>
    <rc><c>H </c><c>   1</c></rc>
    <rc><c>H </c><c>   1</c></rc>
    <rc><c>H </c><c>   1</c></rc>
    <rc><c>H </c><c>   1</c></rc>
    <rc><c>H </c><c>   1</c></rc>
    <rc><c>H </c><c>   1</c></rc>
    <rc><c>H </c><c>   1</c></rc>
    <rc><c>H </c><c>   1</c></rc>
    <rc><c>C </c><c>   2</c></rc>
    <rc><c>C </c><c>   2</c></rc>
    <rc><c>C </c><c>   2</c></rc>
    <rc><c>C </c><c>   2</c></rc>
    <rc><c>C </c><c>   2</c></rc>
    <rc><c>C </c><c>   2</c></rc>
    <rc><c>C </c><c>   2</c></rc>
    <rc><c>C </c><c>   2</c></rc>
    <rc><c>C </c><c>   2</c></rc>
    <rc><c>C </c><c>   2</c></rc>
    <rc><c>C </c><c>   2</c></rc>
    <rc><c>C </c><c>   2</c></rc>
    <rc><c>C </c><c>   2</c></rc>
    <rc><c>C </c><c>   2</c></rc>
    <rc><c>C </c><c>   2</c></rc>
    <rc><c>C </c><c>   2</c></rc>
    <rc><c>C </c><c>   2</c></rc>
    <rc><c>C </c><c>   2</c></rc>
    <rc><c>C </c><c>   2</c></rc>
    <rc><c>C </c><c>   2</c></rc>
    <rc><c>C </c><c>   2</c></rc>
    <rc><c>C </c><c>   2</c></rc>
    <rc><c>C </c><c>   2</c></rc>
    <rc><c>C </c><c>   2</c></rc>
    <rc><c>C </c><c>   2</c></rc>
    <rc><c>C </c><c>   2</c></rc>
    <rc><c>C </c><c>   2</c></rc>
    <rc><c>C </c><c>   2</c></rc>
    <rc><c>C </c><c>   2</c></rc>
    <rc><c>C </c><c>   2</c></rc>
    <rc><c>C </c><c>   2</c></rc>
    <rc><c>C </c><c>   2</c></rc>
    <rc><c>C </c><c>   2</c></rc>
    <rc><c>C </c><c>   2</c></rc>
    <rc><c>C </c><c>   2</c></rc>
    <rc><c>C </c><c>   2</c></rc>
    <rc><c>C </c><c>   2</c></rc>
    <rc><c>C </c><c>   2</c></rc>
    <rc><c>C </c><c>   2</c></rc>
    <rc><c>N </c><c>   3</c></rc>
    <rc><c>N </c><c>   3</c></rc>
    <rc><c>N </c><c>   3</c></rc>
    <rc><c>N </c><c>   3</c></rc>
    <rc><c>N </c><c>   3</c></rc>
    <rc><c>N </c><c>   3</c></rc>
    <rc><c>N </c><c>   3</c></rc>
    <rc><c>N </c><c>   3</c></rc>
    <rc><c>N </c><c>   3</c></rc>
    <rc><c>N </c><c>   3</c></rc>
    <rc><c>N </c><c>   3</c></rc>
    <rc><c>N </c><c>   3</c></rc>
    <rc><c>N </c><c>   3</c></rc>
    <rc><c>N </c><c>   3</c></rc>
    <rc><c>N </c><c>   3</c></rc>
    <rc><c>N </c><c>   3</c></rc>
    <rc><c>N </c><c>   3</c></rc>
    <rc><c>N </c><c>   3</c></rc>
    <rc><c>N </c><c>   3</c></rc>
    <rc><c>N </c><c>   3</c></rc>
    <rc><c>N </c><c>   3</c></rc>
    <rc><c>N </c><c>   3</c></rc>
    <rc><c>N </c><c>   3</c></rc>
    <rc><c>N </c><c>   3</c></rc>
    <rc><c>N </c><c>   3</c></rc>
    <rc><c>N </c><c>   3</c></rc>
    <rc><c>N </c><c>   3</c></rc>
    <rc><c>N </c><c>   3</c></rc>
    <rc><c>N </c><c>   3</c></rc>
    <rc><c>N </c><c>   3</c></rc>
    <rc><c>N </c><c>   3</c></rc>
    <rc><c>N </c><c>   3</c></rc>
    <rc><c>N </c><c>   3</c></rc>
    <rc><c>N </c><c>   3</c></rc>
    <rc><c>N </c><c>   3</c></rc>
    <rc><c>N </c><c>   3</c></rc>
    <rc><c>N </c><c>   3</c></rc>
    <rc><c>N </c><c>   3</c></rc>
    <rc><c>N </c><c>   3</c></rc>
    <rc><c>N </c><c>   3</c></rc>
    <rc><c>N </c><c>   3</c></rc>
    <rc><c>N </c><c>   3</c></rc>
    <rc><c>N </c><c>   3</c></rc>
    <rc><c>N </c><c>   3</c></rc>
    <rc><c>N </c><c>   3</c></rc>
    <rc><c>N </c><c>   3</c></rc>
    <rc><c>N </c><c>   3</c></rc>
    <rc><c>I </c><c>   4</c></rc>
    <rc><c>I </c><c>   4</c></rc>
    <rc><c>I </c><c>   4</c></rc>
    <rc><c>I </c><c>   4</c></rc>
    <rc><c>I </c><c>   4</c></rc>
    <rc><c>I </c><c>   4</c></rc>
    <rc><c>I </c><c>   4</c></rc>
    <rc><c>I </c><c>   4</c></rc>
    <rc><c>I </c><c>   4</c></rc>
    <rc><c>I </c><c>   4</c></rc>
    <rc><c>I </c><c>   4</c></rc>
    <rc><c>I </c><c>   4</c></rc>
    <rc><c>I </c><c>   4</c></rc>
    <rc><c>I </c><c>   4</c></rc>
    <rc><c>I </c><c>   4</c></rc>
    <rc><c>I </c><c>   4</c></rc>
    <rc><c>I </c><c>   4</c></rc>
    <rc><c>I </c><c>   4</c></rc>
    <rc><c>I </c><c>   4</c></rc>
    <rc><c>I </c><c>   4</c></rc>
    <rc><c>I </c><c>   4</c></rc>
    <rc><c>I </c><c>   4</c></rc>
    <rc><c>I </c><c>   4</c></rc>
    <rc><c>I </c><c>   4</c></rc>
    <rc><c>I </c><c>   4</c></rc>
    <rc><c>I </c><c>   4</c></rc>
    <rc><c>I </c><c>   4</c></rc>
    <rc><c>I </c><c>   4</c></rc>
    <rc><c>I </c><c>   4</c></rc>
    <rc><c>I </c><c>   4</c></rc>
    <rc><c>I </c><c>   4</c></rc>
    <rc><c>I </c><c>   4</c></rc>
    <rc><c>I </c><c>   4</c></rc>
    <rc><c>I </c><c>   4</c></rc>
    <rc><c>I </c><c>   4</c></rc>
    <rc><c>I </c><c>   4</c></rc>
    <rc><c>I </c><c>   4</c></rc>
    <rc><c>I </c><c>   4</c></rc>
    <rc><c>I </c><c>   4</c></rc>
    <rc><c>I </c><c>   4</c></rc>
    <rc><c>I </c><c>   4</c></rc>
    <rc><c>I </c><c>   4</c></rc>
    <rc><c>I </c><c>   4</c></rc>
    <rc><c>I </c><c>   4</c></rc>
    <rc><c>I </c><c>   4</c></rc>
    <rc><c>I </c><c>   4</c></rc>
    <rc><c>I </c><c>   4</c></rc>
    <rc><c>I </c><c>   4</c></rc>
    <rc><c>I </c><c>   4</c></rc>
    <rc><c>I </c><c>   4</c></rc>
    <rc><c>I </c><c>   4</c></rc>
    <rc><c>I </c><c>   4</c></rc>
    <rc><c>I </c><c>   4</c></rc>
    <rc><c>I </c><c>   4</c></rc>
    <rc><c>I </c><c>   4</c></rc>
    <rc><c>I </c><c>   4</c></rc>
    <rc><c>I </c><c>   4</c></rc>
    <rc><c>I </c><c>   4</c></rc>
    <rc><c>I </c><c>   4</c></rc>
    <rc><c>I </c><c>   4</c></rc>
    <rc><c>I </c><c>   4</c></rc>
    <rc><c>I </c><c>   4</c></rc>
    <rc><c>I </c><c>   4</c></rc>
    <rc><c>I </c><c>   4</c></rc>
    <rc><c>I </c><c>   4</c></rc>
    <rc><c>I </c><c>   4</c></rc>
    <rc><c>I </c><c>   4</c></rc>
    <rc><c>I </c><c>   4</c></rc>
    <rc><c>I </c><c>   4</c></rc>
    <rc><c>I </c><c>   4</c></rc>
    <rc><c>I </c><c>   4</c></rc>
    <rc><c>I </c><c>   4</c></rc>
    <rc><c>Pb</c><c>   5</c></rc>
    <rc><c>Pb</c><c>   5</c></rc>
    <rc><c>Pb</c><c>   5</c></rc>
    <rc><c>Pb</c><c>   5</c></rc>
    <rc><c>Pb</c><c>   5</c></rc>
    <rc><c>Pb</c><c>   5</c></rc>
    <rc><c>Pb</c><c>   5</c></rc>
    <rc><c>Pb</c><c>   5</c></rc>
    <rc><c>Pb</c><c>   5</c></rc>
    <rc><c>Pb</c><c>   5</c></rc>
    <rc><c>Pb</c><c>   5</c></rc>
    <rc><c>Pb</c><c>   5</c></rc>
    <rc><c>Pb</c><c>   5</c></rc>
    <rc><c>Pb</c><c>   5</c></rc>
    <rc><c>Pb</c><c>   5</c></rc>
    <rc><c>Pb</c><c>   5</c></rc>
    <rc><c>Pb</c><c>   5</c></rc>
    <rc><c>Pb</c><c>   5</c></rc>
    <rc><c>Pb</c><c>   5</c></rc>
    <rc><c>Pb</c><c>   5</c></rc>
    <rc><c>Pb</c><c>   5</c></rc>
    <rc><c>Pb</c><c>   5</c></rc>
    <rc><c>Pb</c><c>   5</c></rc>
    <rc><c>Pb</c><c>   5</c></rc>
   </set>
  </array>
  <array name="atomtypes" >
   <dimension dim="1">type</dimension>
   <field type="int">atomspertype</field>
   <field type="string">element</field>
   <field>mass</field>
   <field>valence</field>
   <field type="string">pseudopotential</field>
   <set>
    <rc><c> 143</c><c>H </c><c>      1.00000000</c><c>      1.00000000</c><c>  PAW_PBE H 15Jun2001                   </c></rc>
    <rc><c>  39</c><c>C </c><c>     12.01100000</c><c>      4.00000000</c><c>  PAW_PBE C 08Apr2002                   </c></rc>
    <rc><c>  47</c><c>N </c><c>     14.00100000</c><c>      5.00000000</c><c>  PAW_PBE N 08Apr2002                   </c></rc>
    <rc><c>  72</c><c>I </c><c>    126.90400000</c><c>      7.00000000</c><c>  PAW_PBE I 08Apr2002                   </c></rc>
    <rc><c>  24</c><c>Pb</c><c>    207.20000000</c><c>      4.00000000</c><c>  PAW_PBE Pb 08Apr2002                  </c></rc>
   </set>
  </array>
 </atominfo>
 <structure name="initialpos" >
  <crystal>
   <varray name="basis" >
    <v>      18.06080055       0.00000000       0.00000000 </v>
    <v>      -0.00491865      18.06279945       0.00000000 </v>
    <v>       0.00000000       0.00000000      62.48749924 </v>
   </varray>
   <i name="volume">  20385.21054034 </i>
   <varray name="rec_basis" >
    <v>       0.05536853       0.00001508      -0.00000000 </v>
    <v>       0.00000000       0.05536240       0.00000000 </v>
    <v>       0.00000000      -0.00000000       0.01600320 </v>
   </varray>
  </crystal>
  <varray name="positions" >
   <v>       0.43722152       0.30596166       0.57366113 </v>
   <v>       0.43256467       0.83528035       0.57397906 </v>
   <v>       0.98347224       0.31435129       0.58259278 </v>
   <v>       0.96569769       0.80594447       0.58155113 </v>
   <v>       0.31533384       0.96969777       0.57646338 </v>
   <v>       0.32099976       0.56163250       0.57661264 </v>
   <v>       0.79484424       0.06963766       0.58139113 </v>
   <v>       0.04004235       0.13667650       0.56141893 </v>
   <v>       0.05708857       0.64105587       0.56052801 </v>
   <v>       0.58162464       0.18601078       0.55290881 </v>
   <v>       0.53383167       0.66528838       0.56378952 </v>
   <v>       0.35126480       0.03055736       0.55768363 </v>
   <v>       0.28337301       0.62085500       0.55745390 </v>
   <v>       0.86501941       0.04499112       0.56389532 </v>
   <v>       0.01450800       0.17841678       0.58530231 </v>
   <v>       0.01546356       0.67681565       0.58343078 </v>
   <v>       0.56364139       0.25757916       0.57101851 </v>
   <v>       0.46639625       0.70248494       0.58089542 </v>
   <v>       0.26905294       0.43450482       0.57857141 </v>
   <v>       0.17886567       0.94385509       0.57496235 </v>
   <v>       0.67832785       0.00070250       0.57993356 </v>
   <v>       0.37011267       0.26221969       0.55807439 </v>
   <v>       0.48476045       0.88134197       0.55451997 </v>
   <v>       0.00982869       0.35888940       0.55893888 </v>
   <v>       0.98329988       0.85486962       0.55851888 </v>
   <v>       0.19234157       0.41571871       0.56202550 </v>
   <v>       0.12816227       0.99339660       0.55614810 </v>
   <v>       0.67683147       0.92397970       0.56246632 </v>
   <v>       0.45612085       0.18288093       0.54196204 </v>
   <v>       0.55309102       0.77580480       0.54584276 </v>
   <v>       0.04090098       0.24698282       0.54198224 </v>
   <v>       0.04107135       0.75233701       0.54182193 </v>
   <v>       0.19765491       0.53179224       0.54591601 </v>
   <v>       0.23339013       0.05493359       0.54298012 </v>
   <v>       0.79384117       0.94551818       0.54991095 </v>
   <v>       0.46760942       0.31862014       0.67359951 </v>
   <v>       0.43271448       0.81941327       0.67113155 </v>
   <v>       0.97165483       0.27615535       0.68223661 </v>
   <v>       0.92288709       0.77183652       0.67339000 </v>
   <v>       0.29732961       0.05513409       0.67482174 </v>
   <v>       0.30835515       0.54355552       0.67467291 </v>
   <v>       0.78820916       0.06307403       0.67541359 </v>
   <v>       0.79827595       0.58949094       0.66853771 </v>
   <v>       0.08571498       0.16836071       0.64477093 </v>
   <v>       0.10097859       0.69972970       0.65591751 </v>
   <v>       0.57433178       0.16371823       0.65188124 </v>
   <v>       0.57383670       0.67791606       0.65769911 </v>
   <v>       0.17928582       0.41186176       0.64987431 </v>
   <v>       0.17584820       0.91732873       0.64929570 </v>
   <v>       0.70138325       0.41231210       0.66047561 </v>
   <v>       0.67540969       0.92092222       0.64861630 </v>
   <v>       0.06962556       0.17956553       0.67202382 </v>
   <v>       0.03927639       0.69093587       0.67670230 </v>
   <v>       0.57741103       0.23062541       0.67185759 </v>
   <v>       0.52999624       0.71827156       0.68028493 </v>
   <v>       0.21206235       0.43439796       0.67478542 </v>
   <v>       0.19757617       0.94801317       0.67442469 </v>
   <v>       0.70248990       0.48752184       0.67812123 </v>
   <v>       0.68773208       0.95869580       0.67379077 </v>
   <v>       0.39984789       0.30027833       0.65476335 </v>
   <v>       0.42277245       0.83415275       0.64377323 </v>
   <v>       0.93188072       0.32086175       0.66000609 </v>
   <v>       0.91935691       0.82653632       0.65040621 </v>
   <v>       0.32683801       0.07999072       0.64949691 </v>
   <v>       0.32379316       0.58066628       0.64960973 </v>
   <v>       0.83037916       0.07964151       0.65107309 </v>
   <v>       0.84274842       0.57785459       0.64423573 </v>
   <v>       0.00045816       0.25660571       0.63537965 </v>
   <v>       0.03232181       0.78409647       0.63772460 </v>
   <v>       0.46081951       0.20263180       0.63957488 </v>
   <v>       0.51019784       0.74760824       0.63372380 </v>
   <v>       0.25426516       0.99664371       0.63164544 </v>
   <v>       0.24650505       0.50143832       0.63210470 </v>
   <v>       0.76334227       0.99223485       0.63250957 </v>
   <v>       0.78769126       0.46341753       0.63772203 </v>
   <v>       0.44874502       0.30128397       0.76888902 </v>
   <v>       0.44874501       0.80128391       0.76888902 </v>
   <v>       0.94874497       0.30128397       0.76888902 </v>
   <v>       0.94874501       0.80128391       0.76888902 </v>
   <v>       0.30127600       0.05129450       0.76887296 </v>
   <v>       0.30127601       0.55129450       0.76887296 </v>
   <v>       0.80127594       0.05129450       0.76887296 </v>
   <v>       0.80127598       0.55129450       0.76887296 </v>
   <v>       0.07877100       0.17118050       0.74344197 </v>
   <v>       0.07877101       0.67118045       0.74344197 </v>
   <v>       0.57877100       0.17118050       0.74344197 </v>
   <v>       0.57877099       0.67118045       0.74344197 </v>
   <v>       0.17119950       0.42117448       0.74342103 </v>
   <v>       0.17119950       0.92117451       0.74342103 </v>
   <v>       0.67119951       0.42117448       0.74342103 </v>
   <v>       0.67119950       0.92117451       0.74342103 </v>
   <v>       0.05125600       0.19871499       0.76888902 </v>
   <v>       0.05125600       0.69871493       0.76888902 </v>
   <v>       0.55125603       0.19871499       0.76888902 </v>
   <v>       0.55125602       0.69871493       0.76888902 </v>
   <v>       0.19872349       0.44870397       0.76887205 </v>
   <v>       0.19872349       0.94870397       0.76887205 </v>
   <v>       0.69872352       0.44870397       0.76887205 </v>
   <v>       0.69872351       0.94870397       0.76887205 </v>
   <v>       0.42123152       0.32881747       0.74344197 </v>
   <v>       0.42123151       0.82881744       0.74344197 </v>
   <v>       0.92123147       0.32881747       0.74344197 </v>
   <v>       0.92123151       0.82881744       0.74344197 </v>
   <v>       0.32880050       0.07882500       0.74342103 </v>
   <v>       0.32880049       0.57882496       0.74342103 </v>
   <v>       0.82880048       0.07882500       0.74342103 </v>
   <v>       0.82880052       0.57882496       0.74342103 </v>
   <v>       0.00000350       0.25000148       0.72582199 </v>
   <v>       0.00000350       0.75000145       0.72582199 </v>
   <v>       0.50000351       0.25000148       0.72582199 </v>
   <v>       0.50000350       0.75000145       0.72582199 </v>
   <v>       0.25000050       0.00000000       0.72580398 </v>
   <v>       0.25000052       0.50000000       0.72580398 </v>
   <v>       0.75000050       0.00000000       0.72580398 </v>
   <v>       0.75000049       0.50000000       0.72580398 </v>
   <v>       0.77479196       0.55504593       0.52197604 </v>
   <v>       0.72214195       0.47278743       0.52687870 </v>
   <v>       0.87221557       0.50021457       0.54332651 </v>
   <v>       0.85466849       0.47720338       0.57029259 </v>
   <v>       0.74227639       0.63688322       0.56047569 </v>
   <v>       0.80271491       0.59561458       0.57976409 </v>
   <v>       0.66555393       0.54493444       0.57119970 </v>
   <v>       0.67725147       0.45293428       0.56079582 </v>
   <v>       0.61445022       0.54914986       0.53861634 </v>
   <v>       0.66686787       0.63191601       0.53873031 </v>
   <v>       0.60774483       0.64714355       0.50682122 </v>
   <v>       0.68745609       0.60303968       0.49720553 </v>
   <v>       0.82277156       0.38606829       0.53049234 </v>
   <v>       0.76448063       0.37505719       0.55266095 </v>
   <v>       0.85892879       0.36204744       0.55564568 </v>
   <v>       0.86382922       0.69067251       0.55777788 </v>
   <v>       0.84853484       0.64181817       0.53408100 </v>
   <v>       0.90767953       0.60527202       0.55426412 </v>
   <v>       0.75789332       0.51925860       0.60095180 </v>
   <v>       0.77184144       0.42719065       0.59040959 </v>
   <v>       0.68323550       0.45336796       0.60030452 </v>
   <v>       0.53540336       0.53401518       0.50608691 </v>
   <v>       0.57506370       0.55346776       0.48055089 </v>
   <v>       0.69760032       0.48315822       0.47069897 </v>
   <v>       0.55968420       0.41912971       0.52336310 </v>
   <v>       0.76459062       0.36247307       0.47286252 </v>
   <v>       0.62496531       0.29962849       0.52601543 </v>
   <v>       0.72759425       0.27079435       0.50108252 </v>
   <v>       0.02196828       0.24661466       0.55856698 </v>
   <v>       0.02024557       0.74784762       0.55774846 </v>
   <v>       0.47308940       0.22272550       0.55391102 </v>
   <v>       0.51027515       0.77284126       0.55819813 </v>
   <v>       0.23739897       0.51819942       0.55860623 </v>
   <v>       0.23930319       0.01433558       0.55593914 </v>
   <v>       0.77081375       0.98233041       0.56222067 </v>
   <v>       0.00819489       0.24507094       0.65212512 </v>
   <v>       0.00999287       0.76375414       0.65270880 </v>
   <v>       0.48657503       0.23176154       0.65267015 </v>
   <v>       0.49832483       0.75624214       0.65031226 </v>
   <v>       0.25103451       0.49582470       0.64919051 </v>
   <v>       0.25173435       0.99911035       0.64892215 </v>
   <v>       0.77150836       0.49429753       0.65189699 </v>
   <v>       0.75390576       0.00064721       0.64940876 </v>
   <v>       0.49998898       0.24999498       0.74327702 </v>
   <v>       0.49998903       0.74999496       0.74327702 </v>
   <v>       0.99998898       0.24999498       0.74327702 </v>
   <v>       0.99998903       0.74999496       0.74327702 </v>
   <v>       0.25000050       0.00000100       0.74325596 </v>
   <v>       0.25000052       0.50000100       0.74325596 </v>
   <v>       0.75000050       0.00000100       0.74325596 </v>
   <v>       0.75000049       0.50000100       0.74325596 </v>
   <v>       0.62467953       0.46030616       0.49735186 </v>
   <v>       0.68248428       0.44219190       0.48328184 </v>
   <v>       0.60465441       0.40656636       0.51243660 </v>
   <v>       0.71853381       0.37476760       0.48424532 </v>
   <v>       0.64059213       0.33927759       0.51370663 </v>
   <v>       0.69824183       0.32338419       0.49964034 </v>
   <v>       0.73107151       0.53076258       0.53197078 </v>
   <v>       0.83146713       0.47483656       0.55407261 </v>
   <v>       0.79027190       0.60117006       0.56262095 </v>
   <v>       0.70453309       0.49802753       0.56962474 </v>
   <v>       0.66055276       0.57715888       0.53046865 </v>
   <v>       0.63806263       0.59463872       0.50731235 </v>
   <v>       0.81734155       0.39611424       0.54763450 </v>
   <v>       0.85622844       0.63491323       0.55136022 </v>
   <v>       0.73238472       0.47391450       0.59153036 </v>
   <v>       0.58859147       0.53535281       0.49706869 </v>
   <v>       0.02540359       0.18462215       0.56905754 </v>
   <v>       0.03265559       0.68589892       0.56788458 </v>
   <v>       0.54346651       0.22200922       0.55931493 </v>
   <v>       0.50374753       0.71007435       0.56858717 </v>
   <v>       0.42479610       0.26889825       0.56148700 </v>
   <v>       0.47152857       0.83227511       0.56186592 </v>
   <v>       0.99866693       0.30949367       0.56657969 </v>
   <v>       0.98359204       0.80427538       0.56604632 </v>
   <v>       0.23360951       0.45106661       0.56691960 </v>
   <v>       0.17938559       0.97947411       0.56253921 </v>
   <v>       0.70287665       0.97183200       0.56808475 </v>
   <v>       0.30421522       0.00550252       0.56435067 </v>
   <v>       0.28369111       0.56836495       0.56485046 </v>
   <v>       0.81349057       0.03425708       0.57040596 </v>
   <v>       0.05814662       0.19358910       0.65677876 </v>
   <v>       0.05253547       0.71415736       0.66269773 </v>
   <v>       0.55130432       0.20696892       0.65936265 </v>
   <v>       0.53585802       0.71554572       0.66385537 </v>
   <v>       0.21226113       0.44454372       0.65860420 </v>
   <v>       0.20601368       0.95283127       0.65834988 </v>
   <v>       0.72212894       0.46395628       0.66448801 </v>
   <v>       0.70295976       0.95786512       0.65801046 </v>
   <v>       0.45028479       0.28682743       0.66071082 </v>
   <v>       0.44859117       0.80566538       0.65557863 </v>
   <v>       0.96867982       0.28209823       0.66575340 </v>
   <v>       0.94591122       0.78785513       0.65944690 </v>
   <v>       0.29387231       0.04684494       0.65839524 </v>
   <v>       0.29661348       0.54263652       0.65864547 </v>
   <v>       0.79241463       0.05020191       0.65933457 </v>
   <v>       0.80400696       0.55780166       0.65535386 </v>
   <v>       0.04586250       0.20411950       0.75272599 </v>
   <v>       0.04586250       0.70411946       0.75272599 </v>
   <v>       0.54586251       0.20411950       0.75272599 </v>
   <v>       0.54586250       0.70411946       0.75272599 </v>
   <v>       0.20411900       0.45410100       0.75270499 </v>
   <v>       0.20411899       0.95410095       0.75270499 </v>
   <v>       0.70411898       0.45410100       0.75270499 </v>
   <v>       0.70411896       0.95410095       0.75270499 </v>
   <v>       0.45414002       0.29588849       0.75272697 </v>
   <v>       0.45414001       0.79588852       0.75272697 </v>
   <v>       0.95414002       0.29588849       0.75272697 </v>
[...]
   <v>       0.58162464       0.18601078       0.55290881 </v>
   <v>       0.53383167       0.66528838       0.56378952 </v>
   <v>       0.35126480       0.03055736       0.55768363 </v>
   <v>       0.28337301       0.62085500       0.55745390 </v>
   <v>       0.86501941       0.04499112       0.56389532 </v>
   <v>       0.01450800       0.17841678       0.58530231 </v>
   <v>       0.01546356       0.67681565       0.58343078 </v>
   <v>       0.56364139       0.25757916       0.57101851 </v>
   <v>       0.46639625       0.70248494       0.58089542 </v>
   <v>       0.26905294       0.43450482       0.57857141 </v>
   <v>       0.17886567       0.94385509       0.57496235 </v>
   <v>       0.67832785       0.00070250       0.57993356 </v>
   <v>       0.37011267       0.26221969       0.55807439 </v>
   <v>       0.48476045       0.88134197       0.55451997 </v>
   <v>       0.00982869       0.35888940       0.55893888 </v>
   <v>       0.98329988       0.85486962       0.55851888 </v>
   <v>       0.19234157       0.41571871       0.56202550 </v>
   <v>       0.12816227       0.99339660       0.55614810 </v>
   <v>       0.67683147       0.92397970       0.56246632 </v>
   <v>       0.45612085       0.18288093       0.54196204 </v>
   <v>       0.55309102       0.77580480       0.54584276 </v>
   <v>       0.04090098       0.24698282       0.54198224 </v>
   <v>       0.04107135       0.75233701       0.54182193 </v>
   <v>       0.19765491       0.53179224       0.54591601 </v>
   <v>       0.23339013       0.05493359       0.54298012 </v>
   <v>       0.79384117       0.94551818       0.54991095 </v>
   <v>       0.46760942       0.31862014       0.67359951 </v>
   <v>       0.43271448       0.81941327       0.67113155 </v>
   <v>       0.97165483       0.27615535       0.68223661 </v>
   <v>       0.92288709       0.77183652       0.67339000 </v>
   <v>       0.29732961       0.05513409       0.67482174 </v>
   <v>       0.30835515       0.54355552       0.67467291 </v>
   <v>       0.78820916       0.06307403       0.67541359 </v>
   <v>       0.79827595       0.58949094       0.66853771 </v>
   <v>       0.08571498       0.16836071       0.64477093 </v>
   <v>       0.10097859       0.69972970       0.65591751 </v>
   <v>       0.57433178       0.16371823       0.65188124 </v>
   <v>       0.57383670       0.67791606       0.65769911 </v>
   <v>       0.17928582       0.41186176       0.64987431 </v>
   <v>       0.17584820       0.91732873       0.64929570 </v>
   <v>       0.70138325       0.41231210       0.66047561 </v>
   <v>       0.67540969       0.92092222       0.64861630 </v>
   <v>       0.06962556       0.17956553       0.67202382 </v>
   <v>       0.03927639       0.69093587       0.67670230 </v>
   <v>       0.57741103       0.23062541       0.67185759 </v>
   <v>       0.52999624       0.71827156       0.68028493 </v>
   <v>       0.21206235       0.43439796       0.67478542 </v>
   <v>       0.19757617       0.94801317       0.67442469 </v>
   <v>       0.70248990       0.48752184       0.67812123 </v>
   <v>       0.68773208       0.95869580       0.67379077 </v>
   <v>       0.39984789       0.30027833       0.65476335 </v>
   <v>       0.42277245       0.83415275       0.64377323 </v>
   <v>       0.93188072       0.32086175       0.66000609 </v>
   <v>       0.91935691       0.82653632       0.65040621 </v>
   <v>       0.32683801       0.07999072       0.64949691 </v>
   <v>       0.32379316       0.58066628       0.64960973 </v>
   <v>       0.83037916       0.07964151       0.65107309 </v>
   <v>       0.84274842       0.57785459       0.64423573 </v>
   <v>       0.00045816       0.25660571       0.63537965 </v>
   <v>       0.03232181       0.78409647       0.63772460 </v>
   <v>       0.46081951       0.20263180       0.63957488 </v>
   <v>       0.51019784       0.74760824       0.63372380 </v>
   <v>       0.25426516       0.99664371       0.63164544 </v>
   <v>       0.24650505       0.50143832       0.63210470 </v>
   <v>       0.76334227       0.99223485       0.63250957 </v>
   <v>       0.78769126       0.46341753       0.63772203 </v>
   <v>       0.44874502       0.30128397       0.76888902 </v>
   <v>       0.44874501       0.80128391       0.76888902 </v>
   <v>       0.94874497       0.30128397       0.76888902 </v>
   <v>       0.94874501       0.80128391       0.76888902 </v>
   <v>       0.30127600       0.05129450       0.76887296 </v>
   <v>       0.30127601       0.55129450       0.76887296 </v>
   <v>       0.80127594       0.05129450       0.76887296 </v>
   <v>       0.80127598       0.55129450       0.76887296 </v>
   <v>       0.07877100       0.17118050       0.74344197 </v>
   <v>       0.07877101       0.67118045       0.74344197 </v>
   <v>       0.57877100       0.17118050       0.74344197 </v>
   <v>       0.57877099       0.67118045       0.74344197 </v>
   <v>       0.17119950       0.42117448       0.74342103 </v>
   <v>       0.17119950       0.92117451       0.74342103 </v>
   <v>       0.67119951       0.42117448       0.74342103 </v>
   <v>       0.67119950       0.92117451       0.74342103 </v>
   <v>       0.05125600       0.19871499       0.76888902 </v>
   <v>       0.05125600       0.69871493       0.76888902 </v>
   <v>       0.55125603       0.19871499       0.76888902 </v>
   <v>       0.55125602       0.69871493       0.76888902 </v>
   <v>       0.19872349       0.44870397       0.76887205 </v>
   <v>       0.19872349       0.94870397       0.76887205 </v>
   <v>       0.69872352       0.44870397       0.76887205 </v>
   <v>       0.69872351       0.94870397       0.76887205 </v>
   <v>       0.42123152       0.32881747       0.74344197 </v>
   <v>       0.42123151       0.82881744       0.74344197 </v>
   <v>       0.92123147       0.32881747       0.74344197 </v>
   <v>       0.92123151       0.82881744       0.74344197 </v>
   <v>       0.32880050       0.07882500       0.74342103 </v>
   <v>       0.32880049       0.57882496       0.74342103 </v>
   <v>       0.82880048       0.07882500       0.74342103 </v>
   <v>       0.82880052       0.57882496       0.74342103 </v>
   <v>       0.00000350       0.25000148       0.72582199 </v>
   <v>       0.00000350       0.75000145       0.72582199 </v>
   <v>       0.50000351       0.25000148       0.72582199 </v>
   <v>       0.50000350       0.75000145       0.72582199 </v>
   <v>       0.25000050       0.00000000       0.72580398 </v>
   <v>       0.25000052       0.50000000       0.72580398 </v>
   <v>       0.75000050       0.00000000       0.72580398 </v>
   <v>       0.75000049       0.50000000       0.72580398 </v>
   <v>       0.77479196       0.55504593       0.52197604 </v>
   <v>       0.72214195       0.47278743       0.52687870 </v>
   <v>       0.87221557       0.50021457       0.54332651 </v>
   <v>       0.85466849       0.47720338       0.57029259 </v>
   <v>       0.74227639       0.63688322       0.56047569 </v>
   <v>       0.80271491       0.59561458       0.57976409 </v>
   <v>       0.66555393       0.54493444       0.57119970 </v>
   <v>       0.67725147       0.45293428       0.56079582 </v>
   <v>       0.61445022       0.54914986       0.53861634 </v>
   <v>       0.66686787       0.63191601       0.53873031 </v>
   <v>       0.60774483       0.64714355       0.50682122 </v>
   <v>       0.68745609       0.60303968       0.49720553 </v>
   <v>       0.82277156       0.38606829       0.53049234 </v>
   <v>       0.76448063       0.37505719       0.55266095 </v>
   <v>       0.85892879       0.36204744       0.55564568 </v>
   <v>       0.86382922       0.69067251       0.55777788 </v>
   <v>       0.84853484       0.64181817       0.53408100 </v>
   <v>       0.90767953       0.60527202       0.55426412 </v>
   <v>       0.75789332       0.51925860       0.60095180 </v>
   <v>       0.77184144       0.42719065       0.59040959 </v>
   <v>       0.68323550       0.45336796       0.60030452 </v>
   <v>       0.53540336       0.53401518       0.50608691 </v>
   <v>       0.57506370       0.55346776       0.48055089 </v>
   <v>       0.69760032       0.48315822       0.47069897 </v>
   <v>       0.55968420       0.41912971       0.52336310 </v>
   <v>       0.76459062       0.36247307       0.47286252 </v>
   <v>       0.62496531       0.29962849       0.52601543 </v>
   <v>       0.72759425       0.27079435       0.50108252 </v>
   <v>       0.02196828       0.24661466       0.55856698 </v>
   <v>       0.02024557       0.74784762       0.55774846 </v>
   <v>       0.47308940       0.22272550       0.55391102 </v>
   <v>       0.51027515       0.77284126       0.55819813 </v>
   <v>       0.23739897       0.51819942       0.55860623 </v>
   <v>       0.23930319       0.01433558       0.55593914 </v>
   <v>       0.77081375       0.98233041       0.56222067 </v>
   <v>       0.00819489       0.24507094       0.65212512 </v>
   <v>       0.00999287       0.76375414       0.65270880 </v>
   <v>       0.48657503       0.23176154       0.65267015 </v>
   <v>       0.49832483       0.75624214       0.65031226 </v>
   <v>       0.25103451       0.49582470       0.64919051 </v>
   <v>       0.25173435       0.99911035       0.64892215 </v>
   <v>       0.77150836       0.49429753       0.65189699 </v>
   <v>       0.75390576       0.00064721       0.64940876 </v>
   <v>       0.49998898       0.24999498       0.74327702 </v>
   <v>       0.49998903       0.74999496       0.74327702 </v>
   <v>       0.99998898       0.24999498       0.74327702 </v>
   <v>       0.99998903       0.74999496       0.74327702 </v>
   <v>       0.25000050       0.00000100       0.74325596 </v>
   <v>       0.25000052       0.50000100       0.74325596 </v>
   <v>       0.75000050       0.00000100       0.74325596 </v>
   <v>       0.75000049       0.50000100       0.74325596 </v>
   <v>       0.62467953       0.46030616       0.49735186 </v>
   <v>       0.68248428       0.44219190       0.48328184 </v>
   <v>       0.60465441       0.40656636       0.51243660 </v>
   <v>       0.71853381       0.37476760       0.48424532 </v>
   <v>       0.64059213       0.33927759       0.51370663 </v>
   <v>       0.69824183       0.32338419       0.49964034 </v>
   <v>       0.73107151       0.53076258       0.53197078 </v>
   <v>       0.83146713       0.47483656       0.55407261 </v>
   <v>       0.79027190       0.60117006       0.56262095 </v>
   <v>       0.70453309       0.49802753       0.56962474 </v>
   <v>       0.66055276       0.57715888       0.53046865 </v>
   <v>       0.63806263       0.59463872       0.50731235 </v>
   <v>       0.81734155       0.39611424       0.54763450 </v>
   <v>       0.85622844       0.63491323       0.55136022 </v>
   <v>       0.73238472       0.47391450       0.59153036 </v>
   <v>       0.58859147       0.53535281       0.49706869 </v>
   <v>       0.02540359       0.18462215       0.56905754 </v>
   <v>       0.03265559       0.68589892       0.56788458 </v>
   <v>       0.54346651       0.22200922       0.55931493 </v>
   <v>       0.50374753       0.71007435       0.56858717 </v>
   <v>       0.42479610       0.26889825       0.56148700 </v>
   <v>       0.47152857       0.83227511       0.56186592 </v>
   <v>       0.99866693       0.30949367       0.56657969 </v>
   <v>       0.98359204       0.80427538       0.56604632 </v>
   <v>       0.23360951       0.45106661       0.56691960 </v>
   <v>       0.17938559       0.97947411       0.56253921 </v>
   <v>       0.70287665       0.97183200       0.56808475 </v>
   <v>       0.30421522       0.00550252       0.56435067 </v>
   <v>       0.28369111       0.56836495       0.56485046 </v>
   <v>       0.81349057       0.03425708       0.57040596 </v>
   <v>       0.05814662       0.19358910       0.65677876 </v>
   <v>       0.05253547       0.71415736       0.66269773 </v>
   <v>       0.55130432       0.20696892       0.65936265 </v>
   <v>       0.53585802       0.71554572       0.66385537 </v>
   <v>       0.21226113       0.44454372       0.65860420 </v>
   <v>       0.20601368       0.95283127       0.65834988 </v>
   <v>       0.72212894       0.46395628       0.66448801 </v>
   <v>       0.70295976       0.95786512       0.65801046 </v>
   <v>       0.45028479       0.28682743       0.66071082 </v>
   <v>       0.44859117       0.80566538       0.65557863 </v>
   <v>       0.96867982       0.28209823       0.66575340 </v>
   <v>       0.94591122       0.78785513       0.65944690 </v>
   <v>       0.29387231       0.04684494       0.65839524 </v>
   <v>       0.29661348       0.54263652       0.65864547 </v>
   <v>       0.79241463       0.05020191       0.65933457 </v>
   <v>       0.80400696       0.55780166       0.65535386 </v>
   <v>       0.04586250       0.20411950       0.75272599 </v>
   <v>       0.04586250       0.70411946       0.75272599 </v>
   <v>       0.54586251       0.20411950       0.75272599 </v>
   <v>       0.54586250       0.70411946       0.75272599 </v>
   <v>       0.20411900       0.45410100       0.75270499 </v>
   <v>       0.20411899       0.95410095       0.75270499 </v>
   <v>       0.70411898       0.45410100       0.75270499 </v>
   <v>       0.70411896       0.95410095       0.75270499 </v>
   <v>       0.45414002       0.29588849       0.75272697 </v>
   <v>       0.45414001       0.79588852       0.75272697 </v>
   <v>       0.95414002       0.29588849       0.75272697 </v>
   <v>       0.95414006       0.79588852       0.75272697 </v>
   <v>       0.29588249       0.04590050       0.75270499 </v>
   <v>       0.29588248       0.54590053       0.75270499 </v>
   <v>       0.79588244       0.04590050       0.75270499 </v>
   <v>       0.79588248       0.54590053       0.75270499 </v>
   <v>       0.76510147       0.52640825       0.55438774 </v>
   <v>       0.50337905       0.02324422       0.55249637 </v>
   <v>       0.47119090       0.50870412       0.55674032 </v>
   <v>       0.98765779       0.99674470       0.55000680 </v>
   <v>       0.03746213       0.49398729       0.55307131 </v>
   <v>       0.22967708       0.23382915       0.55278647 </v>
   <v>       0.25909411       0.76051675       0.55302785 </v>
   <v>       0.74275144       0.20793289       0.55524539 </v>
   <v>       0.71353320       0.78871890       0.54783840 </v>
   <v>       0.00159076       0.99164527       0.65441977 </v>
   <v>       0.01277888       0.49714892       0.65571086 </v>
   <v>       0.49758899       0.00773828       0.65477031 </v>
   <v>       0.50438101       0.49326312       0.65556374 </v>
   <v>       0.25395892       0.24584390       0.65511992 </v>
   <v>       0.24591369       0.75295390       0.65445628 </v>
   <v>       0.74372068       0.26445443       0.65488880 </v>
   <v>       0.75202677       0.75360616       0.65371260 </v>
   <v>       0.13996577       0.10382837       0.61052733 </v>
   <v>       0.14686544       0.60573886       0.60972553 </v>
   <v>       0.64967882       0.10233703       0.61137216 </v>
   <v>       0.61727714       0.63670619       0.61453026 </v>
   <v>       0.35555821       0.39055654       0.60920950 </v>
   <v>       0.36246802       0.89103779       0.60815747 </v>
   <v>       0.89310001       0.36237086       0.61419157 </v>
   <v>       0.86613395       0.88051748       0.60945198 </v>
   <v>       0.11779544       0.35741756       0.61131801 </v>
   <v>       0.11871799       0.86762924       0.60779839 </v>
   <v>       0.57839730       0.32856251       0.60541717 </v>
   <v>       0.61501469       0.86633660       0.61181652 </v>
   <v>       0.38338324       0.13186220       0.60678170 </v>
   <v>       0.38873133       0.64020910       0.61175548 </v>
   <v>       0.88916999       0.13956443       0.61263651 </v>
   <v>       0.91258071       0.64658485       0.61505466 </v>
   <v>       0.00000000       0.00000000       0.75492797 </v>
   <v>       0.00000000       0.50000000       0.75492797 </v>
   <v>       0.50000000       0.00000000       0.75492797 </v>
   <v>       0.49999999       0.50000000       0.75492797 </v>
   <v>       0.25000050       0.25000000       0.75493902 </v>
   <v>       0.25000051       0.74999997       0.75493902 </v>
   <v>       0.75000047       0.25000000       0.75493902 </v>
   <v>       0.75000046       0.74999997       0.75493902 </v>
   <v>       0.13579050       0.11421000       0.70478299 </v>
   <v>       0.13579050       0.61420998       0.70478299 </v>
   <v>       0.63579045       0.11421000       0.70478299 </v>
   <v>       0.63579049       0.61420998       0.70478299 </v>
   <v>       0.36420952       0.38578999       0.70478299 </v>
   <v>       0.36420950       0.88578996       0.70478299 </v>
   <v>       0.86420954       0.38578999       0.70478299 </v>
   <v>       0.86420953       0.88578996       0.70478299 </v>
   <v>       0.11421799       0.36421899       0.70478098 </v>
   <v>       0.11421799       0.86421899       0.70478098 </v>
   <v>       0.61421800       0.36421899       0.70478098 </v>
   <v>       0.61421799       0.86421899       0.70478098 </v>
   <v>       0.38578201       0.13578149       0.70478202 </v>
   <v>       0.38578200       0.63578149       0.70478202 </v>
   <v>       0.88578199       0.13578149       0.70478202 </v>
   <v>       0.88578203       0.63578149       0.70478202 </v>
   <v>       0.13466700       0.11533200       0.80125603 </v>
   <v>       0.13466699       0.61533199       0.80125603 </v>
   <v>       0.63466699       0.11533200       0.80125603 </v>
   <v>       0.63466698       0.61533199       0.80125603 </v>
   <v>       0.36533300       0.38466799       0.80125603 </v>
   <v>       0.36533299       0.88466796       0.80125603 </v>
   <v>       0.86533295       0.38466799       0.80125603 </v>
   <v>       0.86533294       0.88466796       0.80125603 </v>
   <v>       0.11532850       0.36533700       0.80126500 </v>
   <v>       0.11532850       0.86533698       0.80126500 </v>
   <v>       0.61532850       0.36533700       0.80126500 </v>
   <v>       0.61532849       0.86533698       0.80126500 </v>
   <v>       0.38467151       0.13466300       0.80126500 </v>
   <v>       0.38467150       0.63466297       0.80126500 </v>
   <v>       0.88467149       0.13466300       0.80126500 </v>
   <v>       0.88467153       0.63466297       0.80126500 </v>
   <v>       0.99326151       0.99994923       0.60560440 </v>
   <v>       0.00685646       0.49867377       0.60679574 </v>
   <v>       0.50251936       0.00890953       0.60385253 </v>
   <v>       0.49666440       0.49422773       0.60557309 </v>
   <v>       0.24540655       0.24278005       0.60340646 </v>
   <v>       0.24816111       0.74587843       0.60268695 </v>
   <v>       0.74234507       0.24789437       0.60360144 </v>
   <v>       0.73709332       0.75426867       0.60273249 </v>
   <v>       0.00000050       0.00000050       0.70482896 </v>
   <v>       0.00000050       0.50000048       0.70482896 </v>
   <v>       0.50000048       0.00000050       0.70482896 </v>
   <v>       0.50000046       0.50000048       0.70482896 </v>
   <v>       0.24999999       0.24999947       0.70482499 </v>
   <v>       0.25000001       0.74999950       0.70482499 </v>
   <v>       0.74999999       0.24999947       0.70482499 </v>
   <v>       0.74999998       0.74999950       0.70482499 </v>
   <v>       0.00000000       0.00000000       0.80731797 </v>
   <v>       0.00000000       0.50000000       0.80731797 </v>
   <v>       0.50000000       0.00000000       0.80731797 </v>
   <v>       0.49999999       0.50000000       0.80731797 </v>
   <v>       0.24999999       0.25000000       0.80731797 </v>
   <v>       0.25000001       0.74999997       0.80731797 </v>
   <v>       0.74999999       0.25000000       0.80731797 </v>
   <v>       0.74999998       0.74999997       0.80731797 </v>
  </varray>
 </structure>
</modeling>
