<?xml version="1.0" encoding="ISO-8859-1"?>
<modeling>
 <generator>
  <i name="program" type="string">vasp </i>
  <i name="version" type="string">6.2.1  </i>
  <i name="subversion" type="string">16May21 (build Nov 15 2021 14:57:28) complex                          parallel </i>
  <i name="platform" type="string">LinuxPGI </i>
  <i name="date" type="string">2023 07 30 </i>
  <i name="time" type="string">10:04:10 </i>
 </generator>
 <incar>
  <i type="string" name="SYSTEM">PSC</i>
  <i type="int" name="ISTART">     1</i>
  <i type="string" name="PREC">Normal</i>
  <i name="BMIX">      0.01000000</i>
  <i name="AMIN">      0.01000000</i>
  <i type="int" name="ICHARG">     1</i>
  <i type="int" name="NELM">   600</i>
  <i type="int" name="ISYM">     0</i>
  <i name="ENCUT">    500.00000000</i>
  <i type="string" name="LREAL">Auto</i>
  <i type="int" name="ISMEAR">     0</i>
  <i name="SIGMA">      0.05000000</i>
  <i type="logical" name="LWAVE"> F  </i>
  <i type="logical" name="LVTOT"> T  </i>
  <i type="logical" name="GGA_COMPAT"> F  </i>
  <i type="logical" name="LDIPOL"> T  </i>
  <i type="int" name="IDIPOL">     3</i>
  <i type="int" name="IVDW">    12</i>
 </incar>
 <primitive_cell>
  <structure name="primitive_cell" >
   <crystal>
    <varray name="basis" >
     <v>      18.06080055       0.00000000       0.00000000 </v>
     <v>      -0.00491865      18.06279945       0.00000000 </v>
     <v>       0.00000000       0.00000000      62.48749924 </v>
    </varray>
    <i name="volume">  20385.21054034 </i>
    <varray name="rec_basis" >
     <v>       0.05536853       0.00001508      -0.00000000 </v>
     <v>       0.00000000       0.05536240       0.00000000 </v>
     <v>       0.00000000      -0.00000000       0.01600320 </v>
    </varray>
   </crystal>
   <varray name="positions" >
    <v>       0.43227881       0.27064306       0.58378211 </v>
    <v>       0.42416757       0.76636795       0.58078590 </v>
    <v>       0.93885995       0.29475057       0.58344977 </v>
    <v>       0.94995006       0.80581512       0.58155162 </v>
    <v>       0.30481568       0.05110882       0.58214708 </v>
    <v>       0.30459741       0.56786802       0.57737964 </v>
    <v>       0.77700498       0.06670203       0.58232192 </v>
    <v>       0.09391614       0.18175335       0.56176208 </v>
    <v>       0.08760043       0.67894192       0.55974941 </v>
    <v>       0.59717885       0.18591953       0.56091120 </v>
    <v>       0.61230412       0.72731856       0.56064216 </v>
    <v>       0.36300350       0.03608519       0.55969276 </v>
    <v>       0.29638873       0.60151937       0.55115840 </v>
    <v>       0.83566930       0.07488206       0.56001008 </v>
    <v>       0.06899085       0.22551282       0.58533204 </v>
    <v>       0.02957654       0.69106132       0.58177554 </v>
    <v>       0.54145925       0.18524015       0.58383461 </v>
    <v>       0.55525712       0.70731989       0.58181632 </v>
    <v>       0.24516384       0.44462825       0.58450320 </v>
    <v>       0.18091467       0.99358601       0.58124046 </v>
    <v>       0.68754755       0.96324389       0.58199360 </v>
    <v>       0.41615537       0.31879842       0.56010080 </v>
    <v>       0.40447091       0.81791999       0.55812433 </v>
    <v>       0.89671909       0.28221024       0.55875574 </v>
    <v>       0.95691902       0.86185486       0.55875836 </v>
    <v>       0.20065942       0.40119013       0.56288755 </v>
    <v>       0.15732964       0.94321631       0.55799918 </v>
    <v>       0.69028598       0.90249440       0.55946377 </v>
    <v>       0.51946493       0.26781189       0.54316522 </v>
    <v>       0.51979795       0.79687008       0.54280821 </v>
    <v>       0.98761685       0.21024779       0.54351514 </v>
    <v>       0.04771233       0.78835471       0.54309514 </v>
    <v>       0.23051545       0.49882182       0.53943004 </v>
    <v>       0.27311720       0.96671479       0.54226373 </v>
    <v>       0.78379983       0.96992598       0.54345312 </v>
    <v>       0.43868491       0.29079760       0.67477687 </v>
    <v>       0.43666262       0.81792797       0.67182389 </v>
    <v>       0.95619845       0.28736087       0.67869538 </v>
    <v>       0.94071361       0.79965774       0.67639066 </v>
    <v>       0.30098695       0.05149752       0.67529815 </v>
    <v>       0.29887626       0.55549112       0.67616857 </v>
    <v>       0.80596672       0.05118419       0.67556762 </v>
    <v>       0.80849956       0.55439584       0.67467034 </v>
    <v>       0.08432601       0.17145641       0.64683451 </v>
    <v>       0.08916432       0.68715782       0.65286209 </v>
    <v>       0.57885326       0.17403038       0.64776152 </v>
    <v>       0.56548150       0.66611952       0.65792481 </v>
    <v>       0.17906223       0.41538693       0.65089685 </v>
    <v>       0.17133049       0.92308518       0.64959379 </v>
    <v>       0.66490072       0.41859091       0.65599156 </v>
    <v>       0.66510106       0.93194785       0.65038015 </v>
    <v>       0.06428528       0.18846949       0.67332553 </v>
    <v>       0.04640907       0.69706832       0.67716913 </v>
    <v>       0.54072806       0.18611713       0.67295980 </v>
    <v>       0.53080386       0.70928318       0.68058559 </v>
    <v>       0.20319065       0.44587005       0.67639487 </v>
    <v>       0.19599855       0.95257902       0.67514676 </v>
    <v>       0.70512267       0.44850028       0.67995521 </v>
    <v>       0.69332265       0.95908838       0.67584868 </v>
    <v>       0.42225041       0.33237553       0.65044705 </v>
    <v>       0.42555625       0.83484102       0.64467240 </v>
    <v>       0.92145023       0.32096030       0.65457935 </v>
    <v>       0.92949706       0.84187167       0.65207219 </v>
    <v>       0.33243711       0.07580389       0.64981704 </v>
    <v>       0.32497629       0.58363821       0.65077646 </v>
    <v>       0.83771406       0.07331558       0.65011209 </v>
    <v>       0.81602964       0.58202593       0.64851570 </v>
    <v>       0.99513131       0.25459147       0.63314843 </v>
    <v>       0.02318792       0.77752062       0.63563611 </v>
    <v>       0.50753464       0.26676393       0.63163940 </v>
    <v>       0.50626189       0.74094321       0.63396268 </v>
    <v>       0.25502354       0.99640715       0.63195281 </v>
    <v>       0.25140414       0.49921875       0.63286187 </v>
    <v>       0.75360593       0.99903408       0.63232612 </v>
    <v>       0.73079802       0.50142374       0.63502905 </v>
    <v>       0.44874502       0.30128397       0.76888902 </v>
    <v>       0.44874501       0.80128391       0.76888902 </v>
    <v>       0.94874497       0.30128397       0.76888902 </v>
    <v>       0.94874501       0.80128391       0.76888902 </v>
    <v>       0.30127600       0.05129450       0.76887296 </v>
    <v>       0.30127601       0.55129450       0.76887296 </v>
    <v>       0.80127594       0.05129450       0.76887296 </v>
    <v>       0.80127598       0.55129450       0.76887296 </v>
    <v>       0.07877100       0.17118050       0.74344197 </v>
    <v>       0.07877101       0.67118045       0.74344197 </v>
    <v>       0.57877100       0.17118050       0.74344197 </v>
    <v>       0.57877099       0.67118045       0.74344197 </v>
    <v>       0.17119950       0.42117448       0.74342103 </v>
    <v>       0.17119950       0.92117451       0.74342103 </v>
    <v>       0.67119951       0.42117448       0.74342103 </v>
    <v>       0.67119950       0.92117451       0.74342103 </v>
    <v>       0.05125600       0.19871499       0.76888902 </v>
    <v>       0.05125600       0.69871493       0.76888902 </v>
    <v>       0.55125603       0.19871499       0.76888902 </v>
    <v>       0.55125602       0.69871493       0.76888902 </v>
    <v>       0.19872349       0.44870397       0.76887205 </v>
    <v>       0.19872349       0.94870397       0.76887205 </v>
    <v>       0.69872352       0.44870397       0.76887205 </v>
    <v>       0.69872351       0.94870397       0.76887205 </v>
    <v>       0.42123152       0.32881747       0.74344197 </v>
    <v>       0.42123151       0.82881744       0.74344197 </v>
    <v>       0.92123147       0.32881747       0.74344197 </v>
    <v>       0.92123151       0.82881744       0.74344197 </v>
    <v>       0.32880050       0.07882500       0.74342103 </v>
    <v>       0.32880049       0.57882496       0.74342103 </v>
    <v>       0.82880048       0.07882500       0.74342103 </v>
    <v>       0.82880052       0.57882496       0.74342103 </v>
    <v>       0.00000350       0.25000148       0.72582199 </v>
    <v>       0.00000350       0.75000145       0.72582199 </v>
    <v>       0.50000351       0.25000148       0.72582199 </v>
    <v>       0.50000350       0.75000145       0.72582199 </v>
    <v>       0.25000050       0.00000000       0.72580398 </v>
    <v>       0.25000052       0.50000000       0.72580398 </v>
    <v>       0.75000050       0.00000000       0.72580398 </v>
    <v>       0.75000049       0.50000000       0.72580398 </v>
    <v>       0.77776779       0.51211190       0.52150879 </v>
    <v>       0.86829991       0.51296976       0.53459002 </v>
    <v>       0.76355346       0.63025109       0.54047669 </v>
    <v>       0.76883373       0.63148809       0.56811430 </v>
    <v>       0.67941826       0.46201189       0.56102231 </v>
    <v>       0.67605247       0.55628383       0.56770889 </v>
    <v>       0.80798935       0.43100750       0.57347927 </v>
    <v>       0.87309386       0.50200431       0.57396197 </v>
    <v>       0.85839316       0.39075353       0.54411078 </v>
    <v>       0.76172889       0.38304952       0.54015070 </v>
    <v>       0.77301993       0.38984826       0.50266994 </v>
    <v>       0.86363695       0.42633332       0.50370933 </v>
    <v>       0.89286054       0.62818448       0.53449857 </v>
    <v>       0.91371107       0.61224095       0.56134445 </v>
    <v>       0.87217453       0.69735523       0.55276101 </v>
    <v>       0.59337478       0.53068639       0.53679969 </v>
    <v>       0.66563774       0.48467589       0.52258792 </v>
    <v>       0.66917210       0.58298553       0.52697125 </v>
    <v>       0.73277989       0.47966987       0.60052703 </v>
    <v>       0.75314384       0.57059723       0.59266242 </v>
    <v>       0.81689455       0.52342571       0.60779729 </v>
    <v>       0.83631786       0.27100266       0.52001587 </v>
    <v>       0.84344802       0.28724598       0.49236627 </v>
    <v>       0.93727032       0.18258467       0.50358232 </v>
    <v>       0.97419335       0.41775018       0.51431283 </v>
    <v>       0.07180758       0.16301557       0.50484774 </v>
    <v>       0.10426255       0.39726533       0.51661706 </v>
    <v>       0.15926918       0.26894054       0.51190933 </v>
    <v>       0.99415621       0.22987407       0.56039675 </v>
    <v>       0.02407773       0.77147628       0.55807555 </v>
    <v>       0.50485452       0.25197028       0.55946108 </v>
    <v>       0.50716207       0.77152422       0.55821028 </v>
    <v>       0.24833421       0.50227764       0.55616935 </v>
    <v>       0.25991154       0.98992677       0.55805962 </v>
    <v>       0.76246718       0.98962538       0.55893143 </v>
    <v>       0.00263234       0.24691152       0.65040542 </v>
    <v>       0.00948881       0.76520693       0.65175945 </v>
    <v>       0.49989075       0.25419549       0.64837175 </v>
    <v>       0.49615772       0.75123011       0.65059247 </v>
    <v>       0.25260492       0.50000486       0.65014963 </v>
    <v>       0.25156399       0.99969927       0.64901433 </v>
    <v>       0.74045350       0.50018928       0.65226596 </v>
    <v>       0.75215026       0.00257869       0.64958891 </v>
    <v>       0.49998898       0.24999498       0.74327702 </v>
    <v>       0.49998903       0.74999496       0.74327702 </v>
    <v>       0.99998898       0.24999498       0.74327702 </v>
    <v>       0.99998903       0.74999496       0.74327702 </v>
    <v>       0.25000050       0.00000100       0.74325596 </v>
    <v>       0.25000052       0.50000100       0.74325596 </v>
    <v>       0.75000050       0.00000100       0.74325596 </v>
    <v>       0.75000049       0.50000100       0.74325596 </v>
    <v>       0.94390131       0.30328664       0.50860502 </v>
    <v>       0.97484385       0.22989841       0.50561327 </v>
    <v>       0.99193074       0.36130049       0.51131113 </v>
    <v>       0.05068982       0.21871710       0.50673334 </v>
    <v>       0.06982648       0.34906486       0.51266064 </v>
    <v>       0.09877753       0.27819759       0.51057612 </v>
    <v>       0.81146451       0.49053073       0.53484953 </v>
    <v>       0.79550341       0.60913026       0.55392488 </v>
    <v>       0.69457852       0.51762055       0.55528569 </v>
    <v>       0.81339099       0.49088368       0.57454021 </v>
    <v>       0.81298450       0.40846124       0.53420426 </v>
    <v>       0.82611774       0.38303229       0.51092794 </v>
    <v>       0.87268308       0.63705196       0.55092483 </v>
    <v>       0.65388114       0.53007230       0.53404352 </v>
    <v>       0.77735323       0.51677077       0.59498210 </v>
    <v>       0.86016894       0.30797753       0.50808844 </v>
    <v>       0.05591728       0.21060528       0.56980629 </v>
    <v>       0.04801953       0.71035566       0.56717393 </v>
    <v>       0.54840703       0.20306581       0.56851905 </v>
    <v>       0.55860221       0.73055062       0.56706233 </v>
    <v>       0.44797862       0.28205137       0.56822889 </v>
    <v>       0.44262762       0.78579032       0.56573675 </v>
    <v>       0.94070245       0.27101713       0.56829427 </v>
    <v>       0.97314603       0.81436518       0.56659825 </v>
    <v>       0.22973419       0.44635716       0.56895077 </v>
    <v>       0.19503495       0.97408576       0.56660747 </v>
    <v>       0.70903952       0.95055510       0.56752068 </v>
    <v>       0.31192233       0.02861782       0.56747965 </v>
    <v>       0.28472134       0.56062396       0.56221407 </v>
    <v>       0.79431391       0.04705309       0.56802206 </v>
    <v>       0.05352763       0.19904094       0.65768532 </v>
    <v>       0.05065076       0.71279296       0.66146793 </v>
    <v>       0.54289582       0.20092806       0.65733008 </v>
    <v>       0.53222935       0.70621579       0.66371350 </v>
    <v>       0.20815895       0.44966542       0.65960654 </v>
    <v>       0.20230433       0.95499457       0.65842955 </v>
    <v>       0.70258318       0.45464862       0.66387815 </v>
    <v>       0.69936456       0.96109187       0.65907732 </v>
    <v>       0.45161770       0.29375945       0.65849926 </v>
    <v>       0.45090108       0.80321082       0.65597483 </v>
    <v>       0.95794552       0.28688875       0.66222541 </v>
    <v>       0.95684644       0.80364825       0.66113736 </v>
    <v>       0.29902077       0.04660783       0.65856049 </v>
    <v>       0.29363862       0.54831908       0.65946668 </v>
    <v>       0.80120388       0.04379702       0.65878857 </v>
    <v>       0.79041964       0.54783683       0.65924911 </v>
    <v>       0.04586250       0.20411950       0.75272599 </v>
    <v>       0.04586250       0.70411946       0.75272599 </v>
    <v>       0.54586251       0.20411950       0.75272599 </v>
    <v>       0.54586250       0.70411946       0.75272599 </v>
    <v>       0.20411900       0.45410100       0.75270499 </v>
    <v>       0.20411899       0.95410095       0.75270499 </v>
    <v>       0.70411898       0.45410100       0.75270499 </v>
    <v>       0.70411896       0.95410095       0.75270499 </v>
    <v>       0.45414002       0.29588849       0.75272697 </v>
    <v>       0.45414001       0.79588852       0.75272697 </v>
    <v>       0.95414002       0.29588849       0.75272697 </v>
    <v>       0.95414006       0.79588852       0.75272697 </v>
    <v>       0.29588249       0.04590050       0.75270499 </v>
    <v>       0.29588248       0.54590053       0.75270499 </v>
    <v>       0.79588244       0.04590050       0.75270499 </v>
    <v>       0.79588248       0.54590053       0.75270499 </v>
    <v>       0.78053998       0.52646654       0.55505835 </v>
    <v>       0.49760202       0.00227958       0.55215200 </v>
    <v>       0.46689464       0.47979601       0.55570630 </v>
    <v>       0.99059809       0.00737184       0.55108892 </v>
    <v>       0.02808404       0.49321887       0.55876288 </v>
    <v>       0.25512458       0.24640229       0.55462998 </v>
    <v>       0.24471837       0.75971047       0.55160099 </v>
    <v>       0.73776993       0.22782108       0.55533806 </v>
    <v>       0.72046724       0.78009561       0.54588848 </v>
    <v>       0.00585112       0.00050497       0.65446440 </v>
    <v>       0.00172260       0.50413638       0.65670746 </v>
    <v>       0.50149154       0.00191901       0.65430409 </v>
    <v>       0.49916427       0.49864643       0.65504606 </v>
    <v>       0.24956079       0.24734528       0.65520368 </v>
    <v>       0.25071117       0.74963551       0.65451305 </v>
    <v>       0.74229107       0.24795517       0.65529159 </v>
    <v>       0.75149907       0.75968798       0.65312453 </v>
    <v>       0.14705030       0.10160044       0.60836545 </v>
    <v>       0.14987681       0.60556880       0.60854396 </v>
    <v>       0.64040304       0.10547058       0.60877832 </v>
    <v>       0.61464926       0.63667588       0.61488141 </v>
    <v>       0.35888478       0.38840165       0.61153015 </v>
    <v>       0.35949700       0.89236808       0.60801651 </v>
    <v>       0.88521545       0.36745847       0.61494392 </v>
    <v>       0.85687832       0.89500966       0.60696637 </v>
    <v>       0.11287777       0.35537740       0.61010335 </v>
    <v>       0.10921430       0.86182450       0.60700990 </v>
    <v>       0.61560406       0.36658968       0.60706521 </v>
    <v>       0.61157303       0.86429533       0.60985721 </v>
    <v>       0.39490007       0.14129036       0.61002210 </v>
    <v>       0.38668170       0.64548866       0.60601965 </v>
    <v>       0.88976032       0.13447451       0.61080570 </v>
    <v>       0.91296123       0.66372261       0.61410549 </v>
    <v>       0.00000000       0.00000000       0.75492797 </v>
    <v>       0.00000000       0.50000000       0.75492797 </v>
    <v>       0.50000000       0.00000000       0.75492797 </v>
    <v>       0.49999999       0.50000000       0.75492797 </v>
    <v>       0.25000050       0.25000000       0.75493902 </v>
    <v>       0.25000051       0.74999997       0.75493902 </v>
    <v>       0.75000047       0.25000000       0.75493902 </v>
    <v>       0.75000046       0.74999997       0.75493902 </v>
    <v>       0.13579050       0.11421000       0.70478299 </v>
    <v>       0.13579050       0.61420998       0.70478299 </v>
    <v>       0.63579045       0.11421000       0.70478299 </v>
    <v>       0.63579049       0.61420998       0.70478299 </v>
    <v>       0.36420952       0.38578999       0.70478299 </v>
    <v>       0.36420950       0.88578996       0.70478299 </v>
    <v>       0.86420954       0.38578999       0.70478299 </v>
    <v>       0.86420953       0.88578996       0.70478299 </v>
    <v>       0.11421799       0.36421899       0.70478098 </v>
    <v>       0.11421799       0.86421899       0.70478098 </v>
    <v>       0.61421800       0.36421899       0.70478098 </v>
    <v>       0.61421799       0.86421899       0.70478098 </v>
    <v>       0.38578201       0.13578149       0.70478202 </v>
    <v>       0.38578200       0.63578149       0.70478202 </v>
    <v>       0.88578199       0.13578149       0.70478202 </v>
    <v>       0.88578203       0.63578149       0.70478202 </v>
    <v>       0.13466700       0.11533200       0.80125603 </v>
    <v>       0.13466699       0.61533199       0.80125603 </v>
    <v>       0.63466699       0.11533200       0.80125603 </v>
    <v>       0.63466698       0.61533199       0.80125603 </v>
    <v>       0.36533300       0.38466799       0.80125603 </v>
    <v>       0.36533299       0.88466796       0.80125603 </v>
    <v>       0.86533295       0.38466799       0.80125603 </v>
    <v>       0.86533294       0.88466796       0.80125603 </v>
    <v>       0.11532850       0.36533700       0.80126500 </v>
    <v>       0.11532850       0.86533698       0.80126500 </v>
    <v>       0.61532850       0.36533700       0.80126500 </v>
    <v>       0.61532849       0.86533698       0.80126500 </v>
    <v>       0.38467151       0.13466300       0.80126500 </v>
    <v>       0.38467150       0.63466297       0.80126500 </v>
    <v>       0.88467149       0.13466300       0.80126500 </v>
    <v>       0.88467153       0.63466297       0.80126500 </v>
    <v>       0.99911319       0.00400359       0.60242518 </v>
    <v>       0.00975951       0.50435507       0.60770059 </v>
    <v>       0.50202789       0.99988579       0.60245631 </v>
    <v>       0.49845796       0.49705088       0.60396138 </v>
    <v>       0.25516196       0.24813447       0.60408622 </v>
    <v>       0.24925050       0.75586305       0.60297332 </v>
    <v>       0.74882787       0.25002701       0.60560703 </v>
    <v>       0.74899063       0.75671927       0.60471562 </v>
    <v>       0.00000050       0.00000050       0.70482896 </v>
    <v>       0.00000050       0.50000048       0.70482896 </v>
    <v>       0.50000048       0.00000050       0.70482896 </v>
    <v>       0.50000046       0.50000048       0.70482896 </v>
    <v>       0.24999999       0.24999947       0.70482499 </v>
    <v>       0.25000001       0.74999950       0.70482499 </v>
    <v>       0.74999999       0.24999947       0.70482499 </v>
    <v>       0.74999998       0.74999950       0.70482499 </v>
    <v>       0.00000000       0.00000000       0.80731797 </v>
    <v>       0.00000000       0.50000000       0.80731797 </v>
    <v>       0.50000000       0.00000000       0.80731797 </v>
    <v>       0.49999999       0.50000000       0.80731797 </v>
    <v>       0.24999999       0.25000000       0.80731797 </v>
    <v>       0.25000001       0.74999997       0.80731797 </v>
    <v>       0.74999999       0.25000000       0.80731797 </v>
    <v>       0.74999998       0.74999997       0.80731797 </v>
   </varray>
  </structure>
  <varray name="primitive_index" >
   <v type="int" >        1 </v>
   <v type="int" >        2 </v>
   <v type="int" >        3 </v>
   <v type="int" >        4 </v>
   <v type="int" >        5 </v>
   <v type="int" >        6 </v>
   <v type="int" >        7 </v>
   <v type="int" >        8 </v>
   <v type="int" >        9 </v>
   <v type="int" >       10 </v>
   <v type="int" >       11 </v>
   <v type="int" >       12 </v>
   <v type="int" >       13 </v>
   <v type="int" >       14 </v>
   <v type="int" >       15 </v>
   <v type="int" >       16 </v>
   <v type="int" >       17 </v>
   <v type="int" >       18 </v>
   <v type="int" >       19 </v>
   <v type="int" >       20 </v>
   <v type="int" >       21 </v>
   <v type="int" >       22 </v>
   <v type="int" >       23 </v>
   <v type="int" >       24 </v>
   <v type="int" >       25 </v>
   <v type="int" >       26 </v>
   <v type="int" >       27 </v>
   <v type="int" >       28 </v>
   <v type="int" >       29 </v>
   <v type="int" >       30 </v>
   <v type="int" >       31 </v>
   <v type="int" >       32 </v>
   <v type="int" >       33 </v>
   <v type="int" >       34 </v>
   <v type="int" >       35 </v>
   <v type="int" >       36 </v>
   <v type="int" >       37 </v>
   <v type="int" >       38 </v>
   <v type="int" >       39 </v>
   <v type="int" >       40 </v>
   <v type="int" >       41 </v>
   <v type="int" >       42 </v>
   <v type="int" >       43 </v>
   <v type="int" >       44 </v>
   <v type="int" >       45 </v>
   <v type="int" >       46 </v>
   <v type="int" >       47 </v>
   <v type="int" >       48 </v>
   <v type="int" >       49 </v>
   <v type="int" >       50 </v>
   <v type="int" >       51 </v>
   <v type="int" >       52 </v>
   <v type="int" >       53 </v>
   <v type="int" >       54 </v>
   <v type="int" >       55 </v>
   <v type="int" >       56 </v>
   <v type="int" >       57 </v>
   <v type="int" >       58 </v>
   <v type="int" >       59 </v>
   <v type="int" >       60 </v>
   <v type="int" >       61 </v>
   <v type="int" >       62 </v>
   <v type="int" >       63 </v>
   <v type="int" >       64 </v>
   <v type="int" >       65 </v>
   <v type="int" >       66 </v>
   <v type="int" >       67 </v>
   <v type="int" >       68 </v>
   <v type="int" >       69 </v>
   <v type="int" >       70 </v>
   <v type="int" >       71 </v>
   <v type="int" >       72 </v>
   <v type="int" >       73 </v>
   <v type="int" >       74 </v>
   <v type="int" >       75 </v>
   <v type="int" >       76 </v>
   <v type="int" >       77 </v>
   <v type="int" >       78 </v>
   <v type="int" >       79 </v>
   <v type="int" >       80 </v>
   <v type="int" >       81 </v>
   <v type="int" >       82 </v>
   <v type="int" >       83 </v>
   <v type="int" >       84 </v>
   <v type="int" >       85 </v>
   <v type="int" >       86 </v>
   <v type="int" >       87 </v>
   <v type="int" >       88 </v>
   <v type="int" >       89 </v>
   <v type="int" >       90 </v>
   <v type="int" >       91 </v>
   <v type="int" >       92 </v>
   <v type="int" >       93 </v>
   <v type="int" >       94 </v>
   <v type="int" >       95 </v>
   <v type="int" >       96 </v>
   <v type="int" >       97 </v>
   <v type="int" >       98 </v>
   <v type="int" >       99 </v>
   <v type="int" >      100 </v>
   <v type="int" >      101 </v>
   <v type="int" >      102 </v>
   <v type="int" >      103 </v>
   <v type="int" >      104 </v>
   <v type="int" >      105 </v>
   <v type="int" >      106 </v>
   <v type="int" >      107 </v>
   <v type="int" >      108 </v>
   <v type="int" >      109 </v>
   <v type="int" >      110 </v>
   <v type="int" >      111 </v>
   <v type="int" >      112 </v>
   <v type="int" >      113 </v>
   <v type="int" >      114 </v>
   <v type="int" >      115 </v>
   <v type="int" >      116 </v>
   <v type="int" >      117 </v>
   <v type="int" >      118 </v>
   <v type="int" >      119 </v>
   <v type="int" >      120 </v>
   <v type="int" >      121 </v>
   <v type="int" >      122 </v>
   <v type="int" >      123 </v>
   <v type="int" >      124 </v>
   <v type="int" >      125 </v>
   <v type="int" >      126 </v>
   <v type="int" >      127 </v>
   <v type="int" >      128 </v>
   <v type="int" >      129 </v>
   <v type="int" >      130 </v>
   <v type="int" >      131 </v>
   <v type="int" >      132 </v>
   <v type="int" >      133 </v>
   <v type="int" >      134 </v>
   <v type="int" >      135 </v>
   <v type="int" >      136 </v>
   <v type="int" >      137 </v>
   <v type="int" >      138 </v>
   <v type="int" >      139 </v>
   <v type="int" >      140 </v>
   <v type="int" >      141 </v>
   <v type="int" >      142 </v>
   <v type="int" >      143 </v>
   <v type="int" >      144 </v>
   <v type="int" >      145 </v>
   <v type="int" >      146 </v>
   <v type="int" >      147 </v>
   <v type="int" >      148 </v>
   <v type="int" >      149 </v>
   <v type="int" >      150 </v>
   <v type="int" >      151 </v>
   <v type="int" >      152 </v>
   <v type="int" >      153 </v>
   <v type="int" >      154 </v>
   <v type="int" >      155 </v>
   <v type="int" >      156 </v>
   <v type="int" >      157 </v>
   <v type="int" >      158 </v>
   <v type="int" >      159 </v>
   <v type="int" >      160 </v>
   <v type="int" >      161 </v>
   <v type="int" >      162 </v>
   <v type="int" >      163 </v>
   <v type="int" >      164 </v>
   <v type="int" >      165 </v>
   <v type="int" >      166 </v>
   <v type="int" >      167 </v>
   <v type="int" >      168 </v>
   <v type="int" >      169 </v>
   <v type="int" >      170 </v>
   <v type="int" >      171 </v>
   <v type="int" >      172 </v>
   <v type="int" >      173 </v>
   <v type="int" >      174 </v>
   <v type="int" >      175 </v>
   <v type="int" >      176 </v>
   <v type="int" >      177 </v>
   <v type="int" >      178 </v>
   <v type="int" >      179 </v>
   <v type="int" >      180 </v>
   <v type="int" >      181 </v>
   <v type="int" >      182 </v>
   <v type="int" >      183 </v>
   <v type="int" >      184 </v>
   <v type="int" >      185 </v>
   <v type="int" >      186 </v>
   <v type="int" >      187 </v>
   <v type="int" >      188 </v>
   <v type="int" >      189 </v>
   <v type="int" >      190 </v>
   <v type="int" >      191 </v>
   <v type="int" >      192 </v>
   <v type="int" >      193 </v>
   <v type="int" >      194 </v>
   <v type="int" >      195 </v>
   <v type="int" >      196 </v>
   <v type="int" >      197 </v>
   <v type="int" >      198 </v>
   <v type="int" >      199 </v>
   <v type="int" >      200 </v>
   <v type="int" >      201 </v>
   <v type="int" >      202 </v>
   <v type="int" >      203 </v>
   <v type="int" >      204 </v>
   <v type="int" >      205 </v>
   <v type="int" >      206 </v>
   <v type="int" >      207 </v>
   <v type="int" >      208 </v>
   <v type="int" >      209 </v>
   <v type="int" >      210 </v>
   <v type="int" >      211 </v>
   <v type="int" >      212 </v>
   <v type="int" >      213 </v>
   <v type="int" >      214 </v>
   <v type="int" >      215 </v>
   <v type="int" >      216 </v>
   <v type="int" >      217 </v>
   <v type="int" >      218 </v>
   <v type="int" >      219 </v>
   <v type="int" >      220 </v>
   <v type="int" >      221 </v>
   <v type="int" >      222 </v>
   <v type="int" >      223 </v>
   <v type="int" >      224 </v>
   <v type="int" >      225 </v>
   <v type="int" >      226 </v>
   <v type="int" >      227 </v>
   <v type="int" >      228 </v>
   <v type="int" >      229 </v>
   <v type="int" >      230 </v>
   <v type="int" >      231 </v>
   <v type="int" >      232 </v>
   <v type="int" >      233 </v>
   <v type="int" >      234 </v>
   <v type="int" >      235 </v>
   <v type="int" >      236 </v>
   <v type="int" >      237 </v>
   <v type="int" >      238 </v>
   <v type="int" >      239 </v>
   <v type="int" >      240 </v>
   <v type="int" >      241 </v>
   <v type="int" >      242 </v>
   <v type="int" >      243 </v>
   <v type="int" >      244 </v>
   <v type="int" >      245 </v>
   <v type="int" >      246 </v>
   <v type="int" >      247 </v>
   <v type="int" >      248 </v>
   <v type="int" >      249 </v>
   <v type="int" >      250 </v>
   <v type="int" >      251 </v>
   <v type="int" >      252 </v>
   <v type="int" >      253 </v>
   <v type="int" >      254 </v>
   <v type="int" >      255 </v>
   <v type="int" >      256 </v>
   <v type="int" >      257 </v>
   <v type="int" >      258 </v>
   <v type="int" >      259 </v>
   <v type="int" >      260 </v>
   <v type="int" >      261 </v>
   <v type="int" >      262 </v>
   <v type="int" >      263 </v>
   <v type="int" >      264 </v>
   <v type="int" >      265 </v>
   <v type="int" >      266 </v>
   <v type="int" >      267 </v>
   <v type="int" >      268 </v>
   <v type="int" >      269 </v>
   <v type="int" >      270 </v>
   <v type="int" >      271 </v>
   <v type="int" >      272 </v>
   <v type="int" >      273 </v>
   <v type="int" >      274 </v>
   <v type="int" >      275 </v>
   <v type="int" >      276 </v>
   <v type="int" >      277 </v>
   <v type="int" >      278 </v>
   <v type="int" >      279 </v>
   <v type="int" >      280 </v>
   <v type="int" >      281 </v>
   <v type="int" >      282 </v>
   <v type="int" >      283 </v>
   <v type="int" >      284 </v>
   <v type="int" >      285 </v>
   <v type="int" >      286 </v>
   <v type="int" >      287 </v>
   <v type="int" >      288 </v>
   <v type="int" >      289 </v>
   <v type="int" >      290 </v>
   <v type="int" >      291 </v>
   <v type="int" >      292 </v>
   <v type="int" >      293 </v>
   <v type="int" >      294 </v>
   <v type="int" >      295 </v>
   <v type="int" >      296 </v>
   <v type="int" >      297 </v>
   <v type="int" >      298 </v>
   <v type="int" >      299 </v>
   <v type="int" >      300 </v>
   <v type="int" >      301 </v>
   <v type="int" >      302 </v>
   <v type="int" >      303 </v>
   <v type="int" >      304 </v>
   <v type="int" >      305 </v>
   <v type="int" >      306 </v>
   <v type="int" >      307 </v>
   <v type="int" >      308 </v>
   <v type="int" >      309 </v>
   <v type="int" >      310 </v>
   <v type="int" >      311 </v>
   <v type="int" >      312 </v>
   <v type="int" >      313 </v>
   <v type="int" >      314 </v>
   <v type="int" >      315 </v>
   <v type="int" >      316 </v>
   <v type="int" >      317 </v>
   <v type="int" >      318 </v>
   <v type="int" >      319 </v>
   <v type="int" >      320 </v>
   <v type="int" >      321 </v>
   <v type="int" >      322 </v>
   <v type="int" >      323 </v>
   <v type="int" >      324 </v>
   <v type="int" >      325 </v>
  </varray>
 </primitive_cell>
 <kpoints>
  <generation param="Gamma">
   <v type="int" name="divisions">       3        3        1 </v>
   <v name="usershift">      0.00000000       0.00000000       0.00000000 </v>
   <v name="genvec1">      0.33333333       0.00000000       0.00000000 </v>
   <v name="genvec2">      0.00000000       0.33333333       0.00000000 </v>
   <v name="genvec3">      0.00000000       0.00000000       1.00000000 </v>
   <v name="shift">      0.00000000       0.00000000       0.00000000 </v>
  </generation>
  <varray name="kpointlist" >
   <v>       0.00000000       0.00000000       0.00000000 </v>
   <v>       0.33333333       0.00000000       0.00000000 </v>
   <v>       0.00000000       0.33333333       0.00000000 </v>
   <v>       0.33333333       0.33333333       0.00000000 </v>
   <v>      -0.33333333       0.33333333       0.00000000 </v>
  </varray>
  <varray name="weights" >
   <v>       0.11111111 </v>
   <v>       0.22222222 </v>
   <v>       0.22222222 </v>
   <v>       0.22222222 </v>
   <v>       0.22222222 </v>
  </varray>
 </kpoints>
 <parameters>
  <separator name="general" >
   <i type="string" name="SYSTEM">PSC</i>
   <i type="logical" name="LCOMPAT"> F  </i>
  </separator>
  <separator name="electronic" >
   <i type="string" name="PREC">normal</i>
   <i name="ENMAX">    500.00000000</i>
   <i name="ENAUG">    644.87300000</i>
   <i name="EDIFF">      0.00010000</i>
   <i type="int" name="IALGO">    38</i>
   <i type="int" name="IWAVPR">    10</i>
   <i type="int" name="NBANDS">   732</i>
   <i type="int" name="NBANDSLOW">    -1</i>
   <i type="int" name="NBANDSHIGH">    -1</i>
   <i name="NELECT">   1134.00000000</i>
   <i type="int" name="TURBO">     0</i>
   <i type="int" name="IRESTART">     0</i>
   <i type="int" name="NREBOOT">     0</i>
   <i type="int" name="NMIN">     0</i>
   <i name="EREF">      0.00000000</i>
   <separator name="electronic smearing" >
    <i type="int" name="ISMEAR">     0</i>
    <i name="SIGMA">      0.05000000</i>
    <i name="KSPACING">      0.50000000</i>
    <i type="logical" name="KGAMMA"> T  </i>
    <i type="logical" name="KBLOWUP"> T  </i>
   </separator>
   <separator name="electronic projectors" >
    <i type="logical" name="LREAL"> T  </i>
    <v name="ROPT">     -0.00050000     -0.00050000     -0.00050000     -0.00050000     -0.00050000</v>
    <i type="int" name="LMAXPAW">  -100</i>
    <i type="int" name="LMAXMIX">     2</i>
    <i type="logical" name="NLSPLINE"> F  </i>
   </separator>
   <separator name="electronic startup" >
    <i type="int" name="ISTART">     0</i>
    <i type="int" name="ICHARG">     1</i>
    <i type="int" name="INIWAV">     1</i>
   </separator>
   <separator name="electronic spin" >
    <i type="int" name="ISPIN">     1</i>
    <i type="logical" name="LNONCOLLINEAR"> F  </i>
    <v name="MAGMOM">      1.00000000      1.00000000      1.00000000      1.00000000      1.00000000      1.00000000      1.00000000      1.00000000      1.00000000      1.00000000      1.00000000      1.00000000      1.00000000      1.00000000      1.00000000      1.00000000      1.00000000      1.00000000      1.00000000      1.00000000
      1.00000000      1.00000000      1.00000000      1.00000000      1.00000000      1.00000000      1.00000000      1.00000000      1.00000000      1.00000000      1.00000000      1.00000000      1.00000000      1.00000000      1.00000000      1.00000000      1.00000000      1.00000000      1.00000000      1.00000000
      1.00000000      1.00000000      1.00000000      1.00000000      1.00000000      1.00000000      1.00000000      1.00000000      1.00000000      1.00000000      1.00000000      1.00000000      1.00000000      1.00000000      1.00000000      1.00000000      1.00000000      1.00000000      1.00000000      1.00000000
      1.00000000      1.00000000      1.00000000      1.00000000      1.00000000      1.00000000      1.00000000      1.00000000      1.00000000      1.00000000      1.00000000      1.00000000      1.00000000      1.00000000      1.00000000      1.00000000      1.00000000      1.00000000      1.00000000      1.00000000
      1.00000000      1.00000000      1.00000000      1.00000000      1.00000000      1.00000000      1.00000000      1.00000000      1.00000000      1.00000000      1.00000000      1.00000000      1.00000000      1.00000000      1.00000000      1.00000000      1.00000000      1.00000000      1.00000000      1.00000000
      1.00000000      1.00000000      1.00000000      1.00000000      1.00000000      1.00000000      1.00000000      1.00000000      1.00000000      1.00000000      1.00000000      1.00000000      1.00000000      1.00000000      1.00000000      1.00000000      1.00000000      1.00000000      1.00000000      1.00000000
      1.00000000      1.00000000      1.00000000      1.00000000      1.00000000      1.00000000      1.00000000      1.00000000      1.00000000      1.00000000      1.00000000      1.00000000      1.00000000      1.00000000      1.00000000      1.00000000      1.00000000      1.00000000      1.00000000      1.00000000
      1.00000000      1.00000000      1.00000000      1.00000000      1.00000000      1.00000000      1.00000000      1.00000000      1.00000000      1.00000000      1.00000000      1.00000000      1.00000000      1.00000000      1.00000000      1.00000000      1.00000000      1.00000000      1.00000000      1.00000000
      1.00000000      1.00000000      1.00000000      1.00000000      1.00000000      1.00000000      1.00000000      1.00000000      1.00000000      1.00000000      1.00000000      1.00000000      1.00000000      1.00000000      1.00000000      1.00000000      1.00000000      1.00000000      1.00000000      1.00000000
      1.00000000      1.00000000      1.00000000      1.00000000      1.00000000      1.00000000      1.00000000      1.00000000      1.00000000      1.00000000      1.00000000      1.00000000      1.00000000      1.00000000      1.00000000      1.00000000      1.00000000      1.00000000      1.00000000      1.00000000
      1.00000000      1.00000000      1.00000000      1.00000000      1.00000000      1.00000000      1.00000000      1.00000000      1.00000000      1.00000000      1.00000000      1.00000000      1.00000000      1.00000000      1.00000000      1.00000000      1.00000000      1.00000000      1.00000000      1.00000000
      1.00000000      1.00000000      1.00000000      1.00000000      1.00000000      1.00000000      1.00000000      1.00000000      1.00000000      1.00000000      1.00000000      1.00000000      1.00000000      1.00000000      1.00000000      1.00000000      1.00000000      1.00000000      1.00000000      1.00000000
      1.00000000      1.00000000      1.00000000      1.00000000      1.00000000      1.00000000      1.00000000      1.00000000      1.00000000      1.00000000      1.00000000      1.00000000      1.00000000      1.00000000      1.00000000      1.00000000      1.00000000      1.00000000      1.00000000      1.00000000
      1.00000000      1.00000000      1.00000000      1.00000000      1.00000000      1.00000000      1.00000000      1.00000000      1.00000000      1.00000000      1.00000000      1.00000000      1.00000000      1.00000000      1.00000000      1.00000000      1.00000000      1.00000000      1.00000000      1.00000000
      1.00000000      1.00000000      1.00000000      1.00000000      1.00000000      1.00000000      1.00000000      1.00000000      1.00000000      1.00000000      1.00000000      1.00000000      1.00000000      1.00000000      1.00000000      1.00000000      1.00000000      1.00000000      1.00000000      1.00000000
      1.00000000      1.00000000      1.00000000      1.00000000      1.00000000      1.00000000      1.00000000      1.00000000      1.00000000      1.00000000      1.00000000      1.00000000      1.00000000      1.00000000      1.00000000      1.00000000      1.00000000      1.00000000      1.00000000      1.00000000
      1.00000000      1.00000000      1.00000000      1.00000000      1.00000000</v>
    <i name="NUPDOWN">     -1.00000000</i>
    <i type="logical" name="LSORBIT"> F  </i>
    <v name="SAXIS">      0.00000000      0.00000000      1.00000000</v>
    <i type="logical" name="LSPIRAL"> F  </i>
    <v name="QSPIRAL">      0.00000000      0.00000000      0.00000000</v>
    <i type="logical" name="LZEROZ"> F  </i>
   </separator>
   <separator name="electronic exchange-correlation" >
    <i type="logical" name="LASPH"> F  </i>
    <i type="logical" name="LMETAGGA"> F  </i>
   </separator>
   <separator name="electronic convergence" >
    <i type="int" name="NELM">   600</i>
    <i type="int" name="NELMDL">     0</i>
    <i type="int" name="NELMIN">     2</i>
    <i name="ENINI">    500.00000000</i>
    <separator name="electronic convergence detail" >
     <i type="logical" name="LDIAG"> T  </i>
     <i type="logical" name="LSUBROT"> F  </i>
     <i name="WEIMIN">      0.00000000</i>
     <i name="EBREAK">      0.00000003</i>
     <i name="DEPER">      0.30000000</i>
     <i type="int" name="NRMM">     4</i>
     <i name="TIME">      0.40000000</i>
    </separator>
   </separator>
   <separator name="electronic mixer" >
    <i name="AMIX">      0.40000000</i>
    <i name="BMIX">      0.01000000</i>
    <i name="AMIN">      0.01000000</i>
    <i name="AMIX_MAG">      1.60000000</i>
    <i name="BMIX_MAG">      0.01000000</i>
    <separator name="electronic mixer details" >
     <i type="int" name="IMIX">     4</i>
     <i type="logical" name="MIXFIRST"> F  </i>
     <i type="int" name="MAXMIX">   -45</i>
     <i name="WC">    100.00000000</i>
     <i type="int" name="INIMIX">     1</i>
     <i type="int" name="MIXPRE">     1</i>
     <i type="int" name="MREMOVE">     5</i>
    </separator>
   </separator>
   <separator name="electronic dipolcorrection" >
    <i type="logical" name="LDIPOL"> T  </i>
    <i type="logical" name="LMONO"> F  </i>
    <i type="int" name="IDIPOL">     3</i>
    <i name="EPSILON">      1.00000000</i>
    <v name="DIPOL">   -100.00000000   -100.00000000   -100.00000000</v>
    <i name="EFIELD">      0.00000000</i>
   </separator>
  </separator>
  <separator name="grids" >
   <i type="int" name="NGX">   100</i>
   <i type="int" name="NGY">   100</i>
   <i type="int" name="NGZ">   350</i>
   <i type="int" name="NGXF">   200</i>
   <i type="int" name="NGYF">   200</i>
   <i type="int" name="NGZF">   700</i>
   <i type="logical" name="ADDGRID"> F  </i>
  </separator>
  <separator name="ionic" >
   <i type="int" name="NSW">     0</i>
   <i type="int" name="IBRION">    -1</i>
   <i type="int" name="MDALGO">     0</i>
   <i type="int" name="ISIF">     2</i>
   <i name="PSTRESS">      0.00000000</i>
   <i name="EDIFFG">      0.00100000</i>
   <i type="int" name="NFREE">     0</i>
   <i name="POTIM">      0.50000000</i>
   <i name="SMASS">     -3.00000000</i>
   <i name="SCALEE">      1.00000000</i>
  </separator>
  <separator name="ionic md" >
   <i name="TEBEG">      0.00010000</i>
   <i name="TEEND">      0.00010000</i>
   <i type="int" name="NBLOCK">     1</i>
   <i type="int" name="KBLOCK">     1</i>
   <i type="int" name="NPACO">   256</i>
   <i name="APACO">     16.00000000</i>
  </separator>
  <separator name="symmetry" >
   <i type="int" name="ISYM">     0</i>
   <i name="SYMPREC">      0.00001000</i>
  </separator>
  <separator name="dos" >
   <i type="int" name="LORBIT">     0</i>
   <v name="RWIGS">     -1.00000000     -1.00000000     -1.00000000     -1.00000000     -1.00000000</v>
   <i type="int" name="NEDOS">   301</i>
   <i name="EMIN">     10.00000000</i>
   <i name="EMAX">    -10.00000000</i>
   <i name="EFERMI">      0.00000000</i>
  </separator>
  <separator name="writing" >
   <i type="int" name="NWRITE">     2</i>
   <i type="logical" name="LWAVE"> F  </i>
   <i type="logical" name="LDOWNSAMPLE"> F  </i>
   <i type="logical" name="LCHARG"> T  </i>
   <i type="logical" name="LPARD"> F  </i>
   <i type="logical" name="LVTOT"> T  </i>
   <i type="logical" name="LVHAR"> F  </i>
   <i type="logical" name="LELF"> F  </i>
   <i type="logical" name="LOPTICS"> F  </i>
   <v name="STM">      0.00000000      0.00000000      0.00000000      0.00000000      0.00000000      0.00000000      0.00000000</v>
  </separator>
  <separator name="performance" >
   <i type="int" name="NPAR">     4</i>
   <i type="int" name="NSIM">     4</i>
   <i type="int" name="NBLK">    -1</i>
   <i type="logical" name="LPLANE"> T  </i>
   <i type="logical" name="LSCALAPACK"> T  </i>
   <i type="logical" name="LSCAAWARE"> F  </i>
   <i type="logical" name="LSCALU"> F  </i>
   <i type="logical" name="LASYNC"> F  </i>
   <i type="logical" name="LORBITALREAL"> F  </i>
  </separator>
  <separator name="miscellaneous" >
   <i type="int" name="IDIOT">     3</i>
   <i type="int" name="PHON_NSTRUCT">    -1</i>
   <i type="logical" name="LMUSIC"> F  </i>
   <v name="POMASS">      1.00000000     12.01100000     14.00100000    126.90400000    207.20000000</v>
   <v name="DARWINR">      0.00000000      0.00000000      0.00000000      0.00000000      0.00000000</v>
   <v name="DARWINV">      1.00000000      1.00000000      1.00000000      1.00000000      1.00000000</v>
   <i type="logical" name="LCORR"> T  </i>
  </separator>
  <i type="logical" name="GGA_COMPAT"> F  </i>
  <i type="logical" name="LBERRY"> F  </i>
  <i type="int" name="ICORELEVEL">     0</i>
  <i type="logical" name="LDAU"> F  </i>
  <i type="int" name="I_CONSTRAINED_M">     0</i>
  <separator name="electronic exchange-correlation" >
   <i type="string" name="GGA">--</i>
   <i type="int" name="VOSKOWN">     0</i>
   <i type="logical" name="LHFCALC"> F  </i>
   <i type="string" name="PRECFOCK"></i>
   <i type="logical" name="LSYMGRAD"> F  </i>
   <i type="logical" name="LHFONE"> F  </i>
   <i type="logical" name="LRHFCALC"> F  </i>
   <i type="logical" name="LTHOMAS"> F  </i>
   <i type="logical" name="LMODELHF"> F  </i>
   <i type="logical" name="LFOCKACE"> F  </i>
   <i name="ENCUT4O">     -1.00000000</i>
   <i type="int" name="EXXOEP">     0</i>
   <i type="int" name="FOURORBIT">     0</i>
   <i name="AEXX">      0.00000000</i>
   <i name="HFALPHA">      0.00000000</i>
   <i name="MCALPHA">      0.00000000</i>
   <i name="ALDAX">      1.00000000</i>
   <i name="AGGAX">      1.00000000</i>
   <i name="ALDAC">      1.00000000</i>
   <i name="AGGAC">      1.00000000</i>
   <i type="int" name="NKREDX">     1</i>
   <i type="int" name="NKREDY">     1</i>
   <i type="int" name="NKREDZ">     1</i>
   <i type="logical" name="SHIFTRED"> F  </i>
   <i type="logical" name="ODDONLY"> F  </i>
   <i type="logical" name="EVENONLY"> F  </i>
   <i type="int" name="LMAXFOCK">     0</i>
   <i type="int" name="NMAXFOCKAE">     0</i>
   <i type="logical" name="LFOCKAEDFT"> F  </i>
   <i name="HFSCREEN">      0.00000000</i>
   <i name="HFSCREENC">      0.00000000</i>
   <i type="int" name="NBANDSGWLOW">     0</i>
  </separator>
  <separator name="vdW DFT" >
   <i type="logical" name="LUSE_VDW"> F  </i>
   <i name="Zab_VDW">     -0.84910000</i>
   <i name="PARAM1">      0.12340000</i>
   <i name="PARAM2">      1.00000000</i>
   <i name="PARAM3">      0.00000000</i>
  </separator>
  <separator name="model GW" >
   <i type="int" name="MODEL_GW">     0</i>
   <i name="MODEL_EPS0">     37.63423484</i>
   <i name="MODEL_ALPHA">      1.00000000</i>
  </separator>
  <separator name="linear response parameters" >
   <i type="logical" name="LEPSILON"> F  </i>
   <i type="logical" name="LRPA"> F  </i>
   <i type="logical" name="LNABLA"> F  </i>
   <i type="logical" name="LVEL"> F  </i>
   <i type="int" name="KINTER">     0</i>
   <i name="CSHIFT">      0.10000000</i>
   <i name="OMEGAMAX">     -1.00000000</i>
   <i name="DEG_THRESHOLD">      0.00200000</i>
   <i name="RTIME">     -0.10000000</i>
   <i name="WPLASMAI">      0.00000000</i>
   <v name="DFIELD">      0.00000000      0.00000000      0.00000000</v>
   <v name="WPLASMA">      0.00000000      0.00000000      0.00000000      0.00000000      0.00000000      0.00000000      0.00000000      0.00000000      0.00000000</v>
  </separator>
  <separator name="orbital magnetization" >
   <i type="logical" name="NUCIND"> F  </i>
   <v name="MAGPOS">      0.00000000      0.00000000      0.00000000</v>
   <i type="logical" name="LNICSALL"> T  </i>
   <i type="logical" name="ORBITALMAG"> F  </i>
   <i type="logical" name="LMAGBLOCH"> F  </i>
   <i type="logical" name="LCHIMAG"> F  </i>
   <i type="logical" name="LGAUGE"> T  </i>
   <i type="int" name="MAGATOM">     0</i>
   <v name="MAGDIPOL">      0.00000000      0.00000000      0.00000000</v>
   <v name="AVECCONST">      0.00000000      0.00000000      0.00000000</v>
  </separator>
  <separator name="response functions" >
   <i type="logical" name="LFINITE_TEMPERATURE"> F  </i>
   <i type="logical" name="LADDER"> F  </i>
   <i type="logical" name="LRPAFORCE"> F  </i>
   <i type="logical" name="LFXC"> F  </i>
   <i type="logical" name="LHARTREE"> T  </i>
   <i type="int" name="IBSE">     0</i>
   <v type="int" name="KPOINT">    -1     0     0     0</v>
   <i type="logical" name="LTCTC"> F  </i>
   <i type="logical" name="LTCTE"> F  </i>
   <i type="logical" name="LTETE"> F  </i>
   <i type="logical" name="LTRIPLET"> F  </i>
   <i type="logical" name="LFXCEPS"> F  </i>
   <i type="logical" name="LFXHEG"> F  </i>
   <i type="int" name="NATURALO">     2</i>
   <i type="logical" name="LHOLEGF"> F  </i>
   <i type="logical" name="L2ORDER"> F  </i>
   <i type="logical" name="LDMP1"> F  </i>
   <i type="logical" name="LMP2LT"> F  </i>
   <i type="logical" name="LSMP2LT"> F  </i>
   <i type="logical" name="LGWLF"> F  </i>
   <i name="ENCUTGW">     -2.00000000</i>
   <i name="ENCUTGWSOFT">     -2.00000000</i>
   <i name="ENCUTLF">     -1.00000000</i>
   <i type="logical" name="LESF_SPLINES"> F  </i>
   <i type="int" name="LMAXMP2">    -1</i>
   <i name="SCISSOR">      0.00000000</i>
   <i type="int" name="NOMEGA">     0</i>
   <i type="int" name="NOMEGAR">     0</i>
   <i type="int" name="NBANDSGW">    -1</i>
   <i type="int" name="NBANDSO">    -1</i>
   <i type="int" name="NBANDSV">    -1</i>
   <i type="int" name="NELM">   600</i>
   <i type="int" name="NELMHF">     1</i>
   <i type="int" name="DIM">     3</i>
   <i type="int" name="IESPILON">     4</i>
   <i type="int" name="ANTIRES">     0</i>
   <i name="OMEGAMAX">    -30.00000000</i>
   <i name="OMEGAMIN">    -30.00000000</i>
   <i name="OMEGATL">   -200.00000000</i>
   <i type="int" name="OMEGAGRID">     0</i>
   <i name="CSHIFT">     -0.10000000</i>
   <i type="logical" name="LSELFENERGY"> F  </i>
   <i type="logical" name="LSPECTRAL"> F  </i>
   <i type="logical" name="LSPECTRALGW"> F  </i>
   <i type="logical" name="LSINGLES"> F  </i>
   <i type="logical" name="LFERMIGW"> F  </i>
   <i type="logical" name="ODDONLYGW"> F  </i>
   <i type="logical" name="EVENONLYGW"> F  </i>
   <i type="int" name="NKREDLFX">     1</i>
   <i type="int" name="NKREDLFY">     1</i>
   <i type="int" name="NKREDLFZ">     1</i>
   <i type="int" name="MAXMEM">  2800</i>
   <i type="int" name="TELESCOPE">     0</i>
   <i type="int" name="NTAUPAR">    -1</i>
   <i type="int" name="NOMEGAPAR">    -1</i>
   <i name="DAMP_NEWTON">      0.80000001</i>
   <i name="LAMBDA">      1.00000000</i>
  </separator>
  <separator name="External order field" >
   <i name="OFIELD_KAPPA">      0.00000000</i>
   <v name="OFIELD_K">      0.00000000      0.00000000      0.00000000</v>
   <i name="OFIELD_Q6_NEAR">      0.00000000</i>
   <i name="OFIELD_Q6_FAR">      0.00000000</i>
   <i name="OFIELD_A">      0.00000000</i>
  </separator>
 </parameters>
 <atominfo>
  <atoms>     325 </atoms>
  <types>       5 </types>
  <array name="atoms" >
   <dimension dim="1">ion</dimension>
   <field type="string">element</field>
   <field type="int">atomtype</field>
   <set>
    <rc><c>H </c><c>   1</c></rc>
    <rc><c>H </c><c>   1</c></rc>
    <rc><c>H </c><c>   1</c></rc>
    <rc><c>H </c><c>   1</c></rc>
    <rc><c>H </c><c>   1</c></rc>
    <rc><c>H </c><c>   1</c></rc>
    <rc><c>H </c><c>   1</c></rc>
    <rc><c>H </c><c>   1</c></rc>
    <rc><c>H </c><c>   1</c></rc>
    <rc><c>H </c><c>   1</c></rc>
    <rc><c>H </c><c>   1</c></rc>
    <rc><c>H </c><c>   1</c></rc>
    <rc><c>H </c><c>   1</c></rc>
    <rc><c>H </c><c>   1</c></rc>
    <rc><c>H </c><c>   1</c></rc>
    <rc><c>H </c><c>   1</c></rc>
    <rc><c>H </c><c>   1</c></rc>
    <rc><c>H </c><c>   1</c></rc>
    <rc><c>H </c><c>   1</c></rc>
    <rc><c>H </c><c>   1</c></rc>
    <rc><c>H </c><c>   1</c></rc>
    <rc><c>H </c><c>   1</c></rc>
    <rc><c>H </c><c>   1</c></rc>
    <rc><c>H </c><c>   1</c></rc>
    <rc><c>H </c><c>   1</c></rc>
    <rc><c>H </c><c>   1</c></rc>
    <rc><c>H </c><c>   1</c></rc>
    <rc><c>H </c><c>   1</c></rc>
    <rc><c>H </c><c>   1</c></rc>
    <rc><c>H </c><c>   1</c></rc>
    <rc><c>H </c><c>   1</c></rc>
    <rc><c>H </c><c>   1</c></rc>
    <rc><c>H </c><c>   1</c></rc>
    <rc><c>H </c><c>   1</c></rc>
    <rc><c>H </c><c>   1</c></rc>
    <rc><c>H </c><c>   1</c></rc>
    <rc><c>H </c><c>   1</c></rc>
    <rc><c>H </c><c>   1</c></rc>
    <rc><c>H </c><c>   1</c></rc>
    <rc><c>H </c><c>   1</c></rc>
    <rc><c>H </c><c>   1</c></rc>
    <rc><c>H </c><c>   1</c></rc>
    <rc><c>H </c><c>   1</c></rc>
    <rc><c>H </c><c>   1</c></rc>
    <rc><c>H </c><c>   1</c></rc>
    <rc><c>H </c><c>   1</c></rc>
    <rc><c>H </c><c>   1</c></rc>
    <rc><c>H </c><c>   1</c></rc>
    <rc><c>H </c><c>   1</c></rc>
    <rc><c>H </c><c>   1</c></rc>
    <rc><c>H </c><c>   1</c></rc>
    <rc><c>H </c><c>   1</c></rc>
    <rc><c>H </c><c>   1</c></rc>
    <rc><c>H </c><c>   1</c></rc>
    <rc><c>H </c><c>   1</c></rc>
    <rc><c>H </c><c>   1</c></rc>
    <rc><c>H </c><c>   1</c></rc>
    <rc><c>H </c><c>   1</c></rc>
    <rc><c>H </c><c>   1</c></rc>
    <rc><c>H </c><c>   1</c></rc>
    <rc><c>H </c><c>   1</c></rc>
    <rc><c>H </c><c>   1</c></rc>
    <rc><c>H </c><c>   1</c></rc>
    <rc><c>H </c><c>   1</c></rc>
    <rc><c>H </c><c>   1</c></rc>
    <rc><c>H </c><c>   1</c></rc>
    <rc><c>H </c><c>   1</c></rc>
    <rc><c>H </c><c>   1</c></rc>
    <rc><c>H </c><c>   1</c></rc>
    <rc><c>H </c><c>   1</c></rc>
    <rc><c>H </c><c>   1</c></rc>
    <rc><c>H </c><c>   1</c></rc>
    <rc><c>H </c><c>   1</c></rc>
    <rc><c>H </c><c>   1</c></rc>
    <rc><c>H </c><c>   1</c></rc>
    <rc><c>H </c><c>   1</c></rc>
    <rc><c>H </c><c>   1</c></rc>
    <rc><c>H </c><c>   1</c></rc>
    <rc><c>H </c><c>   1</c></rc>
    <rc><c>H </c><c>   1</c></rc>
    <rc><c>H </c><c>   1</c></rc>
    <rc><c>H </c><c>   1</c></rc>
    <rc><c>H </c><c>   1</c></rc>
    <rc><c>H </c><c>   1</c></rc>
    <rc><c>H </c><c>   1</c></rc>
    <rc><c>H </c><c>   1</c></rc>
    <rc><c>H </c><c>   1</c></rc>
    <rc><c>H </c><c>   1</c></rc>
    <rc><c>H </c><c>   1</c></rc>
    <rc><c>H </c><c>   1</c></rc>
    <rc><c>H </c><c>   1</c></rc>
    <rc><c>H </c><c>   1</c></rc>
    <rc><c>H </c><c>   1</c></rc>
    <rc><c>H </c><c>   1</c></rc>
    <rc><c>H </c><c>   1</c></rc>
    <rc><c>H </c><c>   1</c></rc>
    <rc><c>H </c><c>   1</c></rc>
    <rc><c>H </c><c>   1</c></rc>
    <rc><c>H </c><c>   1</c></rc>
    <rc><c>H </c><c>   1</c></rc>
    <rc><c>H </c><c>   1</c></rc>
    <rc><c>H </c><c>   1</c></rc>
    <rc><c>H </c><c>   1</c></rc>
    <rc><c>H </c><c>   1</c></rc>
    <rc><c>H </c><c>   1</c></rc>
    <rc><c>H </c><c>   1</c></rc>
    <rc><c>H </c><c>   1</c></rc>
    <rc><c>H </c><c>   1</c></rc>
    <rc><c>H </c><c>   1</c></rc>
    <rc><c>H </c><c>   1</c></rc>
    <rc><c>H </c><c>   1</c></rc>
    <rc><c>H </c><c>   1</c></rc>
    <rc><c>H </c><c>   1</c></rc>
    <rc><c>H </c><c>   1</c></rc>
    <rc><c>H </c><c>   1</c></rc>
    <rc><c>H </c><c>   1</c></rc>
    <rc><c>H </c><c>   1</c></rc>
    <rc><c>H </c><c>   1</c></rc>
    <rc><c>H </c><c>   1</c></rc>
    <rc><c>H </c><c>   1</c></rc>
    <rc><c>H </c><c>   1</c></rc>
    <rc><c>H </c><c>   1</c></rc>
    <rc><c>H </c><c>   1</c></rc>
    <rc><c>H </c><c>   1</c></rc>
    <rc><c>H </c><c>   1</c></rc>
    <rc><c>H </c><c>   1</c></rc>
    <rc><c>H </c><c>   1</c></rc>
    <rc><c>H </c><c>   1</c></rc>
    <rc><c>H </c><c>   1</c></rc>
    <rc><c>H </c><c>   1</c></rc>
    <rc><c>H </c><c>   1</c></rc>
    <rc><c>H </c><c>   1</c></rc>
    <rc><c>H </c><c>   1</c></rc>
    <rc><c>H </c><c>   1</c></rc>
    <rc><c>H </c><c>   1</c></rc>
    <rc><c>H </c><c>   1</c></rc>
    <rc><c>H </c><c>   1</c></rc>
    <rc><c>H </c><c>   1</c></rc>
    <rc><c>H </c><c>   1</c></rc>
    <rc><c>H </c><c>   1</c></rc>
    <rc><c>H </c><c>   1</c></rc>
    <rc><c>H </c><c>   1</c></rc>
    <rc><c>H </c><c>   1</c></rc>
    <rc><c>C </c><c>   2</c></rc>
    <rc><c>C </c><c>   2</c></rc>
    <rc><c>C </c><c>   2</c></rc>
    <rc><c>C </c><c>   2</c></rc>
    <rc><c>C </c><c>   2</c></rc>
    <rc><c>C </c><c>   2</c></rc>
    <rc><c>C </c><c>   2</c></rc>
    <rc><c>C </c><c>   2</c></rc>
    <rc><c>C </c><c>   2</c></rc>
    <rc><c>C </c><c>   2</c></rc>
    <rc><c>C </c><c>   2</c></rc>
    <rc><c>C </c><c>   2</c></rc>
    <rc><c>C </c><c>   2</c></rc>
    <rc><c>C </c><c>   2</c></rc>
    <rc><c>C </c><c>   2</c></rc>
    <rc><c>C </c><c>   2</c></rc>
    <rc><c>C </c><c>   2</c></rc>
    <rc><c>C </c><c>   2</c></rc>
    <rc><c>C </c><c>   2</c></rc>
    <rc><c>C </c><c>   2</c></rc>
    <rc><c>C </c><c>   2</c></rc>
    <rc><c>C </c><c>   2</c></rc>
    <rc><c>C </c><c>   2</c></rc>
    <rc><c>C </c><c>   2</c></rc>
    <rc><c>C </c><c>   2</c></rc>
    <rc><c>C </c><c>   2</c></rc>
    <rc><c>C </c><c>   2</c></rc>
    <rc><c>C </c><c>   2</c></rc>
    <rc><c>C </c><c>   2</c></rc>
    <rc><c>C </c><c>   2</c></rc>
    <rc><c>C </c><c>   2</c></rc>
    <rc><c>C </c><c>   2</c></rc>
    <rc><c>C </c><c>   2</c></rc>
    <rc><c>C </c><c>   2</c></rc>
    <rc><c>C </c><c>   2</c></rc>
    <rc><c>C </c><c>   2</c></rc>
    <rc><c>C </c><c>   2</c></rc>
    <rc><c>C </c><c>   2</c></rc>
    <rc><c>C </c><c>   2</c></rc>
    <rc><c>N </c><c>   3</c></rc>
    <rc><c>N </c><c>   3</c></rc>
    <rc><c>N </c><c>   3</c></rc>
    <rc><c>N </c><c>   3</c></rc>
    <rc><c>N </c><c>   3</c></rc>
    <rc><c>N </c><c>   3</c></rc>
    <rc><c>N </c><c>   3</c></rc>
    <rc><c>N </c><c>   3</c></rc>
    <rc><c>N </c><c>   3</c></rc>
    <rc><c>N </c><c>   3</c></rc>
    <rc><c>N </c><c>   3</c></rc>
    <rc><c>N </c><c>   3</c></rc>
    <rc><c>N </c><c>   3</c></rc>
    <rc><c>N </c><c>   3</c></rc>
    <rc><c>N </c><c>   3</c></rc>
    <rc><c>N </c><c>   3</c></rc>
    <rc><c>N </c><c>   3</c></rc>
    <rc><c>N </c><c>   3</c></rc>
    <rc><c>N </c><c>   3</c></rc>
    <rc><c>N </c><c>   3</c></rc>
    <rc><c>N </c><c>   3</c></rc>
    <rc><c>N </c><c>   3</c></rc>
    <rc><c>N </c><c>   3</c></rc>
    <rc><c>N </c><c>   3</c></rc>
    <rc><c>N </c><c>   3</c></rc>
    <rc><c>N </c><c>   3</c></rc>
    <rc><c>N </c><c>   3</c></rc>
    <rc><c>N </c><c>   3</c></rc>
    <rc><c>N </c><c>   3</c></rc>
    <rc><c>N </c><c>   3</c></rc>
    <rc><c>N </c><c>   3</c></rc>
    <rc><c>N </c><c>   3</c></rc>
    <rc><c>N </c><c>   3</c></rc>
    <rc><c>N </c><c>   3</c></rc>
    <rc><c>N </c><c>   3</c></rc>
    <rc><c>N </c><c>   3</c></rc>
    <rc><c>N </c><c>   3</c></rc>
    <rc><c>N </c><c>   3</c></rc>
    <rc><c>N </c><c>   3</c></rc>
    <rc><c>N </c><c>   3</c></rc>
    <rc><c>N </c><c>   3</c></rc>
    <rc><c>N </c><c>   3</c></rc>
    <rc><c>N </c><c>   3</c></rc>
    <rc><c>N </c><c>   3</c></rc>
    <rc><c>N </c><c>   3</c></rc>
    <rc><c>N </c><c>   3</c></rc>
    <rc><c>N </c><c>   3</c></rc>
    <rc><c>I </c><c>   4</c></rc>
    <rc><c>I </c><c>   4</c></rc>
    <rc><c>I </c><c>   4</c></rc>
    <rc><c>I </c><c>   4</c></rc>
    <rc><c>I </c><c>   4</c></rc>
    <rc><c>I </c><c>   4</c></rc>
    <rc><c>I </c><c>   4</c></rc>
    <rc><c>I </c><c>   4</c></rc>
    <rc><c>I </c><c>   4</c></rc>
    <rc><c>I </c><c>   4</c></rc>
    <rc><c>I </c><c>   4</c></rc>
    <rc><c>I </c><c>   4</c></rc>
    <rc><c>I </c><c>   4</c></rc>
    <rc><c>I </c><c>   4</c></rc>
    <rc><c>I </c><c>   4</c></rc>
    <rc><c>I </c><c>   4</c></rc>
    <rc><c>I </c><c>   4</c></rc>
    <rc><c>I </c><c>   4</c></rc>
    <rc><c>I </c><c>   4</c></rc>
    <rc><c>I </c><c>   4</c></rc>
    <rc><c>I </c><c>   4</c></rc>
    <rc><c>I </c><c>   4</c></rc>
    <rc><c>I </c><c>   4</c></rc>
    <rc><c>I </c><c>   4</c></rc>
    <rc><c>I </c><c>   4</c></rc>
    <rc><c>I </c><c>   4</c></rc>
    <rc><c>I </c><c>   4</c></rc>
    <rc><c>I </c><c>   4</c></rc>
    <rc><c>I </c><c>   4</c></rc>
    <rc><c>I </c><c>   4</c></rc>
    <rc><c>I </c><c>   4</c></rc>
    <rc><c>I </c><c>   4</c></rc>
    <rc><c>I </c><c>   4</c></rc>
    <rc><c>I </c><c>   4</c></rc>
    <rc><c>I </c><c>   4</c></rc>
    <rc><c>I </c><c>   4</c></rc>
    <rc><c>I </c><c>   4</c></rc>
    <rc><c>I </c><c>   4</c></rc>
    <rc><c>I </c><c>   4</c></rc>
    <rc><c>I </c><c>   4</c></rc>
    <rc><c>I </c><c>   4</c></rc>
    <rc><c>I </c><c>   4</c></rc>
    <rc><c>I </c><c>   4</c></rc>
    <rc><c>I </c><c>   4</c></rc>
    <rc><c>I </c><c>   4</c></rc>
    <rc><c>I </c><c>   4</c></rc>
    <rc><c>I </c><c>   4</c></rc>
    <rc><c>I </c><c>   4</c></rc>
    <rc><c>I </c><c>   4</c></rc>
    <rc><c>I </c><c>   4</c></rc>
    <rc><c>I </c><c>   4</c></rc>
    <rc><c>I </c><c>   4</c></rc>
    <rc><c>I </c><c>   4</c></rc>
    <rc><c>I </c><c>   4</c></rc>
    <rc><c>I </c><c>   4</c></rc>
    <rc><c>I </c><c>   4</c></rc>
    <rc><c>I </c><c>   4</c></rc>
    <rc><c>I </c><c>   4</c></rc>
    <rc><c>I </c><c>   4</c></rc>
    <rc><c>I </c><c>   4</c></rc>
    <rc><c>I </c><c>   4</c></rc>
    <rc><c>I </c><c>   4</c></rc>
    <rc><c>I </c><c>   4</c></rc>
    <rc><c>I </c><c>   4</c></rc>
    <rc><c>I </c><c>   4</c></rc>
    <rc><c>I </c><c>   4</c></rc>
    <rc><c>I </c><c>   4</c></rc>
    <rc><c>I </c><c>   4</c></rc>
    <rc><c>I </c><c>   4</c></rc>
    <rc><c>I </c><c>   4</c></rc>
    <rc><c>I </c><c>   4</c></rc>
    <rc><c>I </c><c>   4</c></rc>
    <rc><c>Pb</c><c>   5</c></rc>
    <rc><c>Pb</c><c>   5</c></rc>
    <rc><c>Pb</c><c>   5</c></rc>
    <rc><c>Pb</c><c>   5</c></rc>
    <rc><c>Pb</c><c>   5</c></rc>
    <rc><c>Pb</c><c>   5</c></rc>
    <rc><c>Pb</c><c>   5</c></rc>
    <rc><c>Pb</c><c>   5</c></rc>
    <rc><c>Pb</c><c>   5</c></rc>
    <rc><c>Pb</c><c>   5</c></rc>
    <rc><c>Pb</c><c>   5</c></rc>
    <rc><c>Pb</c><c>   5</c></rc>
    <rc><c>Pb</c><c>   5</c></rc>
    <rc><c>Pb</c><c>   5</c></rc>
    <rc><c>Pb</c><c>   5</c></rc>
    <rc><c>Pb</c><c>   5</c></rc>
    <rc><c>Pb</c><c>   5</c></rc>
    <rc><c>Pb</c><c>   5</c></rc>
    <rc><c>Pb</c><c>   5</c></rc>
    <rc><c>Pb</c><c>   5</c></rc>
    <rc><c>Pb</c><c>   5</c></rc>
    <rc><c>Pb</c><c>   5</c></rc>
    <rc><c>Pb</c><c>   5</c></rc>
    <rc><c>Pb</c><c>   5</c></rc>
   </set>
  </array>
  <array name="atomtypes" >
   <dimension dim="1">type</dimension>
   <field type="int">atomspertype</field>
   <field type="string">element</field>
   <field>mass</field>
   <field>valence</field>
   <field type="string">pseudopotential</field>
   <set>
    <rc><c> 143</c><c>H </c><c>      1.00000000</c><c>      1.00000000</c><c>  PAW_PBE H 15Jun2001                   </c></rc>
    <rc><c>  39</c><c>C </c><c>     12.01100000</c><c>      4.00000000</c><c>  PAW_PBE C 08Apr2002                   </c></rc>
    <rc><c>  47</c><c>N </c><c>     14.00100000</c><c>      5.00000000</c><c>  PAW_PBE N 08Apr2002                   </c></rc>
    <rc><c>  72</c><c>I </c><c>    126.90400000</c><c>      7.00000000</c><c>  PAW_PBE I 08Apr2002                   </c></rc>
    <rc><c>  24</c><c>Pb</c><c>    207.20000000</c><c>      4.00000000</c><c>  PAW_PBE Pb 08Apr2002                  </c></rc>
   </set>
  </array>
 </atominfo>
 <structure name="initialpos" >
  <crystal>
   <varray name="basis" >
    <v>      18.06080055       0.00000000       0.00000000 </v>
    <v>      -0.00491865      18.06279945       0.00000000 </v>
    <v>       0.00000000       0.00000000      62.48749924 </v>
   </varray>
   <i name="volume">  20385.21054034 </i>
   <varray name="rec_basis" >
    <v>       0.05536853       0.00001508      -0.00000000 </v>
    <v>       0.00000000       0.05536240       0.00000000 </v>
    <v>       0.00000000      -0.00000000       0.01600320 </v>
   </varray>
  </crystal>
  <varray name="positions" >
   <v>       0.43227881       0.27064306       0.58378211 </v>
   <v>       0.42416757       0.76636795       0.58078590 </v>
   <v>       0.93885995       0.29475057       0.58344977 </v>
   <v>       0.94995006       0.80581512       0.58155162 </v>
   <v>       0.30481568       0.05110882       0.58214708 </v>
   <v>       0.30459741       0.56786802       0.57737964 </v>
   <v>       0.77700498       0.06670203       0.58232192 </v>
   <v>       0.09391614       0.18175335       0.56176208 </v>
   <v>       0.08760043       0.67894192       0.55974941 </v>
   <v>       0.59717885       0.18591953       0.56091120 </v>
   <v>       0.61230412       0.72731856       0.56064216 </v>
   <v>       0.36300350       0.03608519       0.55969276 </v>
   <v>       0.29638873       0.60151937       0.55115840 </v>
   <v>       0.83566930       0.07488206       0.56001008 </v>
   <v>       0.06899085       0.22551282       0.58533204 </v>
   <v>       0.02957654       0.69106132       0.58177554 </v>
   <v>       0.54145925       0.18524015       0.58383461 </v>
   <v>       0.55525712       0.70731989       0.58181632 </v>
   <v>       0.24516384       0.44462825       0.58450320 </v>
   <v>       0.18091467       0.99358601       0.58124046 </v>
   <v>       0.68754755       0.96324389       0.58199360 </v>
   <v>       0.41615537       0.31879842       0.56010080 </v>
   <v>       0.40447091       0.81791999       0.55812433 </v>
   <v>       0.89671909       0.28221024       0.55875574 </v>
   <v>       0.95691902       0.86185486       0.55875836 </v>
   <v>       0.20065942       0.40119013       0.56288755 </v>
   <v>       0.15732964       0.94321631       0.55799918 </v>
   <v>       0.69028598       0.90249440       0.55946377 </v>
   <v>       0.51946493       0.26781189       0.54316522 </v>
   <v>       0.51979795       0.79687008       0.54280821 </v>
   <v>       0.98761685       0.21024779       0.54351514 </v>
   <v>       0.04771233       0.78835471       0.54309514 </v>
   <v>       0.23051545       0.49882182       0.53943004 </v>
   <v>       0.27311720       0.96671479       0.54226373 </v>
   <v>       0.78379983       0.96992598       0.54345312 </v>
   <v>       0.43868491       0.29079760       0.67477687 </v>
   <v>       0.43666262       0.81792797       0.67182389 </v>
   <v>       0.95619845       0.28736087       0.67869538 </v>
   <v>       0.94071361       0.79965774       0.67639066 </v>
   <v>       0.30098695       0.05149752       0.67529815 </v>
   <v>       0.29887626       0.55549112       0.67616857 </v>
   <v>       0.80596672       0.05118419       0.67556762 </v>
   <v>       0.80849956       0.55439584       0.67467034 </v>
   <v>       0.08432601       0.17145641       0.64683451 </v>
   <v>       0.08916432       0.68715782       0.65286209 </v>
   <v>       0.57885326       0.17403038       0.64776152 </v>
   <v>       0.56548150       0.66611952       0.65792481 </v>
   <v>       0.17906223       0.41538693       0.65089685 </v>
   <v>       0.17133049       0.92308518       0.64959379 </v>
   <v>       0.66490072       0.41859091       0.65599156 </v>
   <v>       0.66510106       0.93194785       0.65038015 </v>
   <v>       0.06428528       0.18846949       0.67332553 </v>
   <v>       0.04640907       0.69706832       0.67716913 </v>
   <v>       0.54072806       0.18611713       0.67295980 </v>
   <v>       0.53080386       0.70928318       0.68058559 </v>
   <v>       0.20319065       0.44587005       0.67639487 </v>
   <v>       0.19599855       0.95257902       0.67514676 </v>
   <v>       0.70512267       0.44850028       0.67995521 </v>
   <v>       0.69332265       0.95908838       0.67584868 </v>
   <v>       0.42225041       0.33237553       0.65044705 </v>
   <v>       0.42555625       0.83484102       0.64467240 </v>
   <v>       0.92145023       0.32096030       0.65457935 </v>
   <v>       0.92949706       0.84187167       0.65207219 </v>
   <v>       0.33243711       0.07580389       0.64981704 </v>
   <v>       0.32497629       0.58363821       0.65077646 </v>
   <v>       0.83771406       0.07331558       0.65011209 </v>
   <v>       0.81602964       0.58202593       0.64851570 </v>
   <v>       0.99513131       0.25459147       0.63314843 </v>
   <v>       0.02318792       0.77752062       0.63563611 </v>
   <v>       0.50753464       0.26676393       0.63163940 </v>
   <v>       0.50626189       0.74094321       0.63396268 </v>
   <v>       0.25502354       0.99640715       0.63195281 </v>
   <v>       0.25140414       0.49921875       0.63286187 </v>
   <v>       0.75360593       0.99903408       0.63232612 </v>
   <v>       0.73079802       0.50142374       0.63502905 </v>
   <v>       0.44874502       0.30128397       0.76888902 </v>
   <v>       0.44874501       0.80128391       0.76888902 </v>
   <v>       0.94874497       0.30128397       0.76888902 </v>
   <v>       0.94874501       0.80128391       0.76888902 </v>
   <v>       0.30127600       0.05129450       0.76887296 </v>
   <v>       0.30127601       0.55129450       0.76887296 </v>
   <v>       0.80127594       0.05129450       0.76887296 </v>
   <v>       0.80127598       0.55129450       0.76887296 </v>
   <v>       0.07877100       0.17118050       0.74344197 </v>
   <v>       0.07877101       0.67118045       0.74344197 </v>
   <v>       0.57877100       0.17118050       0.74344197 </v>
   <v>       0.57877099       0.67118045       0.74344197 </v>
   <v>       0.17119950       0.42117448       0.74342103 </v>
   <v>       0.17119950       0.92117451       0.74342103 </v>
   <v>       0.67119951       0.42117448       0.74342103 </v>
   <v>       0.67119950       0.92117451       0.74342103 </v>
   <v>       0.05125600       0.19871499       0.76888902 </v>
   <v>       0.05125600       0.69871493       0.76888902 </v>
   <v>       0.55125603       0.19871499       0.76888902 </v>
   <v>       0.55125602       0.69871493       0.76888902 </v>
   <v>       0.19872349       0.44870397       0.76887205 </v>
   <v>       0.19872349       0.94870397       0.76887205 </v>
   <v>       0.69872352       0.44870397       0.76887205 </v>
   <v>       0.69872351       0.94870397       0.76887205 </v>
   <v>       0.42123152       0.32881747       0.74344197 </v>
   <v>       0.42123151       0.82881744       0.74344197 </v>
   <v>       0.92123147       0.32881747       0.74344197 </v>
   <v>       0.92123151       0.82881744       0.74344197 </v>
   <v>       0.32880050       0.07882500       0.74342103 </v>
   <v>       0.32880049       0.57882496       0.74342103 </v>
   <v>       0.82880048       0.07882500       0.74342103 </v>
   <v>       0.82880052       0.57882496       0.74342103 </v>
   <v>       0.00000350       0.25000148       0.72582199 </v>
   <v>       0.00000350       0.75000145       0.72582199 </v>
   <v>       0.50000351       0.25000148       0.72582199 </v>
   <v>       0.50000350       0.75000145       0.72582199 </v>
   <v>       0.25000050       0.00000000       0.72580398 </v>
   <v>       0.25000052       0.50000000       0.72580398 </v>
   <v>       0.75000050       0.00000000       0.72580398 </v>
   <v>       0.75000049       0.50000000       0.72580398 </v>
   <v>       0.77776779       0.51211190       0.52150879 </v>
   <v>       0.86829991       0.51296976       0.53459002 </v>
   <v>       0.76355346       0.63025109       0.54047669 </v>
   <v>       0.76883373       0.63148809       0.56811430 </v>
   <v>       0.67941826       0.46201189       0.56102231 </v>
   <v>       0.67605247       0.55628383       0.56770889 </v>
   <v>       0.80798935       0.43100750       0.57347927 </v>
   <v>       0.87309386       0.50200431       0.57396197 </v>
   <v>       0.85839316       0.39075353       0.54411078 </v>
   <v>       0.76172889       0.38304952       0.54015070 </v>
   <v>       0.77301993       0.38984826       0.50266994 </v>
   <v>       0.86363695       0.42633332       0.50370933 </v>
   <v>       0.89286054       0.62818448       0.53449857 </v>
   <v>       0.91371107       0.61224095       0.56134445 </v>
   <v>       0.87217453       0.69735523       0.55276101 </v>
   <v>       0.59337478       0.53068639       0.53679969 </v>
   <v>       0.66563774       0.48467589       0.52258792 </v>
   <v>       0.66917210       0.58298553       0.52697125 </v>
   <v>       0.73277989       0.47966987       0.60052703 </v>
   <v>       0.75314384       0.57059723       0.59266242 </v>
   <v>       0.81689455       0.52342571       0.60779729 </v>
   <v>       0.83631786       0.27100266       0.52001587 </v>
   <v>       0.84344802       0.28724598       0.49236627 </v>
   <v>       0.93727032       0.18258467       0.50358232 </v>
   <v>       0.97419335       0.41775018       0.51431283 </v>
   <v>       0.07180758       0.16301557       0.50484774 </v>
   <v>       0.10426255       0.39726533       0.51661706 </v>
   <v>       0.15926918       0.26894054       0.51190933 </v>
   <v>       0.99415621       0.22987407       0.56039675 </v>
   <v>       0.02407773       0.77147628       0.55807555 </v>
   <v>       0.50485452       0.25197028       0.55946108 </v>
   <v>       0.50716207       0.77152422       0.55821028 </v>
   <v>       0.24833421       0.50227764       0.55616935 </v>
   <v>       0.25991154       0.98992677       0.55805962 </v>
   <v>       0.76246718       0.98962538       0.55893143 </v>
   <v>       0.00263234       0.24691152       0.65040542 </v>
   <v>       0.00948881       0.76520693       0.65175945 </v>
   <v>       0.49989075       0.25419549       0.64837175 </v>
   <v>       0.49615772       0.75123011       0.65059247 </v>
   <v>       0.25260492       0.50000486       0.65014963 </v>
   <v>       0.25156399       0.99969927       0.64901433 </v>
   <v>       0.74045350       0.50018928       0.65226596 </v>
   <v>       0.75215026       0.00257869       0.64958891 </v>
   <v>       0.49998898       0.24999498       0.74327702 </v>
   <v>       0.49998903       0.74999496       0.74327702 </v>
   <v>       0.99998898       0.24999498       0.74327702 </v>
   <v>       0.99998903       0.74999496       0.74327702 </v>
   <v>       0.25000050       0.00000100       0.74325596 </v>
   <v>       0.25000052       0.50000100       0.74325596 </v>
   <v>       0.75000050       0.00000100       0.74325596 </v>
   <v>       0.75000049       0.50000100       0.74325596 </v>
   <v>       0.94390131       0.30328664       0.50860502 </v>
   <v>       0.97484385       0.22989841       0.50561327 </v>
   <v>       0.99193074       0.36130049       0.51131113 </v>
   <v>       0.05068982       0.21871710       0.50673334 </v>
   <v>       0.06982648       0.34906486       0.51266064 </v>
   <v>       0.09877753       0.27819759       0.51057612 </v>
   <v>       0.81146451       0.49053073       0.53484953 </v>
   <v>       0.79550341       0.60913026       0.55392488 </v>
   <v>       0.69457852       0.51762055       0.55528569 </v>
   <v>       0.81339099       0.49088368       0.57454021 </v>
   <v>       0.81298450       0.40846124       0.53420426 </v>
   <v>       0.82611774       0.38303229       0.51092794 </v>
   <v>       0.87268308       0.63705196       0.55092483 </v>
   <v>       0.65388114       0.53007230       0.53404352 </v>
   <v>       0.77735323       0.51677077       0.59498210 </v>
   <v>       0.86016894       0.30797753       0.50808844 </v>
   <v>       0.05591728       0.21060528       0.56980629 </v>
   <v>       0.04801953       0.71035566       0.56717393 </v>
   <v>       0.54840703       0.20306581       0.56851905 </v>
   <v>       0.55860221       0.73055062       0.56706233 </v>
   <v>       0.44797862       0.28205137       0.56822889 </v>
   <v>       0.44262762       0.78579032       0.56573675 </v>
   <v>       0.94070245       0.27101713       0.56829427 </v>
   <v>       0.97314603       0.81436518       0.56659825 </v>
   <v>       0.22973419       0.44635716       0.56895077 </v>
   <v>       0.19503495       0.97408576       0.56660747 </v>
   <v>       0.70903952       0.95055510       0.56752068 </v>
   <v>       0.31192233       0.02861782       0.56747965 </v>
   <v>       0.28472134       0.56062396       0.56221407 </v>
   <v>       0.79431391       0.04705309       0.56802206 </v>
   <v>       0.05352763       0.19904094       0.65768532 </v>
   <v>       0.05065076       0.71279296       0.66146793 </v>
   <v>       0.54289582       0.20092806       0.65733008 </v>
   <v>       0.53222935       0.70621579       0.66371350 </v>
   <v>       0.20815895       0.44966542       0.65960654 </v>
   <v>       0.20230433       0.95499457       0.65842955 </v>
   <v>       0.70258318       0.45464862       0.66387815 </v>
   <v>       0.69936456       0.96109187       0.65907732 </v>
   <v>       0.45161770       0.29375945       0.65849926 </v>
   <v>       0.45090108       0.80321082       0.65597483 </v>
   <v>       0.95794552       0.28688875       0.66222541 </v>
   <v>       0.95684644       0.80364825       0.66113736 </v>
   <v>       0.29902077       0.04660783       0.65856049 </v>
   <v>       0.29363862       0.54831908       0.65946668 </v>
   <v>       0.80120388       0.04379702       0.65878857 </v>
   <v>       0.79041964       0.54783683       0.65924911 </v>
   <v>       0.04586250       0.20411950       0.75272599 </v>
   <v>       0.04586250       0.70411946       0.75272599 </v>
   <v>       0.54586251       0.20411950       0.75272599 </v>
   <v>       0.54586250       0.70411946       0.75272599 </v>
   <v>       0.20411900       0.45410100       0.75270499 </v>
   <v>       0.20411899       0.95410095       0.75270499 </v>
   <v>       0.70411898       0.45410100       0.75270499 </v>
   <v>       0.70411896       0.95410095       0.75270499 </v>
   <v>       0.45414002       0.29588849       0.75272697 </v>
   <v>       0.45414001       0.79588852       0.75272697 </v>
   <v>       0.95414002       0.29588849       0.75272697 </v>
[...]
   <v>       0.59717885       0.18591953       0.56091120 </v>
   <v>       0.61230412       0.72731856       0.56064216 </v>
   <v>       0.36300350       0.03608519       0.55969276 </v>
   <v>       0.29638873       0.60151937       0.55115840 </v>
   <v>       0.83566930       0.07488206       0.56001008 </v>
   <v>       0.06899085       0.22551282       0.58533204 </v>
   <v>       0.02957654       0.69106132       0.58177554 </v>
   <v>       0.54145925       0.18524015       0.58383461 </v>
   <v>       0.55525712       0.70731989       0.58181632 </v>
   <v>       0.24516384       0.44462825       0.58450320 </v>
   <v>       0.18091467       0.99358601       0.58124046 </v>
   <v>       0.68754755       0.96324389       0.58199360 </v>
   <v>       0.41615537       0.31879842       0.56010080 </v>
   <v>       0.40447091       0.81791999       0.55812433 </v>
   <v>       0.89671909       0.28221024       0.55875574 </v>
   <v>       0.95691902       0.86185486       0.55875836 </v>
   <v>       0.20065942       0.40119013       0.56288755 </v>
   <v>       0.15732964       0.94321631       0.55799918 </v>
   <v>       0.69028598       0.90249440       0.55946377 </v>
   <v>       0.51946493       0.26781189       0.54316522 </v>
   <v>       0.51979795       0.79687008       0.54280821 </v>
   <v>       0.98761685       0.21024779       0.54351514 </v>
   <v>       0.04771233       0.78835471       0.54309514 </v>
   <v>       0.23051545       0.49882182       0.53943004 </v>
   <v>       0.27311720       0.96671479       0.54226373 </v>
   <v>       0.78379983       0.96992598       0.54345312 </v>
   <v>       0.43868491       0.29079760       0.67477687 </v>
   <v>       0.43666262       0.81792797       0.67182389 </v>
   <v>       0.95619845       0.28736087       0.67869538 </v>
   <v>       0.94071361       0.79965774       0.67639066 </v>
   <v>       0.30098695       0.05149752       0.67529815 </v>
   <v>       0.29887626       0.55549112       0.67616857 </v>
   <v>       0.80596672       0.05118419       0.67556762 </v>
   <v>       0.80849956       0.55439584       0.67467034 </v>
   <v>       0.08432601       0.17145641       0.64683451 </v>
   <v>       0.08916432       0.68715782       0.65286209 </v>
   <v>       0.57885326       0.17403038       0.64776152 </v>
   <v>       0.56548150       0.66611952       0.65792481 </v>
   <v>       0.17906223       0.41538693       0.65089685 </v>
   <v>       0.17133049       0.92308518       0.64959379 </v>
   <v>       0.66490072       0.41859091       0.65599156 </v>
   <v>       0.66510106       0.93194785       0.65038015 </v>
   <v>       0.06428528       0.18846949       0.67332553 </v>
   <v>       0.04640907       0.69706832       0.67716913 </v>
   <v>       0.54072806       0.18611713       0.67295980 </v>
   <v>       0.53080386       0.70928318       0.68058559 </v>
   <v>       0.20319065       0.44587005       0.67639487 </v>
   <v>       0.19599855       0.95257902       0.67514676 </v>
   <v>       0.70512267       0.44850028       0.67995521 </v>
   <v>       0.69332265       0.95908838       0.67584868 </v>
   <v>       0.42225041       0.33237553       0.65044705 </v>
   <v>       0.42555625       0.83484102       0.64467240 </v>
   <v>       0.92145023       0.32096030       0.65457935 </v>
   <v>       0.92949706       0.84187167       0.65207219 </v>
   <v>       0.33243711       0.07580389       0.64981704 </v>
   <v>       0.32497629       0.58363821       0.65077646 </v>
   <v>       0.83771406       0.07331558       0.65011209 </v>
   <v>       0.81602964       0.58202593       0.64851570 </v>
   <v>       0.99513131       0.25459147       0.63314843 </v>
   <v>       0.02318792       0.77752062       0.63563611 </v>
   <v>       0.50753464       0.26676393       0.63163940 </v>
   <v>       0.50626189       0.74094321       0.63396268 </v>
   <v>       0.25502354       0.99640715       0.63195281 </v>
   <v>       0.25140414       0.49921875       0.63286187 </v>
   <v>       0.75360593       0.99903408       0.63232612 </v>
   <v>       0.73079802       0.50142374       0.63502905 </v>
   <v>       0.44874502       0.30128397       0.76888902 </v>
   <v>       0.44874501       0.80128391       0.76888902 </v>
   <v>       0.94874497       0.30128397       0.76888902 </v>
   <v>       0.94874501       0.80128391       0.76888902 </v>
   <v>       0.30127600       0.05129450       0.76887296 </v>
   <v>       0.30127601       0.55129450       0.76887296 </v>
   <v>       0.80127594       0.05129450       0.76887296 </v>
   <v>       0.80127598       0.55129450       0.76887296 </v>
   <v>       0.07877100       0.17118050       0.74344197 </v>
   <v>       0.07877101       0.67118045       0.74344197 </v>
   <v>       0.57877100       0.17118050       0.74344197 </v>
   <v>       0.57877099       0.67118045       0.74344197 </v>
   <v>       0.17119950       0.42117448       0.74342103 </v>
   <v>       0.17119950       0.92117451       0.74342103 </v>
   <v>       0.67119951       0.42117448       0.74342103 </v>
   <v>       0.67119950       0.92117451       0.74342103 </v>
   <v>       0.05125600       0.19871499       0.76888902 </v>
   <v>       0.05125600       0.69871493       0.76888902 </v>
   <v>       0.55125603       0.19871499       0.76888902 </v>
   <v>       0.55125602       0.69871493       0.76888902 </v>
   <v>       0.19872349       0.44870397       0.76887205 </v>
   <v>       0.19872349       0.94870397       0.76887205 </v>
   <v>       0.69872352       0.44870397       0.76887205 </v>
   <v>       0.69872351       0.94870397       0.76887205 </v>
   <v>       0.42123152       0.32881747       0.74344197 </v>
   <v>       0.42123151       0.82881744       0.74344197 </v>
   <v>       0.92123147       0.32881747       0.74344197 </v>
   <v>       0.92123151       0.82881744       0.74344197 </v>
   <v>       0.32880050       0.07882500       0.74342103 </v>
   <v>       0.32880049       0.57882496       0.74342103 </v>
   <v>       0.82880048       0.07882500       0.74342103 </v>
   <v>       0.82880052       0.57882496       0.74342103 </v>
   <v>       0.00000350       0.25000148       0.72582199 </v>
   <v>       0.00000350       0.75000145       0.72582199 </v>
   <v>       0.50000351       0.25000148       0.72582199 </v>
   <v>       0.50000350       0.75000145       0.72582199 </v>
   <v>       0.25000050       0.00000000       0.72580398 </v>
   <v>       0.25000052       0.50000000       0.72580398 </v>
   <v>       0.75000050       0.00000000       0.72580398 </v>
   <v>       0.75000049       0.50000000       0.72580398 </v>
   <v>       0.77776779       0.51211190       0.52150879 </v>
   <v>       0.86829991       0.51296976       0.53459002 </v>
   <v>       0.76355346       0.63025109       0.54047669 </v>
   <v>       0.76883373       0.63148809       0.56811430 </v>
   <v>       0.67941826       0.46201189       0.56102231 </v>
   <v>       0.67605247       0.55628383       0.56770889 </v>
   <v>       0.80798935       0.43100750       0.57347927 </v>
   <v>       0.87309386       0.50200431       0.57396197 </v>
   <v>       0.85839316       0.39075353       0.54411078 </v>
   <v>       0.76172889       0.38304952       0.54015070 </v>
   <v>       0.77301993       0.38984826       0.50266994 </v>
   <v>       0.86363695       0.42633332       0.50370933 </v>
   <v>       0.89286054       0.62818448       0.53449857 </v>
   <v>       0.91371107       0.61224095       0.56134445 </v>
   <v>       0.87217453       0.69735523       0.55276101 </v>
   <v>       0.59337478       0.53068639       0.53679969 </v>
   <v>       0.66563774       0.48467589       0.52258792 </v>
   <v>       0.66917210       0.58298553       0.52697125 </v>
   <v>       0.73277989       0.47966987       0.60052703 </v>
   <v>       0.75314384       0.57059723       0.59266242 </v>
   <v>       0.81689455       0.52342571       0.60779729 </v>
   <v>       0.83631786       0.27100266       0.52001587 </v>
   <v>       0.84344802       0.28724598       0.49236627 </v>
   <v>       0.93727032       0.18258467       0.50358232 </v>
   <v>       0.97419335       0.41775018       0.51431283 </v>
   <v>       0.07180758       0.16301557       0.50484774 </v>
   <v>       0.10426255       0.39726533       0.51661706 </v>
   <v>       0.15926918       0.26894054       0.51190933 </v>
   <v>       0.99415621       0.22987407       0.56039675 </v>
   <v>       0.02407773       0.77147628       0.55807555 </v>
   <v>       0.50485452       0.25197028       0.55946108 </v>
   <v>       0.50716207       0.77152422       0.55821028 </v>
   <v>       0.24833421       0.50227764       0.55616935 </v>
   <v>       0.25991154       0.98992677       0.55805962 </v>
   <v>       0.76246718       0.98962538       0.55893143 </v>
   <v>       0.00263234       0.24691152       0.65040542 </v>
   <v>       0.00948881       0.76520693       0.65175945 </v>
   <v>       0.49989075       0.25419549       0.64837175 </v>
   <v>       0.49615772       0.75123011       0.65059247 </v>
   <v>       0.25260492       0.50000486       0.65014963 </v>
   <v>       0.25156399       0.99969927       0.64901433 </v>
   <v>       0.74045350       0.50018928       0.65226596 </v>
   <v>       0.75215026       0.00257869       0.64958891 </v>
   <v>       0.49998898       0.24999498       0.74327702 </v>
   <v>       0.49998903       0.74999496       0.74327702 </v>
   <v>       0.99998898       0.24999498       0.74327702 </v>
   <v>       0.99998903       0.74999496       0.74327702 </v>
   <v>       0.25000050       0.00000100       0.74325596 </v>
   <v>       0.25000052       0.50000100       0.74325596 </v>
   <v>       0.75000050       0.00000100       0.74325596 </v>
   <v>       0.75000049       0.50000100       0.74325596 </v>
   <v>       0.94390131       0.30328664       0.50860502 </v>
   <v>       0.97484385       0.22989841       0.50561327 </v>
   <v>       0.99193074       0.36130049       0.51131113 </v>
   <v>       0.05068982       0.21871710       0.50673334 </v>
   <v>       0.06982648       0.34906486       0.51266064 </v>
   <v>       0.09877753       0.27819759       0.51057612 </v>
   <v>       0.81146451       0.49053073       0.53484953 </v>
   <v>       0.79550341       0.60913026       0.55392488 </v>
   <v>       0.69457852       0.51762055       0.55528569 </v>
   <v>       0.81339099       0.49088368       0.57454021 </v>
   <v>       0.81298450       0.40846124       0.53420426 </v>
   <v>       0.82611774       0.38303229       0.51092794 </v>
   <v>       0.87268308       0.63705196       0.55092483 </v>
   <v>       0.65388114       0.53007230       0.53404352 </v>
   <v>       0.77735323       0.51677077       0.59498210 </v>
   <v>       0.86016894       0.30797753       0.50808844 </v>
   <v>       0.05591728       0.21060528       0.56980629 </v>
   <v>       0.04801953       0.71035566       0.56717393 </v>
   <v>       0.54840703       0.20306581       0.56851905 </v>
   <v>       0.55860221       0.73055062       0.56706233 </v>
   <v>       0.44797862       0.28205137       0.56822889 </v>
   <v>       0.44262762       0.78579032       0.56573675 </v>
   <v>       0.94070245       0.27101713       0.56829427 </v>
   <v>       0.97314603       0.81436518       0.56659825 </v>
   <v>       0.22973419       0.44635716       0.56895077 </v>
   <v>       0.19503495       0.97408576       0.56660747 </v>
   <v>       0.70903952       0.95055510       0.56752068 </v>
   <v>       0.31192233       0.02861782       0.56747965 </v>
   <v>       0.28472134       0.56062396       0.56221407 </v>
   <v>       0.79431391       0.04705309       0.56802206 </v>
   <v>       0.05352763       0.19904094       0.65768532 </v>
   <v>       0.05065076       0.71279296       0.66146793 </v>
   <v>       0.54289582       0.20092806       0.65733008 </v>
   <v>       0.53222935       0.70621579       0.66371350 </v>
   <v>       0.20815895       0.44966542       0.65960654 </v>
   <v>       0.20230433       0.95499457       0.65842955 </v>
   <v>       0.70258318       0.45464862       0.66387815 </v>
   <v>       0.69936456       0.96109187       0.65907732 </v>
   <v>       0.45161770       0.29375945       0.65849926 </v>
   <v>       0.45090108       0.80321082       0.65597483 </v>
   <v>       0.95794552       0.28688875       0.66222541 </v>
   <v>       0.95684644       0.80364825       0.66113736 </v>
   <v>       0.29902077       0.04660783       0.65856049 </v>
   <v>       0.29363862       0.54831908       0.65946668 </v>
   <v>       0.80120388       0.04379702       0.65878857 </v>
   <v>       0.79041964       0.54783683       0.65924911 </v>
   <v>       0.04586250       0.20411950       0.75272599 </v>
   <v>       0.04586250       0.70411946       0.75272599 </v>
   <v>       0.54586251       0.20411950       0.75272599 </v>
   <v>       0.54586250       0.70411946       0.75272599 </v>
   <v>       0.20411900       0.45410100       0.75270499 </v>
   <v>       0.20411899       0.95410095       0.75270499 </v>
   <v>       0.70411898       0.45410100       0.75270499 </v>
   <v>       0.70411896       0.95410095       0.75270499 </v>
   <v>       0.45414002       0.29588849       0.75272697 </v>
   <v>       0.45414001       0.79588852       0.75272697 </v>
   <v>       0.95414002       0.29588849       0.75272697 </v>
   <v>       0.95414006       0.79588852       0.75272697 </v>
   <v>       0.29588249       0.04590050       0.75270499 </v>
   <v>       0.29588248       0.54590053       0.75270499 </v>
   <v>       0.79588244       0.04590050       0.75270499 </v>
   <v>       0.79588248       0.54590053       0.75270499 </v>
   <v>       0.78053998       0.52646654       0.55505835 </v>
   <v>       0.49760202       0.00227958       0.55215200 </v>
   <v>       0.46689464       0.47979601       0.55570630 </v>
   <v>       0.99059809       0.00737184       0.55108892 </v>
   <v>       0.02808404       0.49321887       0.55876288 </v>
   <v>       0.25512458       0.24640229       0.55462998 </v>
   <v>       0.24471837       0.75971047       0.55160099 </v>
   <v>       0.73776993       0.22782108       0.55533806 </v>
   <v>       0.72046724       0.78009561       0.54588848 </v>
   <v>       0.00585112       0.00050497       0.65446440 </v>
   <v>       0.00172260       0.50413638       0.65670746 </v>
   <v>       0.50149154       0.00191901       0.65430409 </v>
   <v>       0.49916427       0.49864643       0.65504606 </v>
   <v>       0.24956079       0.24734528       0.65520368 </v>
   <v>       0.25071117       0.74963551       0.65451305 </v>
   <v>       0.74229107       0.24795517       0.65529159 </v>
   <v>       0.75149907       0.75968798       0.65312453 </v>
   <v>       0.14705030       0.10160044       0.60836545 </v>
   <v>       0.14987681       0.60556880       0.60854396 </v>
   <v>       0.64040304       0.10547058       0.60877832 </v>
   <v>       0.61464926       0.63667588       0.61488141 </v>
   <v>       0.35888478       0.38840165       0.61153015 </v>
   <v>       0.35949700       0.89236808       0.60801651 </v>
   <v>       0.88521545       0.36745847       0.61494392 </v>
   <v>       0.85687832       0.89500966       0.60696637 </v>
   <v>       0.11287777       0.35537740       0.61010335 </v>
   <v>       0.10921430       0.86182450       0.60700990 </v>
   <v>       0.61560406       0.36658968       0.60706521 </v>
   <v>       0.61157303       0.86429533       0.60985721 </v>
   <v>       0.39490007       0.14129036       0.61002210 </v>
   <v>       0.38668170       0.64548866       0.60601965 </v>
   <v>       0.88976032       0.13447451       0.61080570 </v>
   <v>       0.91296123       0.66372261       0.61410549 </v>
   <v>       0.00000000       0.00000000       0.75492797 </v>
   <v>       0.00000000       0.50000000       0.75492797 </v>
   <v>       0.50000000       0.00000000       0.75492797 </v>
   <v>       0.49999999       0.50000000       0.75492797 </v>
   <v>       0.25000050       0.25000000       0.75493902 </v>
   <v>       0.25000051       0.74999997       0.75493902 </v>
   <v>       0.75000047       0.25000000       0.75493902 </v>
   <v>       0.75000046       0.74999997       0.75493902 </v>
   <v>       0.13579050       0.11421000       0.70478299 </v>
   <v>       0.13579050       0.61420998       0.70478299 </v>
   <v>       0.63579045       0.11421000       0.70478299 </v>
   <v>       0.63579049       0.61420998       0.70478299 </v>
   <v>       0.36420952       0.38578999       0.70478299 </v>
   <v>       0.36420950       0.88578996       0.70478299 </v>
   <v>       0.86420954       0.38578999       0.70478299 </v>
   <v>       0.86420953       0.88578996       0.70478299 </v>
   <v>       0.11421799       0.36421899       0.70478098 </v>
   <v>       0.11421799       0.86421899       0.70478098 </v>
   <v>       0.61421800       0.36421899       0.70478098 </v>
   <v>       0.61421799       0.86421899       0.70478098 </v>
   <v>       0.38578201       0.13578149       0.70478202 </v>
   <v>       0.38578200       0.63578149       0.70478202 </v>
   <v>       0.88578199       0.13578149       0.70478202 </v>
   <v>       0.88578203       0.63578149       0.70478202 </v>
   <v>       0.13466700       0.11533200       0.80125603 </v>
   <v>       0.13466699       0.61533199       0.80125603 </v>
   <v>       0.63466699       0.11533200       0.80125603 </v>
   <v>       0.63466698       0.61533199       0.80125603 </v>
   <v>       0.36533300       0.38466799       0.80125603 </v>
   <v>       0.36533299       0.88466796       0.80125603 </v>
   <v>       0.86533295       0.38466799       0.80125603 </v>
   <v>       0.86533294       0.88466796       0.80125603 </v>
   <v>       0.11532850       0.36533700       0.80126500 </v>
   <v>       0.11532850       0.86533698       0.80126500 </v>
   <v>       0.61532850       0.36533700       0.80126500 </v>
   <v>       0.61532849       0.86533698       0.80126500 </v>
   <v>       0.38467151       0.13466300       0.80126500 </v>
   <v>       0.38467150       0.63466297       0.80126500 </v>
   <v>       0.88467149       0.13466300       0.80126500 </v>
   <v>       0.88467153       0.63466297       0.80126500 </v>
   <v>       0.99911319       0.00400359       0.60242518 </v>
   <v>       0.00975951       0.50435507       0.60770059 </v>
   <v>       0.50202789       0.99988579       0.60245631 </v>
   <v>       0.49845796       0.49705088       0.60396138 </v>
   <v>       0.25516196       0.24813447       0.60408622 </v>
   <v>       0.24925050       0.75586305       0.60297332 </v>
   <v>       0.74882787       0.25002701       0.60560703 </v>
   <v>       0.74899063       0.75671927       0.60471562 </v>
   <v>       0.00000050       0.00000050       0.70482896 </v>
   <v>       0.00000050       0.50000048       0.70482896 </v>
   <v>       0.50000048       0.00000050       0.70482896 </v>
   <v>       0.50000046       0.50000048       0.70482896 </v>
   <v>       0.24999999       0.24999947       0.70482499 </v>
   <v>       0.25000001       0.74999950       0.70482499 </v>
   <v>       0.74999999       0.24999947       0.70482499 </v>
   <v>       0.74999998       0.74999950       0.70482499 </v>
   <v>       0.00000000       0.00000000       0.80731797 </v>
   <v>       0.00000000       0.50000000       0.80731797 </v>
   <v>       0.50000000       0.00000000       0.80731797 </v>
   <v>       0.49999999       0.50000000       0.80731797 </v>
   <v>       0.24999999       0.25000000       0.80731797 </v>
   <v>       0.25000001       0.74999997       0.80731797 </v>
   <v>       0.74999999       0.25000000       0.80731797 </v>
   <v>       0.74999998       0.74999997       0.80731797 </v>
  </varray>
 </structure>
</modeling>
