 vasp.6.2.1 16May21 (build Nov 15 2021 14:57:28) complex                         
 executed on             LinuxPGI date 2023.07.30  17:26:07
 running on    4 total cores
 distrk:  each k-point on    4 cores,    1 groups
 distr:  one band on NCORE=   1 cores,    4 groups


--------------------------------------------------------------------------------------------------------


 INCAR:
   SYSTEM = PSC
   ISTART = 1
   ICHARG = 1
   PREC = Normal
   ENCUT = 500
   GGA_COMPAT = F
   NELM = 600
   ISYM = 0
   LREAL = Auto
   ISMEAR = 0
   SIGMA = 0.05
   AMIN = 0.01
   BMIX = 0.01
   LVTOT = T
   LWAVE = F
   LDIPOL = T
   IDIPOL = 3
   LVDW = T
   IVDW = 12

 POTCAR:    PAW_PBE H 15Jun2001                   
 POTCAR:    PAW_PBE C 08Apr2002                   
 POTCAR:    PAW_PBE N 08Apr2002                   
 POTCAR:    PAW_PBE I 08Apr2002                   
 POTCAR:    PAW_PBE Pb 08Apr2002                  
 WARNING: For LVTOT=.TRUE., VASP.5.x writes the TOTAL local potential to the
     file LOCPOT. If you want only the Hartree contributions, use LVHAR=.TRUE.
     instead. 

 POTCAR:    PAW_PBE H 15Jun2001                   
   SHA256 =  030f79b5d3ab3cf0e668861823c8fb652ff669f3e15e46930bd03bfd63a607b6 H/POTCAR              
   COPYR  = (c) Copyright 15Jun2001 Georg Kresse                                                    
   COPYR  = This file is part of the software VASP. Any use, copying, and all other rights are regul
   COPYR  = If you do not have a valid VASP license, you may not use, copy or distribute this file. 
   VRHFIN =H: ultrasoft test                                                                        
   LEXCH  = PE                                                                                      
   EATOM  =    12.4884 eV,    0.9179 Ry                                                             
                                                                                                    
   TITEL  = PAW_PBE H 15Jun2001                                                                     
   LULTRA =        F    use ultrasoft PP ?                                                          
   IUNSCR =        0    unscreen: 0-lin 1-nonlin 2-no                                               
   RPACOR =    0.000    partial core radius                                                         
   POMASS =    1.000; ZVAL   =    1.000    mass and valenz                                          
   RCORE  =    1.100    outmost cutoff radius                                                       
   RWIGS  =    0.700; RWIGS  =    0.370    wigner-seitz radius (au A)                               
   ENMAX  =  250.000; ENMIN  =  200.000 eV                                                          
   RCLOC  =    0.701    cutoff for local pot                                                        
   LCOR   =        T    correct aug charges                                                         
   LPAW   =        T    paw PP                                                                      
   EAUG   =  400.000                                                                                
   RMAX   =    1.123    core radius for proj-oper                                                   
   RAUG   =    1.200    factor for augmentation sphere                                              
   RDEP   =    1.112    radius for radial grids                                                     
   RDEPT  =    0.926    core radius for aug-charge                                                  
                                                                                                    
   Atomic configuration                                                                             
    2 entries                                                                                       
     n  l   j            E        occ.                                                              
     1  0  0.50        -6.4927   1.0000                                                             
     2  1  0.50        -3.4015   0.0000                                                             
   Description                                                                                      
     l       E           TYP  RCUT    TYP  RCUT                                                     
     0     -6.4927494     23  1.100                                                                 
     0      6.8029130     23  1.100                                                                 
     1     -4.0817478     23  1.100                                                                 
  local pseudopotential read in
  atomic valenz-charges read in
  non local Contribution for L=            0  read in
    real space projection operators read in
  non local Contribution for L=            0  read in
    real space projection operators read in
  non local Contribution for L=            1  read in
    real space projection operators read in
    PAW grid and wavefunctions read in
 
   number of l-projection  operators is LMAX  =            3
   number of lm-projection operators is LMMAX =            5
 
 POTCAR:    PAW_PBE C 08Apr2002                   
   SHA256 =  253f7b50bb8d59471dbedb8285d89021f4a42ed1a2c5d38a03a736e69125dd95 C/POTCAR              
   COPYR  = (c) Copyright 08Apr2002 Georg Kresse                                                    
   COPYR  = This file is part of the software VASP. Any use, copying, and all other rights are regul
   COPYR  = If you do not have a valid VASP license, you may not use, copy or distribute this file. 
   VRHFIN =C: s2p2                                                                                  
   LEXCH  = PE                                                                                      
   EATOM  =   147.1560 eV,   10.8157 Ry                                                             
                                                                                                    
   TITEL  = PAW_PBE C 08Apr2002                                                                     
   LULTRA =        F    use ultrasoft PP ?                                                          
   IUNSCR =        1    unscreen: 0-lin 1-nonlin 2-no                                               
   RPACOR =    1.200    partial core radius                                                         
   POMASS =   12.011; ZVAL   =    4.000    mass and valenz                                          
   RCORE  =    1.500    outmost cutoff radius                                                       
   RWIGS  =    1.630; RWIGS  =    0.863    wigner-seitz radius (au A)                               
   ENMAX  =  400.000; ENMIN  =  300.000 eV                                                          
   ICORE  =        2    local potential                                                             
   LCOR   =        T    correct aug charges                                                         
   LPAW   =        T    paw PP                                                                      
   EAUG   =  644.873                                                                                
   DEXC   =    0.000                                                                                
   RMAX   =    1.529    core radius for proj-oper                                                   
   RAUG   =    1.300    factor for augmentation sphere                                              
   RDEP   =    1.501    radius for radial grids                                                     
   RDEPT  =    1.300    core radius for aug-charge                                                  
                                                                                                    
   Atomic configuration                                                                             
    4 entries                                                                                       
     n  l   j            E        occ.                                                              
     1  0  0.50      -273.3789   2.0000                                                             
     2  0  0.50       -13.7508   2.0000                                                             
     2  1  0.50        -5.2854   2.0000                                                             
     3  2  1.50        -5.4423   0.0000                                                             
   Description                                                                                      
     l       E           TYP  RCUT    TYP  RCUT                                                     
     0    -13.7508458     23  1.200                                                                 
     0     -8.2022199     23  1.200                                                                 
     1     -5.2854383     23  1.500                                                                 
     1     34.0145650     23  1.500                                                                 
     2     -5.4423304      7  1.500                                                                 
  local pseudopotential read in
  partial core-charges read in
  partial kinetic energy density read in
  atomic valenz-charges read in
  non local Contribution for L=            0  read in
    real space projection operators read in
  non local Contribution for L=            0  read in
    real space projection operators read in
  non local Contribution for L=            1  read in
    real space projection operators read in
  non local Contribution for L=            1  read in
    real space projection operators read in
    PAW grid and wavefunctions read in
 
   number of l-projection  operators is LMAX  =            4
   number of lm-projection operators is LMMAX =            8
 
 POTCAR:    PAW_PBE N 08Apr2002                   
   SHA256 =  e053789ff3a61a86a1b75d8a110fcc91f86041011e7b0817c7c99e4e8a6349d7 N/POTCAR              
   COPYR  = (c) Copyright 08Apr2002 Georg Kresse                                                    
   COPYR  = This file is part of the software VASP. Any use, copying, and all other rights are regul
   COPYR  = If you do not have a valid VASP license, you may not use, copy or distribute this file. 
   VRHFIN =N: s2p3                                                                                  
   LEXCH  = PE                                                                                      
   EATOM  =   264.5486 eV,   19.4438 Ry                                                             
                                                                                                    
   TITEL  = PAW_PBE N 08Apr2002                                                                     
   LULTRA =        F    use ultrasoft PP ?                                                          
   IUNSCR =        1    unscreen: 0-lin 1-nonlin 2-no                                               
   RPACOR =    1.200    partial core radius                                                         
   POMASS =   14.001; ZVAL   =    5.000    mass and valenz                                          
   RCORE  =    1.500    outmost cutoff radius                                                       
   RWIGS  =    1.400; RWIGS  =    0.741    wigner-seitz radius (au A)                               
   ENMAX  =  400.000; ENMIN  =  300.000 eV                                                          
   ICORE  =        2    local potential                                                             
   LCOR   =        T    correct aug charges                                                         
   LPAW   =        T    paw PP                                                                      
   EAUG   =  627.112                                                                                
   DEXC   =    0.000                                                                                
   RMAX   =    1.529    core radius for proj-oper                                                   
   RAUG   =    1.300    factor for augmentation sphere                                              
   RDEP   =    1.514    radius for radial grids                                                     
   RDEPT  =    1.338    core radius for aug-charge                                                  
                                                                                                    
   Atomic configuration                                                                             
    4 entries                                                                                       
     n  l   j            E        occ.                                                              
     1  0  0.50      -384.7179   2.0000                                                             
     2  0  0.50       -18.5828   2.0000                                                             
     2  1  0.50        -7.0898   3.0000                                                             
     3  2  1.50        -6.8029   0.0000                                                             
   Description                                                                                      
     l       E           TYP  RCUT    TYP  RCUT                                                     
     0    -18.5828119     23  1.200                                                                 
     0    -13.5018863     23  1.200                                                                 
     1     -7.0897853     23  1.500                                                                 
     1      9.5240782     23  1.500                                                                 
     2     -6.8029130      7  1.500                                                                 
  local pseudopotential read in
  partial core-charges read in
  partial kinetic energy density read in
  atomic valenz-charges read in
  non local Contribution for L=            0  read in
    real space projection operators read in
  non local Contribution for L=            0  read in
    real space projection operators read in
  non local Contribution for L=            1  read in
    real space projection operators read in
  non local Contribution for L=            1  read in
    real space projection operators read in
    PAW grid and wavefunctions read in
 
   number of l-projection  operators is LMAX  =            4
   number of lm-projection operators is LMMAX =            8
 
 POTCAR:    PAW_PBE I 08Apr2002                   
   SHA256 =  e40f3f59b681c1fc3e3091736183c4589116986673d2b852a5012aec72758799 I/POTCAR              
   COPYR  = (c) Copyright 08Apr2002 Georg Kresse                                                    
   COPYR  = This file is part of the software VASP. Any use, copying, and all other rights are regul
   COPYR  = If you do not have a valid VASP license, you may not use, copy or distribute this file. 
   VRHFIN =I : s2p5                                                                                 
   LEXCH  = PE                                                                                      
   EATOM  =   315.8678 eV,   23.2156 Ry                                                             
                                                                                                    
   TITEL  = PAW_PBE I 08Apr2002                                                                     
   LULTRA =        F    use ultrasoft PP ?                                                          
   IUNSCR =        1    unscreen: 0-lin 1-nonlin 2-no                                               
   RPACOR =    2.200    partial core radius                                                         
   POMASS =  126.904; ZVAL   =    7.000    mass and valenz                                          
   RCORE  =    2.300    outmost cutoff radius                                                       
   RWIGS  =    2.810; RWIGS  =    1.487    wigner-seitz radius (au A)                               
   ENMAX  =  175.647; ENMIN  =  131.735 eV                                                          
   ICORE  =        3    local potential                                                             
   LCOR   =        T    correct aug charges                                                         
   LPAW   =        T    paw PP                                                                      
   EAUG   =  370.139                                                                                
   DEXC   =    0.000                                                                                
   RMAX   =    2.359    core radius for proj-oper                                                   
   RAUG   =    1.300    factor for augmentation sphere                                              
   RDEP   =    2.392    radius for radial grids                                                     
   RDEPT  =    2.170    core radius for aug-charge                                                  
                                                                                                    
   Atomic configuration                                                                             
   13 entries                                                                                       
     n  l   j            E        occ.                                                              
     1  0  0.50    -32976.3739   2.0000                                                             
     2  0  0.50     -5094.5933   2.0000                                                             
     2  1  1.50     -4572.0131   6.0000                                                             
     3  0  0.50     -1028.2813   2.0000                                                             
     3  1  1.50      -859.0250   6.0000                                                             
     3  2  2.50      -605.7620  10.0000                                                             
     4  0  0.50      -180.5540   2.0000                                                             
     4  1  1.50      -127.5306   6.0000                                                             
     4  2  2.50       -50.2720  10.0000                                                             
     5  0  0.50       -17.4058   2.0000                                                             
     5  1  0.50        -7.0851   5.0000                                                             
     5  2  1.50        -7.0750   0.0000                                                             
     4  3  2.50        -7.0750   0.0000                                                             
   Description                                                                                      
     l       E           TYP  RCUT    TYP  RCUT                                                     
     0    -17.4058016     23  2.300                                                                 
     0    -18.7663842     23  2.300                                                                 
     1     -7.0850686     23  2.300                                                                 
     1     -4.2150896     23  2.300                                                                 
     2     -7.0750295     23  2.300                                                                 
     3     -1.3605826     23  2.300                                                                 
  local pseudopotential read in
  partial core-charges read in
  partial kinetic energy density read in
  atomic valenz-charges read in
  non local Contribution for L=            0  read in
    real space projection operators read in
  non local Contribution for L=            0  read in
    real space projection operators read in
  non local Contribution for L=            1  read in
    real space projection operators read in
  non local Contribution for L=            1  read in
    real space projection operators read in
  non local Contribution for L=            2  read in
    real space projection operators read in
    PAW grid and wavefunctions read in
 
   number of l-projection  operators is LMAX  =            5
   number of lm-projection operators is LMMAX =           13
 
 POTCAR:    PAW_PBE Pb 08Apr2002                  
   SHA256 =  797118a27cf1bcd06b9881c67a26cdde129e3cd1a551dd4a281f9681ce847303 Pb/POTCAR             
   COPYR  = (c) Copyright 08Apr2002 Georg Kresse                                                    
   COPYR  = This file is part of the software VASP. Any use, copying, and all other rights are regul
   COPYR  = If you do not have a valid VASP license, you may not use, copy or distribute this file. 
   VRHFIN =Pb:                                                                                      
   LEXCH  = PE                                                                                      
   EATOM  =    96.9868 eV,    7.1283 Ry                                                             
                                                                                                    
   TITEL  = PAW_PBE Pb 08Apr2002                                                                    
   LULTRA =        F    use ultrasoft PP ?                                                          
   IUNSCR =        1    unscreen: 0-lin 1-nonlin 2-no                                               
   RPACOR =    2.200    partial core radius                                                         
   POMASS =  207.200; ZVAL   =    4.000    mass and valenz                                          
   RCORE  =    3.100    outmost cutoff radius                                                       
   RWIGS  =    3.260; RWIGS  =    1.725    wigner-seitz radius (au A)                               
   ENMAX  =   97.973; ENMIN  =   73.480 eV                                                          
   ICORE  =        3    local potential                                                             
   LCOR   =        T    correct aug charges                                                         
   LPAW   =        T    paw PP                                                                      
   EAUG   =  234.873                                                                                
   DEXC   =    0.000                                                                                
   RMAX   =    3.158    core radius for proj-oper                                                   
   RAUG   =    1.300    factor for augmentation sphere                                              
   RDEP   =    3.202    radius for radial grids                                                     
   RDEPT  =    2.659    core radius for aug-charge                                                  
                                                                                                    
   Atomic configuration                                                                             
   17 entries                                                                                       
     n  l   j            E        occ.                                                              
     1  0  0.50    -88091.8466   2.0000                                                             
     2  0  0.50    -15753.4197   2.0000                                                             
     2  1  1.50    -13508.1797   6.0000                                                             
     3  0  0.50     -3781.7194   2.0000                                                             
     3  1  1.50     -3138.2529   6.0000                                                             
     3  2  2.50     -2483.2977  10.0000                                                             
     4  0  0.50      -856.2895   2.0000                                                             
     4  1  1.50      -645.4943   6.0000                                                             
     4  2  2.50      -401.8768  10.0000                                                             
     4  3  3.50      -132.9059  14.0000                                                             
     5  0  0.50      -144.0950   2.0000                                                             
     5  1  1.50       -85.7879   6.0000                                                             
     5  2  2.50       -21.1769  10.0000                                                             
     6  0  0.50       -12.0372   2.0000                                                             
     6  1  1.50        -3.4971   2.0000                                                             
     6  2  2.50        -1.3606   0.0000                                                             
     5  3  2.50        -2.7212   0.0000                                                             
   Description                                                                                      
     l       E           TYP  RCUT    TYP  RCUT                                                     
     0    -12.0371566     23  3.100                                                                 
     0    -13.3977392     23  3.100                                                                 
     1     -3.4971341     23  3.100                                                                 
     1     -5.4423304     23  3.100                                                                 
     2     -1.3605826     23  3.100                                                                 
     3     -1.3605826     23  3.100                                                                 
  local pseudopotential read in
  partial core-charges read in
  partial kinetic energy density read in
  atomic valenz-charges read in
  non local Contribution for L=            0  read in
    real space projection operators read in
  non local Contribution for L=            0  read in
    real space projection operators read in
  non local Contribution for L=            1  read in
    real space projection operators read in
  non local Contribution for L=            1  read in
    real space projection operators read in
  non local Contribution for L=            2  read in
    real space projection operators read in
    PAW grid and wavefunctions read in
 
   number of l-projection  operators is LMAX  =            5
   number of lm-projection operators is LMMAX =           13
 
 Optimization of the real space projectors (new method)

 maximal supplied QI-value         = 34.20
 optimisation between [QCUT,QGAM] = [ 11.29, 22.57] = [ 35.68,142.71] Ry 
 Optimized for a Real-space Cutoff    1.16 Angstroem

   l    n(q)    QCUT    max X(q) W(low)/X(q) W(high)/X(q)  e(spline) 
   0      8    11.287    19.460    0.40E-03    0.73E-03    0.16E-06
   0      8    11.287    12.209    0.38E-03    0.70E-03    0.15E-06
   1      7    11.287     4.655    0.22E-03    0.25E-04    0.22E-06
 Optimization of the real space projectors (new method)

 maximal supplied QI-value         = 25.13
 optimisation between [QCUT,QGAM] = [ 11.31, 22.87] = [ 35.82,146.48] Ry 
 Optimized for a Real-space Cutoff    1.00 Angstroem

   l    n(q)    QCUT    max X(q) W(low)/X(q) W(high)/X(q)  e(spline) 
   0      7    11.310   115.676    0.43E-03    0.13E-02    0.19E-06
   0      7    11.310    87.132    0.43E-03    0.13E-02    0.18E-06
   1      6    11.310     4.429    0.42E-03    0.74E-03    0.11E-06
   1      6    11.310     2.733    0.34E-03    0.55E-03    0.92E-07
 Optimization of the real space projectors (new method)

 maximal supplied QI-value         = 25.13
 optimisation between [QCUT,QGAM] = [ 11.31, 22.87] = [ 35.82,146.48] Ry 
 Optimized for a Real-space Cutoff    1.27 Angstroem

   l    n(q)    QCUT    max X(q) W(low)/X(q) W(high)/X(q)  e(spline) 
   0      9    11.310    79.467    0.75E-04    0.16E-03    0.36E-06
   0      9    11.310    66.151    0.74E-04    0.16E-03    0.36E-06
   1      8    11.310    17.416    0.35E-03    0.12E-03    0.95E-06
   1      8    11.310    12.382    0.37E-03    0.13E-03    0.98E-06
 Optimization of the real space projectors (new method)

 maximal supplied QI-value         = 16.25
 optimisation between [QCUT,QGAM] = [ 11.38, 22.75] = [ 36.24,144.96] Ry 
 Optimized for a Real-space Cutoff    1.31 Angstroem

   l    n(q)    QCUT    max X(q) W(low)/X(q) W(high)/X(q)  e(spline) 
   0      9    11.376   194.483    0.24E-03    0.23E-03    0.67E-07
   0      9    11.376   190.334    0.23E-03    0.22E-03    0.65E-07
   1      8    11.376   116.687    0.25E-03    0.63E-04    0.16E-06
   1      8    11.376    88.696    0.25E-03    0.61E-04    0.16E-06
   2      8    11.376     4.877    0.17E-03    0.14E-03    0.29E-07
 Optimization of the real space projectors (new method)

 maximal supplied QI-value         = 12.09
 optimisation between [QCUT,QGAM] = [ 11.37, 22.86] = [ 36.19,146.31] Ry 
 Optimized for a Real-space Cutoff    1.66 Angstroem

   l    n(q)    QCUT    max X(q) W(low)/X(q) W(high)/X(q)  e(spline) 
   0     11    11.369   135.111    0.12E-03    0.69E-04    0.19E-05
   0     11    11.369   146.850    0.11E-03    0.65E-04    0.18E-05
   1     11    11.369   148.016    0.17E-03    0.32E-03    0.89E-06
   1     11    11.369   122.989    0.17E-03    0.32E-03    0.91E-06
   2     10    11.369     8.916    0.12E-03    0.45E-04    0.33E-06
  PAW_PBE H 15Jun2001                   :
 energy of atom  1       EATOM=  -12.4884
 kinetic energy error for atom=    0.0020 (will be added to EATOM!!)
  PAW_PBE C 08Apr2002                   :
 energy of atom  2       EATOM= -147.1560
 kinetic energy error for atom=    0.0076 (will be added to EATOM!!)
  PAW_PBE N 08Apr2002                   :
 energy of atom  3       EATOM= -264.5486
 kinetic energy error for atom=    0.0138 (will be added to EATOM!!)
  PAW_PBE I 08Apr2002                   :
 energy of atom  4       EATOM= -315.8678
 kinetic energy error for atom=    0.0009 (will be added to EATOM!!)
  PAW_PBE Pb 08Apr2002                  :
 energy of atom  5       EATOM=  -96.9868
 kinetic energy error for atom=    0.0000 (will be added to EATOM!!)
 
 
 POSCAR:  H  C  N  I Pb
  positions in cartesian coordinates
  No initial velocities read in
 exchange correlation table for  LEXCH =        8
   RHO(1)=    0.500       N(1)  =     2000
   RHO(2)=  100.500       N(2)  =     4000
 


--------------------------------------------------------------------------------------------------------


 ion  position               nearest neighbor table
   1  0.447  0.301  0.582- 187 1.03
   2  0.444  0.834  0.579- 188 1.07
   3  0.952  0.267  0.586- 189 1.02
   4  0.969  0.806  0.586- 190 1.00
   5  0.300  0.044  0.583- 194 1.02
   6  0.304  0.552  0.583- 195 1.01
   7  0.775  0.067  0.582- 196 1.01
   8  0.104  0.195  0.554- 183 1.05
   9  0.083  0.679  0.557- 184 1.00
  10  0.580  0.178  0.558- 185 1.02
  11  0.535  0.657  0.566- 186 1.04
  12  0.356  0.045  0.560- 194 1.05
  13  0.310  0.599  0.559- 195 1.04
  14  0.836  0.075  0.560- 196 1.04
  15  0.074  0.203  0.581- 183 1.04
  16  0.045  0.692  0.582- 184 1.04
  17  0.562  0.225  0.581- 185 1.01
  18  0.506  0.711  0.587- 186 1.02
  19  0.224  0.437  0.583- 191 1.02
  20  0.180  0.975  0.581- 192 1.01
  21  0.688  0.962  0.581- 193 1.02
  22  0.388  0.295  0.560- 187 1.02
  23  0.441  0.856  0.552- 188 1.00
  24  0.905  0.290  0.563- 189 1.01
  25  0.957  0.862  0.564- 190 1.01
  26  0.184  0.412  0.558- 191 1.03
  27  0.158  0.937  0.556- 192 1.04
  28  0.692  0.900  0.559- 193 1.07
  29  0.470  0.216  0.542- 146 1.09
  30  0.500  0.748  0.540- 147 1.12
  31  0.997  0.250  0.540- 144 1.10
  32  0.031  0.786  0.543- 145 1.10
  33  0.235  0.514  0.540- 148 1.10
  34  0.270  0.978  0.540- 149 1.10
  35  0.784  0.968  0.543- 150 1.10
  36  0.453  0.307  0.676- 205 1.05
  37  0.440  0.814  0.674- 206 1.06
  38  0.954  0.288  0.678- 207 1.03
  39  0.942  0.806  0.675- 208 1.01
  40  0.303  0.049  0.675- 209 1.05
  41  0.295  0.553  0.677- 210 1.06
  42  0.810  0.049  0.675- 211 1.06
  43  0.833  0.538  0.673- 212 1.05
  44  0.085  0.172  0.648- 197 1.00
  45  0.089  0.685  0.654- 198 0.99
  46  0.571  0.164  0.651- 199 0.99
  47  0.569  0.668  0.657- 200 1.03
  48  0.186  0.411  0.648- 201 1.01
  49  0.170  0.920  0.651- 202 0.98
  50  0.660  0.443  0.654- 203 1.04
  51  0.665  0.934  0.651- 204 0.98
  52  0.063  0.191  0.674- 197 1.02
  53  0.044  0.703  0.678- 198 1.01
  54  0.555  0.201  0.676- 199 1.01
  55  0.537  0.706  0.681- 200 1.05
  56  0.205  0.438  0.674- 201 1.06
  57  0.200  0.948  0.676- 202 1.06
  58  0.719  0.446  0.677- 203 1.04
  59  0.697  0.959  0.676- 204 1.05
  60  0.416  0.324  0.651- 205 1.01
  61  0.424  0.835  0.648- 206 1.01
  62  0.920  0.320  0.654- 207 1.02
  63  0.929  0.840  0.650- 208 1.02
  64  0.329  0.075  0.649- 209 1.01
  65  0.326  0.587  0.652- 210 1.04
  66  0.839  0.074  0.650- 211 1.02
  67  0.839  0.578  0.648- 212 1.04
  68  0.996  0.252  0.634- 151 1.07
  69  0.023  0.770  0.635- 152 1.06
  70  0.484  0.236  0.633- 153 1.07
  71  0.505  0.744  0.635- 154 1.07
  72  0.248  0.996  0.632- 156 1.08
  73  0.258  0.502  0.632- 155 1.08
  74  0.751  0.002  0.632- 158 1.08
  75  0.733  0.524  0.635- 157 1.09
  76  0.449  0.301  0.769- 221 1.02
  77  0.449  0.801  0.769- 222 1.02
  78  0.949  0.301  0.769- 223 1.02
  79  0.949  0.801  0.769- 224 1.02
  80  0.301  0.051  0.769- 225 1.02
  81  0.301  0.551  0.769- 226 1.02
  82  0.801  0.051  0.769- 227 1.02
  83  0.801  0.551  0.769- 228 1.02
  84  0.079  0.171  0.743- 213 1.02
  85  0.079  0.671  0.743- 214 1.02
  86  0.579  0.171  0.743- 215 1.02
  87  0.579  0.671  0.743- 216 1.02
  88  0.171  0.421  0.743- 217 1.02
  89  0.171  0.921  0.743- 218 1.02
  90  0.671  0.421  0.743- 219 1.02
  91  0.671  0.921  0.743- 220 1.02
  92  0.051  0.199  0.769- 213 1.02
  93  0.051  0.699  0.769- 214 1.02
  94  0.551  0.199  0.769- 215 1.02
  95  0.551  0.699  0.769- 216 1.02
  96  0.199  0.449  0.769- 217 1.02
  97  0.199  0.949  0.769- 218 1.02
  98  0.699  0.449  0.769- 219 1.02
  99  0.699  0.949  0.769- 220 1.02
 100  0.421  0.329  0.743- 221 1.02
 101  0.421  0.829  0.743- 222 1.02
 102  0.921  0.329  0.743- 223 1.02
 103  0.921  0.829  0.743- 224 1.02
 104  0.329  0.079  0.743- 225 1.02
 105  0.329  0.579  0.743- 226 1.02
 106  0.829  0.079  0.743- 227 1.02
 107  0.829  0.579  0.743- 228 1.02
 108  0.000  0.250  0.726- 161 1.09
 109  0.000  0.750  0.726- 162 1.09
 110  0.500  0.250  0.726- 159 1.09
 111  0.500  0.750  0.726- 160 1.09
 112  0.250  0.000  0.726- 163 1.09
 113  0.250  0.500  0.726- 164 1.09
 114  0.750  0.000  0.726- 165 1.09
 115  0.750  0.500  0.726- 166 1.09
 116  0.718  0.448  0.545- 173 1.09
 117  0.740  0.508  0.524- 173 1.07
 118  0.649  0.541  0.561- 174 1.11
 119  0.684  0.635  0.563- 174 1.09
 120  0.835  0.510  0.578- 175 1.10
 121  0.773  0.575  0.587- 175 1.09
 122  0.868  0.560  0.541- 176 1.09
 123  0.806  0.620  0.528- 176 1.13
 124  0.869  0.481  0.525- 177 1.10
 125  0.864  0.446  0.551- 177 1.09
 126  0.887  0.351  0.526- 178 1.11
 127  0.798  0.336  0.537- 178 1.09
 128  0.618  0.550  0.527- 179 1.10
 129  0.690  0.613  0.519- 179 1.09
 130  0.611  0.646  0.532- 179 1.11
 131  0.733  0.452  0.602- 180 1.09
 132  0.742  0.411  0.577- 180 1.08
 133  0.669  0.472  0.582- 180 1.08
 134  0.836  0.677  0.572- 181 1.09
 135  0.875  0.707  0.547- 181 1.09
 136  0.919  0.636  0.563- 181 1.09
 137  0.838  0.400  0.493- 182 1.12
 138  0.803  0.309  0.499- 182 1.12
 139  0.670  0.317  0.523- 168 1.09
 140  0.752  0.486  0.480- 169 1.11
 141  0.541  0.366  0.519- 170 1.09
 142  0.623  0.537  0.476- 171 1.12
 143  0.517  0.479  0.497- 172 1.13
 144  0.003  0.244  0.558-  31 1.10 189 1.29 183 1.30
 145  0.020  0.772  0.559-  32 1.10 190 1.31 184 1.31
 146  0.483  0.236  0.558-  29 1.09 187 1.30 185 1.31
 147  0.490  0.758  0.558-  30 1.12 188 1.29 186 1.31
 148  0.246  0.505  0.558-  33 1.10 191 1.30 195 1.33
 149  0.258  0.991  0.557-  34 1.10 194 1.29 192 1.34
 150  0.763  0.987  0.559-  35 1.10 193 1.29 196 1.33
 151  0.002  0.246  0.650-  68 1.07 207 1.31 197 1.34
 152  0.010  0.763  0.651-  69 1.06 208 1.33 198 1.34
 153  0.492  0.244  0.650-  70 1.07 205 1.29 199 1.34
 154  0.497  0.752  0.652-  71 1.07 206 1.28 200 1.33
 155  0.256  0.499  0.649-  73 1.08 210 1.30 201 1.31
 156  0.250  0.998  0.649-  72 1.08 209 1.28 202 1.35
 157  0.751  0.512  0.651-  75 1.09 212 1.29 203 1.34
 158  0.752  0.004  0.650-  74 1.08 211 1.28 204 1.35
 159  0.500  0.250  0.743- 110 1.09 221 1.31 215 1.31
 160  0.500  0.750  0.743- 111 1.09 222 1.31 216 1.31
 161  1.000  0.250  0.743- 108 1.09 223 1.31 213 1.31
 162  1.000  0.750  0.743- 109 1.09 224 1.31 214 1.31
 163  0.250  0.000  0.743- 112 1.09 225 1.31 218 1.31
 164  0.250  0.500  0.743- 113 1.09 226 1.31 217 1.31
 165  0.750  0.000  0.743- 114 1.09 227 1.31 220 1.31
 166  0.750  0.500  0.743- 115 1.09 228 1.31 219 1.31
 167  0.719  0.396  0.502- 168 1.43 169 1.44 182 1.53
 168  0.658  0.364  0.512- 139 1.09 170 1.39 167 1.43
 169  0.705  0.459  0.488- 140 1.11 171 1.42 167 1.44
 170  0.587  0.392  0.510- 141 1.09 168 1.39 172 1.40
 171  0.632  0.487  0.487- 142 1.12 172 1.37 169 1.42
 172  0.574  0.454  0.497- 143 1.13 171 1.37 170 1.40
 173  0.760  0.484  0.539- 117 1.07 116 1.09 177 1.47 229 1.57
 174  0.684  0.585  0.553- 119 1.09 118 1.11 179 1.53 229 1.54
 175  0.777  0.526  0.577- 121 1.09 120 1.10 180 1.52 229 1.53
 176  0.825  0.600  0.545- 122 1.09 123 1.13 181 1.52 229 1.54
 177  0.833  0.450  0.536- 125 1.09 124 1.10 173 1.47 178 1.49
 178  0.830  0.373  0.527- 127 1.09 126 1.11 177 1.49 182 1.54
 179  0.650  0.599  0.531- 129 1.09 128 1.10 130 1.11 174 1.53
 180  0.728  0.463  0.584- 133 1.08 132 1.08 131 1.09 175 1.52
 181  0.865  0.659  0.558- 134 1.09 135 1.09 136 1.09 176 1.52
 182  0.799  0.369  0.504- 138 1.12 137 1.12 167 1.53 178 1.54
 183  0.063  0.213  0.565-  15 1.04   8 1.05 144 1.30
 184  0.051  0.710  0.566-   9 1.00  16 1.04 145 1.31
 185  0.544  0.210  0.566-  17 1.01  10 1.02 146 1.31
 186  0.515  0.708  0.571-  18 1.02  11 1.04 147 1.31
 187  0.438  0.281  0.567-  22 1.02   1 1.03 146 1.30
 188  0.457  0.819  0.563-  23 1.00   2 1.07 147 1.29
 189  0.951  0.269  0.570-  24 1.01   3 1.02 144 1.29
 190  0.979  0.816  0.571-   4 1.00  25 1.01 145 1.31
 191  0.217  0.448  0.567-  19 1.02  26 1.03 148 1.30
 192  0.195  0.966  0.565-  20 1.01  27 1.04 149 1.34
 193  0.710  0.949  0.567-  21 1.02  28 1.07 150 1.29
 194  0.307  0.029  0.568-   5 1.02  12 1.05 149 1.29
 195  0.289  0.555  0.567-   6 1.01  13 1.04 148 1.33
 196  0.794  0.046  0.568-   7 1.01  14 1.04 150 1.33
 197  0.053  0.200  0.658-  44 1.00  52 1.02 151 1.34
 198  0.051  0.713  0.662-  45 0.99  53 1.01 152 1.34
 199  0.543  0.201  0.660-  46 0.99  54 1.01 153 1.34
 200  0.536  0.706  0.664-  47 1.03  55 1.05 154 1.33
 201  0.214  0.446  0.657-  48 1.01  56 1.06 155 1.31
 202  0.202  0.952  0.659-  49 0.98  57 1.06 156 1.35
 203  0.707  0.464  0.662-  58 1.04  50 1.04 157 1.34
 204  0.700  0.962  0.659-  51 0.98  59 1.05 158 1.35
 205  0.452  0.293  0.660-  60 1.01  36 1.05 153 1.29
 206  0.452  0.802  0.658-  61 1.01  37 1.06 154 1.28
 207  0.956  0.287  0.662-  62 1.02  38 1.03 151 1.31
 208  0.956  0.805  0.660-  39 1.01  63 1.02 152 1.33
 209  0.296  0.043  0.658-  64 1.01  40 1.05 156 1.28
 210  0.293  0.549  0.660-  65 1.04  41 1.06 155 1.30
 211  0.802  0.044  0.659-  66 1.02  42 1.06 158 1.28
 212  0.810  0.543  0.658-  67 1.04  43 1.05 157 1.29
 213  0.046  0.204  0.753-  92 1.02  84 1.02 161 1.31
 214  0.046  0.704  0.753-  93 1.02  85 1.02 162 1.31
 215  0.546  0.204  0.753-  94 1.02  86 1.02 159 1.31
 216  0.546  0.704  0.753-  95 1.02  87 1.02 160 1.31
 217  0.204  0.454  0.753-  96 1.02  88 1.02 164 1.31
 218  0.204  0.954  0.753-  97 1.02  89 1.02 163 1.31
 219  0.704  0.454  0.753-  98 1.02  90 1.02 166 1.31
 220  0.704  0.954  0.753-  99 1.02  91 1.02 165 1.31
 221  0.454  0.296  0.753-  76 1.02 100 1.02 159 1.31
 222  0.454  0.796  0.753-  77 1.02 101 1.02 160 1.31
 223  0.954  0.296  0.753-  78 1.02 102 1.02 161 1.31
 224  0.954  0.796  0.753-  79 1.02 103 1.02 162 1.31
 225  0.296  0.046  0.753-  80 1.02 104 1.02 163 1.31
 226  0.296  0.546  0.753-  81 1.02 105 1.02 164 1.31
 227  0.796  0.046  0.753-  82 1.02 106 1.02 165 1.31
 228  0.796  0.546  0.753-  83 1.02 107 1.02 166 1.31
 229  0.762  0.552  0.554- 175 1.53 174 1.54 176 1.54 173 1.57
 230  0.489  0.015  0.552- 304 3.22
 231  0.483  0.518  0.556- 305 3.06
 232  0.989  0.004  0.553- 302 3.19
 233  0.028  0.509  0.556- 303 3.17
 234  0.250  0.247  0.552- 306 3.18
 235  0.249  0.753  0.552- 307 3.20
 236  0.734  0.221  0.559- 308 3.10
 237  0.722  0.779  0.546- 309 3.69
 238  0.004  0.003  0.655- 310 3.11 302 3.20
 239  0.019  0.501  0.656- 311 3.06 303 3.12
 240  0.501  0.998  0.654- 312 3.15 304 3.21
 241  0.501  0.492  0.655- 313 3.09 305 3.17
 242  0.251  0.245  0.653- 306 3.19 314 3.21
 243  0.254  0.756  0.655- 315 3.11 307 3.23
 244  0.740  0.257  0.657- 316 3.03 308 3.05
 245  0.754  0.755  0.654- 309 3.10 317 3.19
 246  0.143  0.107  0.607- 306 3.21 302 3.21
 247  0.146  0.609  0.609- 303 3.17 307 3.24
 248  0.643  0.104  0.609- 304 3.18 308 3.24
 249  0.620  0.632  0.615- 309 3.29 305 3.34
 250  0.356  0.394  0.607- 305 3.18 306 3.28
 251  0.363  0.891  0.608- 307 3.22 304 3.22
 252  0.879  0.373  0.613- 308 3.29 303 3.31
 253  0.858  0.897  0.609- 302 3.20 309 3.22
 254  0.116  0.354  0.608- 306 3.08 303 3.31
 255  0.114  0.865  0.610- 307 3.26 302 3.32
 256  0.588  0.342  0.609- 308 3.25 305 3.29
 257  0.608  0.861  0.610- 309 3.05 304 3.32
 258  0.391  0.142  0.609- 304 3.13 306 3.25
 259  0.385  0.639  0.612- 307 3.17 305 3.28
 260  0.888  0.137  0.611- 302 3.13 308 3.34
 261  0.915  0.650  0.615- 303 3.21 309 3.77
 262  0.000  0.000  0.755- 310 3.13 318 3.27
 263  0.000  0.500  0.755- 311 3.13 319 3.27
 264  0.500  0.000  0.755- 312 3.13 320 3.27
 265  0.500  0.500  0.755- 313 3.13 321 3.27
 266  0.250  0.250  0.755- 314 3.13 322 3.27
 267  0.250  0.750  0.755- 315 3.13 323 3.27
 268  0.750  0.250  0.755- 316 3.13 324 3.27
 269  0.750  0.750  0.755- 317 3.13 325 3.27
 270  0.136  0.114  0.705- 310 3.20 314 3.20
 271  0.136  0.614  0.705- 311 3.20 315 3.20
 272  0.636  0.114  0.705- 312 3.20 316 3.20
 273  0.636  0.614  0.705- 313 3.20 317 3.20
 274  0.364  0.386  0.705- 313 3.20 314 3.20
 275  0.364  0.886  0.705- 312 3.20 315 3.20
 276  0.864  0.386  0.705- 311 3.20 316 3.20
 277  0.864  0.886  0.705- 310 3.20 317 3.20
 278  0.114  0.364  0.705- 314 3.21 311 3.21
 279  0.114  0.864  0.705- 315 3.21 310 3.21
 280  0.614  0.364  0.705- 316 3.21 313 3.21
 281  0.614  0.864  0.705- 317 3.21 312 3.21
 282  0.386  0.136  0.705- 314 3.21 312 3.21
 283  0.386  0.636  0.705- 315 3.21 313 3.21
 284  0.886  0.136  0.705- 316 3.21 310 3.21
 285  0.886  0.636  0.705- 317 3.21 311 3.21
 286  0.135  0.115  0.801- 318 3.22 322 3.22
 287  0.135  0.615  0.801- 319 3.22 323 3.22
 288  0.635  0.115  0.801- 320 3.22 324 3.22
 289  0.635  0.615  0.801- 321 3.22 325 3.22
 290  0.365  0.385  0.801- 321 3.22 322 3.22
 291  0.365  0.885  0.801- 320 3.22 323 3.22
 292  0.865  0.385  0.801- 319 3.22 324 3.22
 293  0.865  0.885  0.801- 318 3.22 325 3.22
 294  0.115  0.365  0.801- 319 3.23 322 3.23
 295  0.115  0.865  0.801- 318 3.23 323 3.23
 296  0.615  0.365  0.801- 321 3.23 324 3.23
 297  0.615  0.865  0.801- 320 3.23 325 3.23
 298  0.385  0.135  0.801- 320 3.23 322 3.23
 299  0.385  0.635  0.801- 321 3.23 323 3.23
 300  0.885  0.135  0.801- 318 3.23 324 3.23
 301  0.885  0.635  0.801- 319 3.23 325 3.23
 302  0.997  0.005  0.604- 260 3.13 232 3.19 253 3.20 238 3.20 246 3.21 255 3.32
 303  0.008  0.502  0.606- 239 3.12 247 3.17 233 3.17 261 3.21 254 3.31 252 3.31
 304  0.498  0.007  0.603- 258 3.13 248 3.18 240 3.21 251 3.22 230 3.22 257 3.32
 305  0.497  0.499  0.605- 231 3.06 241 3.17 250 3.18 259 3.28 256 3.29 249 3.34
 306  0.248  0.248  0.602- 254 3.08 234 3.18 242 3.19 246 3.21 258 3.25 250 3.28
 307  0.253  0.752  0.603- 259 3.17 235 3.20 251 3.22 243 3.23 247 3.24 255 3.26
 308  0.744  0.252  0.608- 244 3.05 236 3.10 248 3.24 256 3.25 252 3.29 260 3.34
 309  0.743  0.762  0.605- 257 3.05 245 3.10 253 3.22 249 3.29 237 3.69 261 3.77
 310  0.000  0.000  0.705- 238 3.11 262 3.13 270 3.20 277 3.20 279 3.21 284 3.21
 311  0.000  0.500  0.705- 239 3.06 263 3.13 271 3.20 276 3.20 278 3.21 285 3.21
 312  0.500  0.000  0.705- 264 3.13 240 3.15 272 3.20 275 3.20 281 3.21 282 3.21
 313  0.500  0.500  0.705- 241 3.09 265 3.13 273 3.20 274 3.20 280 3.21 283 3.21
 314  0.250  0.250  0.705- 266 3.13 270 3.20 274 3.20 282 3.21 278 3.21 242 3.21
 315  0.250  0.750  0.705- 243 3.11 267 3.13 271 3.20 275 3.20 283 3.21 279 3.21
 316  0.750  0.250  0.705- 244 3.03 268 3.13 272 3.20 276 3.20 284 3.21 280 3.21
 317  0.750  0.750  0.705- 269 3.13 245 3.19 273 3.20 277 3.20 285 3.21 281 3.21
 318  0.000  0.000  0.807- 286 3.22 293 3.22 300 3.23 295 3.23 262 3.27
 319  0.000  0.500  0.807- 287 3.22 292 3.22 301 3.23 294 3.23 263 3.27
 320  0.500  0.000  0.807- 288 3.22 291 3.22 298 3.23 297 3.23 264 3.27
 321  0.500  0.500  0.807- 289 3.22 290 3.22 299 3.23 296 3.23 265 3.27
 322  0.250  0.250  0.807- 290 3.22 286 3.22 294 3.23 298 3.23 266 3.27
 323  0.250  0.750  0.807- 291 3.22 287 3.22 299 3.23 295 3.23 267 3.27
 324  0.750  0.250  0.807- 292 3.22 288 3.22 296 3.23 300 3.23 268 3.27
 325  0.750  0.750  0.807- 293 3.22 289 3.22 297 3.23 301 3.23 269 3.27
 

IMPORTANT INFORMATION: All symmetrisations will be switched off!
NOSYMM: (Re-)initialisation of all symmetry stuff for point group C_1.


----------------------------------------------------------------------------------------

                                     Primitive cell                                     

  volume of cell :   20385.2105

  direct lattice vectors                    reciprocal lattice vectors
    18.060800552  0.000000000  0.000000000     0.055368531  0.000015077 -0.000000000
    -0.004918649 18.062799454  0.000000000     0.000000000  0.055362404  0.000000000
     0.000000000  0.000000000 62.487499237     0.000000000 -0.000000000  0.016003201

  length of vectors
    18.060800552 18.062800123 62.487499237     0.055368533  0.055362404  0.016003201

  position of ions in fractional coordinates (direct lattice)
     0.446714943  0.301323274  0.582409030
     0.444071957  0.834288549  0.578811204
     0.952432740  0.267069550  0.586001302
     0.968588738  0.806133805  0.586360199
     0.300379010  0.043883913  0.583237260
     0.303573873  0.551625066  0.582773422
     0.775362002  0.066735016  0.581704300
     0.104104408  0.194660893  0.553859497
     0.082577735  0.678848258  0.556999957
     0.580150496  0.177771871  0.557767505
     0.535493756  0.657301780  0.566449601
     0.355975219  0.045297608  0.559925224
     0.310045524  0.599109366  0.558517411
     0.835552928  0.074895508  0.559750690
     0.074410450  0.203229327  0.580751961
     0.045282746  0.691829101  0.582210565
     0.562094415  0.225030224  0.580956775
     0.506027473  0.711188593  0.587351486
     0.224481683  0.436832776  0.582724157
     0.180448808  0.974609959  0.580881564
     0.687511118  0.961886025  0.581279044
     0.388454687  0.294953970  0.560069296
     0.441468090  0.856128583  0.551750921
     0.904987417  0.290469677  0.562845608
     0.956804695  0.862429091  0.564457808
     0.184115231  0.412298317  0.558130188
     0.158292000  0.936831918  0.555793966
     0.692232637  0.899977207  0.558783822
     0.469589180  0.215832283  0.541762229
     0.499834578  0.748069637  0.540278900
     0.996638558  0.249846543  0.540093499
     0.030511639  0.785860543  0.542571839
     0.235322238  0.513758870  0.540498670
     0.270021834  0.977883501  0.540430236
     0.784377643  0.967715343  0.543055517
     0.452784653  0.307120435  0.675973460
     0.439542790  0.814139520  0.674414676
     0.953844418  0.288437335  0.678352903
     0.942467837  0.806167331  0.675194007
     0.302951534  0.049462459  0.674700927
     0.295205478  0.552944692  0.676854923
     0.810245148  0.049335876  0.675375989
     0.833241126  0.538449293  0.673393537
     0.084782775  0.171549913  0.647915419
     0.088801837  0.685138946  0.654046284
     0.570784424  0.164428744  0.651053253
     0.569190762  0.667578272  0.656643849
     0.186185868  0.411324938  0.647593638
     0.169546262  0.919739269  0.650509565
     0.659619114  0.443281909  0.654274784
     0.664534500  0.934161845  0.650938240
     0.062649000  0.190501279  0.674130867
     0.044272712  0.703133670  0.677869408
     0.554918293  0.200739928  0.675687941
     0.536676788  0.706046361  0.680543466
     0.205119995  0.437753568  0.673776243
     0.199833062  0.947876082  0.675870595
     0.718609828  0.445671533  0.676974087
     0.696700093  0.958575358  0.676223510
     0.415510426  0.323629538  0.651010520
     0.424200738  0.834759558  0.647764937
     0.919842790  0.319768627  0.653937375
     0.928699655  0.840362344  0.649833039
     0.328939278  0.075457487  0.649150773
     0.325617145  0.587043507  0.652005287
     0.839038439  0.073740057  0.649679993
     0.839364852  0.578364885  0.647825374
     0.995648319  0.252415706  0.633502258
     0.022594356  0.770296678  0.634855372
     0.484421920  0.236433366  0.633465568
     0.504964514  0.744064561  0.634765450
     0.248318173  0.995511899  0.631854406
     0.258074476  0.501575167  0.631970518
     0.750905248  0.002172224  0.632363907
     0.733309147  0.523714458  0.634704952
     0.448745018  0.301283966  0.768889017
     0.448745007  0.801283913  0.768889017
     0.948744965  0.301283966  0.768889017
     0.948745007  0.801283913  0.768889017
     0.301275995  0.051294496  0.768872961
     0.301276011  0.551294499  0.768872961
     0.801275943  0.051294496  0.768872961
     0.801275984  0.551294499  0.768872961
     0.078771004  0.171180501  0.743441971
     0.078771006  0.671180448  0.743441971
     0.578771004  0.171180501  0.743441971
     0.578770992  0.671180448  0.743441971
     0.171199499  0.421174482  0.743421032
     0.171199501  0.921174508  0.743421032
     0.671199512  0.421174482  0.743421032
     0.671199501  0.921174508  0.743421032
     0.051256000  0.198714991  0.768889017
     0.051256002  0.698714925  0.768889017
     0.551256027  0.198714991  0.768889017
     0.551256016  0.698714925  0.768889017
     0.198723491  0.448703970  0.768872046
     0.198723493  0.948703970  0.768872046
     0.698723518  0.448703970  0.768872046
     0.698723507  0.948703970  0.768872046
     0.421231519  0.328817467  0.743441971
     0.421231508  0.828817440  0.743441971
     0.921231466  0.328817467  0.743441971
     0.921231508  0.828817440  0.743441971
     0.328800503  0.078824997  0.743421032
     0.328800492  0.578824964  0.743421032
     0.828800477  0.078824997  0.743421032
     0.828800519  0.578824964  0.743421032
     0.000003500  0.250001478  0.725821992
     0.000003500  0.750001452  0.725821992
     0.500003506  0.250001478  0.725821992
     0.500003495  0.750001452  0.725821992
     0.250000502  0.000000000  0.725803983
     0.250000517  0.500000000  0.725803983
     0.750000502  0.000000000  0.725803983
     0.750000490  0.500000000  0.725803983
     0.717744557  0.448464743  0.545479464
     0.739998663  0.508174985  0.523986518
     0.648596012  0.541416472  0.560634412
     0.684444182  0.635070409  0.563442590
     0.834960983  0.509920847  0.577947994
     0.772600489  0.575136780  0.587409909
     0.868446887  0.559582788  0.541260664
     0.806196242  0.619822116  0.528379120
     0.868980765  0.480794783  0.524936231
     0.863749090  0.446456741  0.550783076
     0.887314183  0.351377212  0.526411319
     0.797858402  0.336156479  0.536816293
     0.618021619  0.549836385  0.526514733
     0.689602329  0.612697541  0.518675702
     0.611195041  0.645507671  0.532362583
     0.732815668  0.452446957  0.601560139
     0.741729563  0.411036980  0.577007498
     0.669050575  0.472005866  0.581977426
     0.835761263  0.676820668  0.571773236
     0.875355470  0.706667315  0.547383898
     0.918509384  0.635718554  0.562840175
     0.837549570  0.399594767  0.492929097
     0.803219532  0.309153200  0.499116126
     0.670019106  0.316537513  0.522728148
     0.751773788  0.486220064  0.480017610
     0.541290920  0.365963924  0.518857074
     0.622929144  0.536516370  0.476174525
     0.516992567  0.479354567  0.496576860
     0.003067402  0.244074751  0.557514586
     0.019932879  0.771543337  0.559433244
     0.483237193  0.236142900  0.557755418
     0.490462470  0.758125646  0.557804195
     0.245936310  0.505343919  0.557587354
     0.258292448  0.991254789  0.557197811
     0.763224784  0.987022933  0.558550254
     0.001828538  0.246189669  0.650438628
     0.009839042  0.762925643  0.651283036
     0.492234000  0.244213504  0.650319586
     0.496668898  0.752325343  0.651540778
     0.256098666  0.498932536  0.649179282
     0.249598177  0.998203190  0.649146866
     0.750975575  0.511685188  0.650971633
     0.752196212  0.003998530  0.649666318
     0.499988984  0.249994984  0.743277021
     0.499989025  0.749994958  0.743277021
     0.999988984  0.249994984  0.743277021
     0.999989025  0.749994958  0.743277021
     0.250000502  0.000001000  0.743255960
     0.250000517  0.500001003  0.743255960
     0.750000502  0.000001000  0.743255960
     0.750000491  0.500001003  0.743255960
     0.719454709  0.396320412  0.501789390
     0.657726442  0.363658855  0.512435867
     0.704747718  0.458792343  0.488152965
     0.586842969  0.392188913  0.510362211
     0.631670874  0.486675813  0.486527640
     0.574111546  0.453991395  0.497335740
     0.759950749  0.484337297  0.538521346
     0.684026680  0.585296748  0.553445046
     0.776599940  0.526489188  0.577025874
     0.824952544  0.599878312  0.544563204
     0.832930550  0.449508607  0.535752543
     0.830040133  0.373102569  0.526748728
     0.650270548  0.598532657  0.531309210
     0.727554987  0.463221226  0.584463152
     0.865464928  0.658524891  0.557545171
     0.799111067  0.368755708  0.503877637
     0.063145139  0.212569201  0.564622880
     0.050907245  0.710335647  0.566474142
     0.543909725  0.209734426  0.566330558
     0.514661916  0.708113761  0.571193469
     0.437793496  0.281264899  0.567120267
     0.457374891  0.818891261  0.562695859
     0.950947661  0.268890754  0.569741885
     0.979005556  0.816013469  0.570984016
     0.217050912  0.447624837  0.566876505
     0.194784162  0.966162421  0.565416008
     0.710104344  0.948755124  0.566883342
     0.307004118  0.029460610  0.567635934
     0.288685434  0.555002429  0.567234975
     0.793981674  0.046300655  0.567658399
     0.053327007  0.199739557  0.658258002
     0.050510681  0.713051877  0.662101117
     0.543011105  0.200781493  0.659815992
     0.535703995  0.706459609  0.663728274
     0.214376419  0.446240798  0.657231308
     0.202239733  0.951720289  0.659027138
     0.707106962  0.463962347  0.661560299
     0.700356525  0.962059406  0.659431516
     0.452102770  0.293435825  0.659622106
     0.451745625  0.802073186  0.658219237
     0.956350023  0.286720802  0.661895693
     0.956354389  0.804731920  0.659623754
     0.295653567  0.042619309  0.658078279
     0.292754075  0.548589673  0.659993030
     0.802464602  0.043534319  0.658674162
     0.810289530  0.543273314  0.657961556
     0.045862501  0.204119496  0.752725994
     0.045862500  0.704119456  0.752725994
     0.545862507  0.204119496  0.752725994
     0.545862496  0.704119456  0.752725994
     0.204119002  0.454101003  0.752704994
     0.204118991  0.954100951  0.752704994
     0.704118976  0.454101003  0.752704994
     0.704118964  0.954100951  0.752704994
     0.454140018  0.295888490  0.752726971
     0.454140007  0.795888516  0.752726971
     0.954140018  0.295888490  0.752726971
     0.954140060  0.795888516  0.752726971
     0.295882492  0.045900498  0.752704994
     0.295882481  0.545900528  0.752704994
     0.795882439  0.045900498  0.752704994
     0.795882481  0.545900528  0.752704994
     0.762339096  0.552158798  0.554092332
     0.489183686  0.014991078  0.551624370
     0.482984882  0.518194194  0.556220260
     0.988656364  0.004321594  0.552934629
     0.027693283  0.508916951  0.556000977
     0.250408537  0.247486777  0.551650620
     0.249311119  0.752561085  0.552215552
     0.733960943  0.220817377  0.559064945
     0.722082983  0.779169120  0.546025472
     0.003935504  0.002961946  0.655158994
     0.018640691  0.500506700  0.656131234
     0.500939668  0.998166453  0.654346759
     0.501417610  0.492455155  0.655409471
     0.251313632  0.245217083  0.653464685
     0.254445380  0.755518389  0.655135430
     0.739528661  0.257097358  0.656545685
     0.754386497  0.754913486  0.653882493
     0.142703526  0.106695373  0.607252684
     0.145952308  0.609030530  0.609235746
     0.643354108  0.103649493  0.609469191
     0.620024753  0.632159091  0.614842825
     0.355923937  0.393876380  0.607373863
     0.363434431  0.890649727  0.607782453
     0.878659773  0.373426246  0.613305591
     0.858278215  0.896649975  0.609109134
     0.115731241  0.353918366  0.607831168
     0.114492540  0.865268605  0.609820946
     0.588241481  0.342006518  0.608654575
     0.607902264  0.861496156  0.610222699
     0.390857244  0.141670941  0.609090331
     0.384747057  0.639294754  0.612095693
     0.887546806  0.136825273  0.611265022
     0.914620287  0.649641308  0.615491941
     0.000000000  0.000000000  0.754927972
     0.000000000  0.500000000  0.754927972
     0.500000000  0.000000000  0.754927972
     0.499999989  0.500000000  0.754927972
     0.250000496  0.250000000  0.754939022
     0.250000511  0.749999974  0.754939022
     0.750000470  0.250000000  0.754939022
     0.750000458  0.749999974  0.754939022
     0.135790500  0.114209997  0.704782994
     0.135790502  0.614209984  0.704782994
     0.635790447  0.114209997  0.704782994
     0.635790488  0.614209984  0.704782994
     0.364209516  0.385789989  0.704782994
     0.364209505  0.885789963  0.704782994
     0.864209542  0.385789989  0.704782994
     0.864209531  0.885789963  0.704782994
     0.114217990  0.364218986  0.704780979
     0.114217992  0.864218986  0.704780979
     0.614218004  0.364218986  0.704780979
     0.614217992  0.864218986  0.704780979
     0.385782012  0.135781489  0.704782017
     0.385782001  0.635781489  0.704782017
     0.885781985  0.135781489  0.704782017
     0.885782027  0.635781489  0.704782017
     0.134667000  0.115332001  0.801256025
     0.134666989  0.615331988  0.801256025
     0.634666987  0.115332001  0.801256025
     0.634666976  0.615331988  0.801256025
     0.365333002  0.384667985  0.801256025
     0.365332990  0.884667959  0.801256025
     0.865332949  0.384667985  0.801256025
     0.865332938  0.884667959  0.801256025
     0.115328503  0.365337004  0.801264999
     0.115328505  0.865336978  0.801264999
     0.615328503  0.365337004  0.801264999
     0.615328492  0.865336978  0.801264999
     0.384671513  0.134662996  0.801264999
     0.384671501  0.634662970  0.801264999
     0.884671486  0.134662996  0.801264999
     0.884671528  0.634662970  0.801264999
     0.997251539  0.005286299  0.603937140
     0.007562253  0.501819198  0.606341429
     0.497915823  0.006901545  0.603097983
     0.496905950  0.498782485  0.604704628
     0.248192884  0.248490962  0.602494896
     0.253158054  0.751632637  0.603428127
     0.743843717  0.252263781  0.607797348
     0.742944689  0.761822118  0.604500668
     0.000000500  0.000000500  0.704828963
     0.000000500  0.500000475  0.704828963
     0.500000475  0.000000500  0.704828963
     0.500000464  0.500000475  0.704828963
     0.249999994  0.249999472  0.704824995
     0.250000010  0.749999498  0.704824995
     0.749999994  0.249999472  0.704824995
     0.749999983  0.749999498  0.704824995
     0.000000000  0.000000000  0.807317968
     0.000000000  0.500000000  0.807317968
     0.500000000  0.000000000  0.807317968
     0.499999989  0.500000000  0.807317968
     0.249999994  0.250000000  0.807317968
     0.250000010  0.749999974  0.807317968
     0.749999994  0.250000000  0.807317968
     0.749999983  0.749999974  0.807317968

  ion indices of the primitive-cell ions
   primitive index   ion index
                 1           1
                 2           2
                 3           3
                 4           4
                 5           5
                 6           6
                 7           7
                 8           8
                 9           9
                10          10
                11          11
                12          12
                13          13
                14          14
                15          15
                16          16
                17          17
                18          18
                19          19
                20          20
                21          21
                22          22
                23          23
                24          24
                25          25
                26          26
                27          27
                28          28
                29          29
                30          30
                31          31
                32          32
                33          33
                34          34
                35          35
                36          36
                37          37
                38          38
                39          39
                40          40
                41          41
                42          42
                43          43
                44          44
                45          45
                46          46
                47          47
                48          48
                49          49
                50          50
                51          51
                52          52
                53          53
                54          54
                55          55
                56          56
                57          57
                58          58
                59          59
                60          60
                61          61
                62          62
                63          63
                64          64
                65          65
                66          66
                67          67
                68          68
                69          69
                70          70
                71          71
                72          72
                73          73
                74          74
                75          75
                76          76
                77          77
                78          78
                79          79
                80          80
                81          81
                82          82
                83          83
                84          84
                85          85
                86          86
                87          87
                88          88
                89          89
                90          90
                91          91
                92          92
                93          93
                94          94
                95          95
                96          96
                97          97
                98          98
                99          99
               100         100
               101         101
               102         102
               103         103
               104         104
               105         105
               106         106
               107         107
               108         108
               109         109
               110         110
               111         111
               112         112
               113         113
               114         114
               115         115
               116         116
               117         117
               118         118
               119         119
               120         120
               121         121
               122         122
               123         123
               124         124
               125         125
               126         126
               127         127
               128         128
               129         129
               130         130
               131         131
               132         132
               133         133
               134         134
               135         135
               136         136
               137         137
               138         138
               139         139
               140         140
               141         141
               142         142
               143         143
               144         144
               145         145
               146         146
               147         147
               148         148
               149         149
               150         150
               151         151
               152         152
               153         153
               154         154
               155         155
               156         156
               157         157
               158         158
               159         159
               160         160
               161         161
               162         162
               163         163
               164         164
               165         165
               166         166
               167         167
               168         168
               169         169
               170         170
               171         171
               172         172
               173         173
               174         174
               175         175
               176         176
               177         177
               178         178
               179         179
               180         180
               181         181
               182         182
               183         183
               184         184
               185         185
               186         186
               187         187
               188         188
               189         189
               190         190
               191         191
               192         192
               193         193
               194         194
               195         195
               196         196
               197         197
               198         198
               199         199
               200         200
               201         201
               202         202
               203         203
               204         204
               205         205
               206         206
               207         207
               208         208
               209         209
               210         210
               211         211
               212         212
               213         213
               214         214
               215         215
               216         216
               217         217
               218         218
               219         219
               220         220
               221         221
               222         222
               223         223
               224         224
               225         225
               226         226
               227         227
               228         228
               229         229
               230         230
               231         231
               232         232
               233         233
               234         234
               235         235
               236         236
               237         237
               238         238
               239         239
               240         240
               241         241
               242         242
               243         243
               244         244
               245         245
               246         246
               247         247
               248         248
               249         249
               250         250
               251         251
               252         252
               253         253
               254         254
               255         255
               256         256
               257         257
               258         258
               259         259
               260         260
               261         261
               262         262
               263         263
               264         264
               265         265
               266         266
               267         267
               268         268
               269         269
               270         270
               271         271
               272         272
               273         273
               274         274
               275         275
               276         276
               277         277
               278         278
               279         279
               280         280
               281         281
               282         282
               283         283
               284         284
               285         285
               286         286
               287         287
               288         288
               289         289
               290         290
               291         291
               292         292
               293         293
               294         294
               295         295
               296         296
               297         297
               298         298
               299         299
               300         300
               301         301
               302         302
               303         303
               304         304
               305         305
               306         306
               307         307
               308         308
               309         309
               310         310
               311         311
               312         312
               313         313
               314         314
               315         315
               316         316
               317         317
               318         318
               319         319
               320         320
               321         321
               322         322
               323         323
               324         324
               325         325

----------------------------------------------------------------------------------------

 
 
 KPOINTS: Automatic Mesh                          

Automatic generation of k-mesh.
 Grid dimensions read from file:
 generate k-points for:    3    3    1

 Generating k-lattice:

  Cartesian coordinates                     Fractional coordinates (reciprocal lattice)
     0.018456177  0.000005026 -0.000000000     0.333333333  0.000000000  0.000000000
     0.000000000  0.018454135  0.000000000     0.000000000  0.333333333  0.000000000
     0.000000000 -0.000000000  0.016003201     0.000000000  0.000000000  1.000000000

  Length of vectors
     0.018456178  0.018454135  0.016003201

  Shift w.r.t. Gamma in fractional coordinates (k-lattice)
     0.000000000  0.000000000  0.000000000

 
 Subroutine IBZKPT returns following result:
 ===========================================
 
 Found      5 irreducible k-points:
 
 Following reciprocal coordinates:
            Coordinates               Weight
  0.000000  0.000000  0.000000      1.000000
  0.333333  0.000000  0.000000      2.000000
  0.000000  0.333333  0.000000      2.000000
  0.333333  0.333333  0.000000      2.000000
 -0.333333  0.333333  0.000000      2.000000
 
 Following cartesian coordinates:
            Coordinates               Weight
  0.000000  0.000000  0.000000      1.000000
  0.018456  0.000005  0.000000      2.000000
  0.000000  0.018454  0.000000      2.000000
  0.018456  0.018459  0.000000      2.000000
 -0.018456  0.018449  0.000000      2.000000
 


--------------------------------------------------------------------------------------------------------




 Dimension of arrays:
   k-points           NKPTS =      5   k-points in BZ     NKDIM =      5   number of bands    NBANDS=    732
   number of dos      NEDOS =    301   number of ions     NIONS =    325
   non local maximal  LDIM  =      5   non local SUM 2l+1 LMDIM =     13
   total plane-waves  NPLWV = ******
   max r-space proj   IRMAX =   3336   max aug-charges    IRDMAX=  19845
   dimension x,y,z NGX =   100 NGY =  100 NGZ =  350
   dimension x,y,z NGXF=   200 NGYF=  200 NGZF=  700
   support grid    NGXF=   200 NGYF=  200 NGZF=  700
   ions per type =             143  39  47  72  24
   NGX,Y,Z   is equivalent  to a cutoff of   9.20,  9.20,  9.31 a.u.
   NGXF,Y,Z  is equivalent  to a cutoff of  18.41, 18.41, 18.62 a.u.

 SYSTEM =  PSC                                     
 POSCAR =   H  C  N  I Pb                          

 Startparameter for this run:
   NWRITE =      2    write-flag & timer
   PREC   = normal    normal or accurate (medium, high low for compatibility)
   ISTART =      0    job   : 0-new  1-cont  2-samecut
   ICHARG =      1    charge: 1-file 2-atom 10-const
   ISPIN  =      1    spin polarized calculation?
   LNONCOLLINEAR =      F non collinear calculations
   LSORBIT =      F    spin-orbit coupling
   INIWAV =      1    electr: 0-lowe 1-rand  2-diag
   LASPH  =      F    aspherical Exc in radial PAW
 Electronic Relaxation 1
   ENCUT  =  500.0 eV  36.75 Ry    6.06 a.u.  32.93 32.93113.93*2*pi/ulx,y,z
   ENINI  =  500.0     initial cutoff
   ENAUG  =  644.9 eV  augmentation charge cutoff
   NELM   =    600;   NELMIN=  2; NELMDL=  0     # of ELM steps 
   EDIFF  = 0.1E-03   stopping-criterion for ELM
   LREAL  =      T    real-space projection
   NLSPLINE    = F    spline interpolate recip. space projectors
   LCOMPAT=      F    compatible to vasp.4.4
   GGA_COMPAT  = F    GGA compatible to vasp.4.4-vasp.4.6
   LMAXPAW     = -100 max onsite density
   LMAXMIX     =    2 max onsite mixed and CHGCAR
   VOSKOWN=      0    Vosko Wilk Nusair interpolation
   ROPT   =   -0.00050  -0.00050  -0.00050  -0.00050
   ROPT   =   -0.00050
 Ionic relaxation
   EDIFFG = 0.1E-02   stopping-criterion for IOM
   NSW    =      0    number of steps for IOM
   NBLOCK =      1;   KBLOCK =      1    inner block; outer block 
   IBRION =     -1    ionic relax: 0-MD 1-quasi-New 2-CG
   NFREE  =      0    steps in history (QN), initial steepest desc. (CG)
   ISIF   =      2    stress and relaxation
   IWAVPR =     10    prediction:  0-non 1-charg 2-wave 3-comb
   ISYM   =      0    0-nonsym 1-usesym 2-fastsym
   LCORR  =      T    Harris-Foulkes like correction to forces

   POTIM  = 0.5000    time-step for ionic-motion
   TEIN   =    0.0    initial temperature
   TEBEG  =    0.0;   TEEND  =   0.0 temperature during run
   SMASS  =  -3.00    Nose mass-parameter (am)
   estimated Nose-frequenzy (Omega)   =  0.10E-29 period in steps = 0.13E+47 mass=  -0.745E-26a.u.
   SCALEE = 1.0000    scale energy and forces
   NPACO  =    256;   APACO  = 16.0  distance and # of slots for P.C.
   PSTRESS=    0.0 pullay stress

  Mass of Ions in am
   POMASS =   1.00 12.01 14.00126.90207.20
  Ionic Valenz
   ZVAL   =   1.00  4.00  5.00  7.00  4.00
  Atomic Wigner-Seitz radii
   RWIGS  =  -1.00 -1.00 -1.00 -1.00 -1.00
  virtual crystal weights 
   VCA    =   1.00  1.00  1.00  1.00  1.00
   NELECT =    1134.0000    total number of electrons
   NUPDOWN=      -1.0000    fix difference up-down

 DOS related values:
   EMIN   =  10.00;   EMAX   =-10.00  energy-range for DOS
   EFERMI =   0.00
   ISMEAR =     0;   SIGMA  =   0.05  broadening in eV -4-tet -1-fermi 0-gaus

 Electronic relaxation 2 (details)
   IALGO  =     38    algorithm
   LDIAG  =      T    sub-space diagonalisation (order eigenvalues)
   LSUBROT=      F    optimize rotation matrix (better conditioning)
   TURBO    =      0    0=normal 1=particle mesh
   IRESTART =      0    0=no restart 2=restart with 2 vectors
   NREBOOT  =      0    no. of reboots
   NMIN     =      0    reboot dimension
   EREF     =   0.00    reference energy to select bands
   IMIX   =      4    mixing-type and parameters
     AMIX     =   0.40;   BMIX     =  0.01
     AMIX_MAG =   1.60;   BMIX_MAG =  0.01
     AMIN     =   0.01
     WC   =   100.;   INIMIX=   1;  MIXPRE=   1;  MAXMIX= -45

 Intra band minimization:
   WEIMIN = 0.0000     energy-eigenvalue tresh-hold
   EBREAK =  0.34E-07  absolut break condition
   DEPER  =   0.30     relativ break condition  

   TIME   =   0.40     timestep for ELM

  volume/ion in A,a.u.               =      62.72       423.28
  Fermi-wavevector in a.u.,A,eV,Ry     =   0.624944  1.180972  5.313816  0.390554
  Thomas-Fermi vector in A             =   1.685677
 
 Write flags
   LWAVE        =      F    write WAVECAR
   LDOWNSAMPLE  =      F    k-point downsampling of WAVECAR
   LCHARG       =      T    write CHGCAR
   LVTOT        =      T    write LOCPOT, total local potential
   LVHAR        =      F    write LOCPOT, Hartree potential only
   LELF         =      F    write electronic localiz. function (ELF)
   LORBIT       =      0    0 simple, 1 ext, 2 COOP (PROOUT), +10 PAW based schemes


 Dipole corrections
   LMONO  =      F    monopole corrections only (constant potential shift)
   LDIPOL =      T    correct potential (dipole corrections)
   IDIPOL =      3    1-x, 2-y, 3-z, 4-all directions 
   EPSILON=  1.0000000 bulk dielectric constant

 Exchange correlation treatment:
   GGA     =    --    GGA type
   LEXCH   =     8    internal setting for exchange type
   VOSKOWN=      0    Vosko Wilk Nusair interpolation
   LHFCALC =     F    Hartree Fock is set to
   LHFONE  =     F    Hartree Fock one center treatment
   AEXX    =    0.0000 exact exchange contribution

 Linear response parameters
   LEPSILON=     F    determine dielectric tensor
   LRPA    =     F    only Hartree local field effects (RPA)
   LNABLA  =     F    use nabla operator in PAW spheres
   LVEL    =     F    velocity operator in full k-point grid
   LINTERFAST=   F  fast interpolation
   KINTER  =     0    interpolate to denser k-point grid
   CSHIFT  =0.1000    complex shift for real part using Kramers Kronig
   OMEGAMAX=  -1.0    maximum frequency
   DEG_THRESHOLD= 0.2000000E-02 threshold for treating states as degnerate
   RTIME   =   -0.100 relaxation time in fs
  (WPLASMAI=    0.000 imaginary part of plasma frequency in eV, 0.658/RTIME)
   DFIELD  = 0.0000000 0.0000000 0.0000000 field for delta impulse in time
 
 Orbital magnetization related:
   ORBITALMAG=     F  switch on orbital magnetization
   LCHIMAG   =     F  perturbation theory with respect to B field
   DQ        =  0.001000  dq finite difference perturbation B field
   LLRAUG    =     F  two centre corrections for induced B field



--------------------------------------------------------------------------------------------------------


 Static calculation
 charge density and potential will be updated during run
 non-spin polarized calculation
 Variant of blocked Davidson
 Davidson routine will perform the subspace rotation
 perform sub-space diagonalisation
    after iterative eigenvector-optimisation
 modified Broyden-mixing scheme, WC =      100.0
 initial mixing is a Kerker type mixing with AMIX =  0.4000 and BMIX =      0.0100
 Hartree-type preconditioning will be used
 using additional bands           165
 real space projection scheme for non local part
[...]
     13.54561      0.00000     45.35368        -0.002307      0.000451      0.012758
     13.54315      9.03140     45.35368        -0.005154      0.006511      0.012292
     12.96084      8.10053     34.08565        -0.058648     -0.220411     -0.186429
     13.36247      9.17906     32.74261        -0.395451      0.107391     -0.650918
     11.71150      9.77950     35.03264         0.330202      0.613247      0.125167
     12.35849     11.47115     35.20812         0.096368     -0.017592     -0.006414
     15.07756      9.21060     36.11452         0.065111     -0.036982     -0.111224
     13.95095     10.38858     36.70578        -0.241265      0.139826     -0.053684
     15.68209     10.10763     33.82203        -0.079838      0.006785     -0.041044
     14.55750     11.19572     33.01709        -0.143130     -0.135993      0.978207
     15.69212      8.68450     32.80195        -0.017989      0.188756     -0.068229
     15.59780      8.06426     34.41706         0.068726      0.073158      0.296589
     16.02388      6.34686     32.89413        -0.091397     -0.026371     -0.001265
     14.40831      6.07193     33.54431        -0.231047     -0.267239      0.349690
     11.15926      9.93158     32.90059         0.126554      0.079108     -0.118035
     12.45176     11.06703     32.41075         0.148623      0.118628     -0.032568
     11.03550     11.65968     33.26601         0.249808     -0.150998      0.030154
     13.23301      8.17246     37.58999         0.282917      0.295522      0.204595
     13.39421      7.42448     36.05576         0.174660     -0.417747     -0.333025
     12.08127      8.52575     36.36631        -0.505725      0.190710     -0.142669
     15.09119     12.22528     35.72868        -0.100933      0.184845      0.026644
     15.80614     12.76439     34.20465        -0.076986      0.151020      0.021109
     16.58589     11.48286     35.17048         0.036486     -0.026387      0.095529
     15.12485      7.21780     30.80191        -0.603965     -0.180732      0.272232
     14.50527      5.58417     31.18852        -0.195005      0.490632     -0.025208
     12.09952      5.71755     32.66397        -0.236566     -0.144848      0.121638
     13.57524      8.78250     29.99510        -0.450164     -0.210927      0.108262
      9.77435      6.61033     32.42208        -0.099053      0.049523      0.089937
     11.24796      9.69099     29.75496        -0.026936     -0.679044      0.529324
      9.33494      8.65849     31.02985         1.010300     -0.563184     -0.008886
      0.05420      4.40867     34.83769         0.625355     -0.316916     -0.677826
      0.35621     13.93623     34.95758         0.419006     -0.333533     -0.371078
      8.72649      4.26540     34.85274         0.452157     -0.805855     -0.449046
      8.85442     13.69387     34.85579         0.782203     -1.135354     -1.798721
      4.43932      9.12793     34.84224         0.782803      0.999470      0.045051
      4.66009     17.90484     34.81790        -1.426146     -0.796843     -0.056664
     13.77960     17.82840     34.90241         1.050563      1.097215      0.009899
      0.03181      4.44687     40.64428         0.937608     -0.813125      1.584358
      0.17395     13.78057     40.69705        -0.244072     -0.549936      2.315008
      8.88894      4.41118     40.63684         1.857594     -1.626563      0.771308
      8.96654     13.58910     40.71315         1.373521     -1.718097      0.764219
      4.62289      9.01212     40.56559        -0.538984     -0.362044      0.297499
      4.50303     18.03034     40.56356        -2.074491     -2.200565      0.139760
     13.56070      9.24247     40.67759        -1.784880     -1.583006      0.326391
     13.58525      0.07222     40.59602        -2.118158     -1.860556      0.105208
      9.02897      4.51561     46.44552         0.017989      0.000570      0.041953
      9.02651     13.54701     46.44552         0.019683     -0.004392      0.055474
     18.05937      4.51561     46.44552         0.013236      0.004277      0.052950
     18.05691     13.54701     46.44552         0.031727     -0.012745      0.051873
      4.51521      0.00002     46.44421        -0.007254     -0.007416      0.064521
      4.51275      9.03142     46.44421         0.003846      0.007295      0.053096
     13.54561      0.00002     46.44421         0.002425      0.003449      0.056633
     13.54315      9.03142     46.44421        -0.015520     -0.012191      0.051565
     12.99198      7.15866     31.35556        -0.433729      0.819887     -1.225504
     11.87728      6.56870     32.02084         1.427557      0.088594     -0.319507
     12.72605      8.28707     30.50346        -0.168041     -0.791749      0.850331
     10.59692      7.08403     31.89126        -0.038096      0.020099     -0.150615
     11.40609      8.79073     30.40190         1.406697      0.866674     -1.133686
     10.36668      8.20036     31.07727        -1.720139      0.214732      0.431429
     13.72294      8.74849     33.65085        -0.548569      1.163586      1.486192
     12.35119     10.57210     34.58340        -0.132497     -0.490327     -0.146228
     14.02343      9.50987     36.05690         0.508096      0.049812     -0.023086
     14.89635     10.83548     34.02839         0.165884      0.033786     -0.537276
     15.04118      8.11938     33.47784         1.193520     -0.454959     -0.003296
     14.98935      6.73928     32.91521         0.125384     -0.743610     -0.686990
     11.74146     10.81118     33.20018        -0.164018      0.148325      0.208222
     13.13795      8.36707     36.52164         0.123191      0.171744     -0.007241
     15.62775     11.89480     34.83960        -0.383604     -0.174770      0.191816
     14.43077      6.66076     31.48605         0.045689     -0.457523     -0.183432
      1.13941      3.83959     35.28187         1.348406     -0.777799     -0.360957
      0.91593     12.83065     35.39755        -0.619226      0.304662      1.198535
      9.82241      3.78839     35.38858         0.243301     -0.317710     -0.548625
      9.29172     12.79052     35.69245         0.258319     -0.645693      0.476040
      7.90552      5.08043     35.43793        -0.432847      0.853786      0.690203
      8.25653     14.79147     35.16146        -0.790651      1.099186      2.398808
     17.17355      4.85692     35.60175        -0.979259      0.523685      0.060312
     17.67761     14.73949     35.67936         0.113273     -0.238840     -1.008654
      3.91791      8.08536     35.42270        -0.414805     -0.518969     -0.434385
      3.51321     17.45160     35.33143         0.464381     -0.183721     -1.473476
     12.82039     17.13717     35.42312        -1.031654     -0.905573     -0.280398
      5.54460      0.53214     35.47015         0.734200      0.579731     -0.291625
      5.21116     10.02490     35.44510        -0.312153      0.051936     -1.423938
     14.33972      0.83632     35.47155         0.357172     -0.667111     -1.398580
      0.96215      3.60786     41.13290        -1.620536      1.471962     -0.460364
      0.90876     12.87971     41.37304        -1.702339      1.886629     -0.803267
      9.80623      3.62668     41.23025        -1.577306      1.534590     -0.203002
      9.67177     12.76064     41.47472         0.026575      0.052502      0.870060
      3.86961      8.06036     41.06874        -0.048152     -0.017904      1.730306
      3.64793     17.19073     41.18096         2.278202      2.233992      1.762879
     12.76864      8.38046     41.33925         0.542180      0.370428     -0.205966
     12.64427     17.37749     41.20623         2.643918      2.054947      1.892970
      8.16389      5.30027     41.21814        -0.678418      1.170366      1.807800
      8.15494     14.48769     41.13047        -1.214179      1.405318      1.763279
     17.27104      5.17898     41.36021         0.027551     -0.046848      0.418368
     17.26857     14.53571     41.21824         1.069384     -0.638253     -1.191129
      5.33953      0.76982     41.12167         1.006177      0.978224      2.102244
      5.28467      9.90907     41.24131         0.920174      1.007554      1.167040
     14.49294      0.78635     41.15890         1.170499      1.008462      2.003256
     14.63181      9.81304     41.11437         1.672362      0.771006      0.898977
      0.82731      3.68697     47.03596         0.018762     -0.021455     -0.096980
      0.82485     12.71837     47.03596         0.005446     -0.009656     -0.092814
      9.85771      3.68697     47.03596         0.014541     -0.022363     -0.092089
      9.85525     12.71837     47.03596         0.015419     -0.011614     -0.088495
      3.68432      8.20234     47.03465        -0.010616     -0.016627     -0.072753
      3.68186     17.23373     47.03465        -0.004675     -0.003350     -0.082259
     12.71472      8.20234     47.03465         0.000236     -0.002969     -0.079094
     12.71226     17.23373     47.03465        -0.009478     -0.013361     -0.076712
      8.20068      5.34457     47.03603        -0.026337      0.018064     -0.095056
      8.19822     14.37597     47.03603        -0.022540      0.023700     -0.100269
     17.23108      5.34457     47.03603        -0.021182      0.018577     -0.108264
     17.22862     14.37597     47.03603        -0.032552      0.025479     -0.093935
      5.34365      0.82909     47.03465         0.012894      0.013185     -0.076215
      5.34119      9.86049     47.03465         0.008622      0.005816     -0.077331
     14.37405      0.82909     47.03465         0.011097      0.007009     -0.083589
     14.37159      9.86049     47.03465         0.018117      0.021378     -0.072359
     13.76574      9.97353     34.62384        -0.185483     -0.321740     -0.752781
      8.83498      0.27078     34.46963         0.077479      0.000261     -0.002632
      8.72054      9.36004     34.75681         0.053725     -0.105608     -0.142783
     17.85590      0.07806     34.55150         0.040942      0.012300     -0.014426
      0.49766      9.19246     34.74311        -0.093496     -0.060040     -0.094627
      4.52136      4.47030     34.47127        -0.003199     -0.016798     -0.102463
      4.49906     13.59336     34.50657         0.064875     -0.000845      0.110552
     13.25484      3.98858     34.93457         0.156668      0.189235     -0.234078
     13.03756     14.07398     34.11977        -0.188792      0.199387      0.195075
      0.07106      0.05350     40.93925        -0.012788      0.000661     -0.081863
      0.33420      9.04055     41.00000        -0.055731     -0.062037      0.041849
      9.04246     18.02968     40.88849        -0.071079      0.016579      0.014240
      9.05358      8.89512     40.95490        -0.000467      0.002379      0.037769
      4.53772      4.42931     40.83337         0.035042     -0.007517      0.155513
      4.59177     13.64678     40.93777        -0.035979     -0.039720     -0.061460
     13.35522      4.64390     41.02590         0.042293     -0.055097      0.029548
     13.62111     13.63585     40.85948         0.003880      0.003690     -0.001487
      2.57682      1.92722     37.94570         0.081224      0.044807      0.011456
      2.63302     11.00080     38.06962         0.100498      0.082643      0.048856
     11.61898      1.87220     38.08421         0.024135      0.014975      0.027587
     11.19503     11.41856     38.41999         0.135172     -0.184610     -0.169904
      6.42633      7.11451     37.95327        -0.091305     -0.064978      0.058110
      6.55954     16.08763     37.97881         0.009087      0.002591      0.080553
     15.86746      6.74512     38.32393        -0.018054      0.026174     -0.029108
     15.49678     16.19601     38.06171        -0.012118     -0.082498      0.048699
      2.08846      6.39276     37.98185        -0.187168      0.052530      0.049092
      2.06357     15.62917     38.10619         0.054008      0.077987     -0.033602
     10.62243      6.17760     38.03330         0.029870      0.026352     -0.019786
     10.97496     15.56103     38.13129        -0.077671      0.097733     -0.030709
      7.05850      2.55897     38.06053        -0.004137     -0.134550      0.006496
      6.94570     11.54745     38.24833         0.115419     -0.129139      0.035678
     16.02913      2.47145     38.19642        -0.075599      0.168136      0.040167
     16.51558     11.73434     38.46055        -0.208721     -0.024598     -0.128681
      0.00000      0.00000     47.17356        -0.000564      0.002615      0.458455
     -0.00246      9.03140     47.17356        -0.000778     -0.001879      0.513202
      9.03040      0.00000     47.17356        -0.000647     -0.000679      0.411072
      9.02794      9.03140     47.17356        -0.002064      0.000464      0.501329
      4.51398      4.51570     47.17425         0.001544     -0.003364      0.364867
      4.51152     13.54710     47.17425         0.004247      0.005577      0.482553
     13.54438      4.51570     47.17425         0.003434     -0.000421      0.522537
     13.54192     13.54710     47.17425         0.003491      0.002263      0.319159
      2.45192      2.06295     44.04013         0.037757     -0.008216      0.019579
      2.44946     11.09435     44.04013         0.069969     -0.010072      0.079240
     11.48232      2.06295     44.04013         0.018740     -0.036799      0.014840
     11.47986     11.09435     44.04013         0.040852      0.010496      0.042309
      6.57602      6.96845     44.04013        -0.027931     -0.017432     -0.013285
      6.57356     15.99985     44.04013         0.020649      0.034211     -0.007961
     15.60642      6.96845     44.04013        -0.037028      0.050802     -0.040710
     15.60396     15.99985     44.04013        -0.034115      0.039131      0.028372
      2.06108      6.57881     44.04000         0.064980     -0.038770     -0.026442
      2.05862     15.61021     44.04000        -0.012147      0.017831      0.035133
     11.09148      6.57881     44.04000        -0.028315     -0.031858      0.042530
     11.08902     15.61021     44.04000        -0.002793     -0.003204     -0.002308
      6.96686      2.45259     44.04007        -0.030092     -0.036678     -0.047213
      6.96440     11.48399     44.04007        -0.002047      0.006041      0.009926
     15.99726      2.45259     44.04007         0.002411     -0.004910     -0.029207
     15.99481     11.48399     44.04007         0.036316      0.008906     -0.035623
      2.43163      2.08322     50.06849         0.014341     -0.006645      0.020185
      2.42917     11.11462     50.06849         0.011747     -0.007415      0.022344
     11.46203      2.08322     50.06849         0.000653     -0.020928      0.021125
     11.45957     11.11462     50.06849         0.023981      0.004754      0.021813
      6.59631      6.94818     50.06849        -0.019579      0.000178      0.022385
      6.59385     15.97958     50.06849        -0.001732      0.018655      0.020716
     15.62671      6.94818     50.06849        -0.007996      0.010582      0.021717
     15.62425     15.97958     50.06849        -0.018338      0.003175      0.020425
      2.08113      6.59901     50.06905        -0.000154     -0.020833      0.022459
      2.07867     15.63041     50.06905        -0.014147     -0.004237      0.021385
     11.11153      6.59901     50.06905        -0.011170     -0.008716      0.022961
     11.10907     15.63041     50.06905        -0.004532     -0.015062      0.020234
      6.94681      2.43239     50.06905         0.009487      0.009808      0.021190
      6.94435     11.46379     50.06905         0.009135      0.012433      0.022745
     15.97721      2.43239     50.06905         0.016935      0.002163      0.021239
     15.97475     11.46379     50.06905        -0.003503      0.024746      0.021960
     18.01114      0.09549     37.73852        -0.056220     -0.165822     -0.012309
      0.13411      9.06426     37.88876        -0.098129      0.111556     -0.186438
      8.99272      0.12466     37.68608         0.097789      0.009010     -0.030251
      8.97207      9.00941     37.78648         0.075452      0.114022      0.040279
      4.48134      4.48844     37.64840         0.170962      0.008586      0.087735
      4.56854     13.57659     37.70671        -0.235485     -0.022686     -0.141445
     13.43317      4.55659     37.97974         0.031146      0.005714     -0.214572
     13.41443     13.76064     37.77374         0.043190     -0.122122     -0.124935
      0.00001      0.00001     44.04300         0.031061     -0.034004      0.101287
     -0.00245      9.03141     44.04300         0.090858      0.009153      0.167348
      9.03041      0.00001     44.04300         0.020365      0.024347      0.044223
      9.02795      9.03141     44.04300         0.045969      0.019179      0.126680
      4.51397      4.51569     44.04275        -0.003093      0.009560     -0.013361
      4.51151     13.54709     44.04275        -0.053209     -0.038871      0.053336
     13.54437      4.51569     44.04275        -0.047441     -0.021839      0.337422
     13.54191     13.54709     44.04275        -0.071880     -0.020474      0.052566
      0.00000      0.00000     50.44728         0.001488      0.003655     -0.635839
     -0.00246      9.03140     50.44728         0.001621     -0.003502     -0.651433
      9.03040      0.00000     50.44728        -0.001099      0.004780     -0.625131
      9.02794      9.03140     50.44728        -0.001282     -0.004122     -0.651535
      4.51397      4.51570     50.44728        -0.001169      0.009641     -0.612944
      4.51151     13.54710     50.44728        -0.000580     -0.009631     -0.645436
     13.54437      4.51570     50.44728         0.000063      0.009874     -0.653406
     13.54191     13.54710     50.44728         0.002672     -0.009240     -0.600418
 -----------------------------------------------------------------------------------
    total drift:                               -0.060364     -0.044924      0.261273


--------------------------------------------------------------------------------------------------------



  FREE ENERGIE OF THE ION-ELECTRON SYSTEM (eV)
  ---------------------------------------------------
  free  energy   TOTEN  =     -1571.72378975 eV

  energy  without entropy=    -1571.72378975  energy(sigma->0) =    -1571.72378975
 


--------------------------------------------------------------------------------------------------------


    POTLOK:  cpu time    0.5022: real time    0.5021


--------------------------------------------------------------------------------------------------------


     LOOP+:  cpu time  325.3795: real time  325.9214
 vacuum level on the upper side and lower side of the slab         2.334         1.539
    4ORBIT:  cpu time    0.0000: real time    0.0000

 total amount of memory used by VASP MPI-rank0  8653582. kBytes
=======================================================================

   base      :      30000. kBytes
   nonlr-proj:      53620. kBytes
   fftplans  :     249280. kBytes
   grid      :     701440. kBytes
   one-center:       2636. kBytes
   wavefun   :    7616606. kBytes
 
  
  
 General timing and accounting informations for this job:
 ========================================================
  
                  Total CPU time used (sec):      536.577
                            User time (sec):      430.055
                          System time (sec):      106.522
                         Elapsed time (sec):      539.850
  
                   Maximum memory used (kb):    10309532.
                   Average memory used (kb):          N/A
  
                          Minor page faults:      3756954
                          Major page faults:           12
                 Voluntary context switches:        11416
