<?xml version="1.0" encoding="ISO-8859-1"?>
<modeling>
 <generator>
  <i name="program" type="string">vasp </i>
  <i name="version" type="string">6.2.1  </i>
  <i name="subversion" type="string">16May21 (build Nov 15 2021 14:57:28) complex                          parallel </i>
  <i name="platform" type="string">LinuxPGI </i>
  <i name="date" type="string">2023 07 30 </i>
  <i name="time" type="string">17:26:07 </i>
 </generator>
 <incar>
  <i type="string" name="SYSTEM">PSC</i>
  <i type="int" name="ISTART">     1</i>
  <i type="string" name="PREC">Normal</i>
  <i name="BMIX">      0.01000000</i>
  <i name="AMIN">      0.01000000</i>
  <i type="int" name="ICHARG">     1</i>
  <i type="int" name="NELM">   600</i>
  <i type="int" name="ISYM">     0</i>
  <i name="ENCUT">    500.00000000</i>
  <i type="string" name="LREAL">Auto</i>
  <i type="int" name="ISMEAR">     0</i>
  <i name="SIGMA">      0.05000000</i>
  <i type="logical" name="LWAVE"> F  </i>
  <i type="logical" name="LVTOT"> T  </i>
  <i type="logical" name="GGA_COMPAT"> F  </i>
  <i type="logical" name="LDIPOL"> T  </i>
  <i type="int" name="IDIPOL">     3</i>
  <i type="int" name="IVDW">    12</i>
 </incar>
 <primitive_cell>
  <structure name="primitive_cell" >
   <crystal>
    <varray name="basis" >
     <v>      18.06080055       0.00000000       0.00000000 </v>
     <v>      -0.00491865      18.06279945       0.00000000 </v>
     <v>       0.00000000       0.00000000      62.48749924 </v>
    </varray>
    <i name="volume">  20385.21054034 </i>
    <varray name="rec_basis" >
     <v>       0.05536853       0.00001508      -0.00000000 </v>
     <v>       0.00000000       0.05536240       0.00000000 </v>
     <v>       0.00000000      -0.00000000       0.01600320 </v>
    </varray>
   </crystal>
   <varray name="positions" >
    <v>       0.44671494       0.30132327       0.58240903 </v>
    <v>       0.44407196       0.83428855       0.57881120 </v>
    <v>       0.95243274       0.26706955       0.58600130 </v>
    <v>       0.96858874       0.80613380       0.58636020 </v>
    <v>       0.30037901       0.04388391       0.58323726 </v>
    <v>       0.30357387       0.55162507       0.58277342 </v>
    <v>       0.77536200       0.06673502       0.58170430 </v>
    <v>       0.10410441       0.19466089       0.55385950 </v>
    <v>       0.08257773       0.67884826       0.55699996 </v>
    <v>       0.58015050       0.17777187       0.55776751 </v>
    <v>       0.53549376       0.65730178       0.56644960 </v>
    <v>       0.35597522       0.04529761       0.55992522 </v>
    <v>       0.31004552       0.59910937       0.55851741 </v>
    <v>       0.83555293       0.07489551       0.55975069 </v>
    <v>       0.07441045       0.20322933       0.58075196 </v>
    <v>       0.04528275       0.69182910       0.58221057 </v>
    <v>       0.56209442       0.22503022       0.58095677 </v>
    <v>       0.50602747       0.71118859       0.58735149 </v>
    <v>       0.22448168       0.43683278       0.58272416 </v>
    <v>       0.18044881       0.97460996       0.58088156 </v>
    <v>       0.68751112       0.96188602       0.58127904 </v>
    <v>       0.38845469       0.29495397       0.56006930 </v>
    <v>       0.44146809       0.85612858       0.55175092 </v>
    <v>       0.90498742       0.29046968       0.56284561 </v>
    <v>       0.95680470       0.86242909       0.56445781 </v>
    <v>       0.18411523       0.41229832       0.55813019 </v>
    <v>       0.15829200       0.93683192       0.55579397 </v>
    <v>       0.69223264       0.89997721       0.55878382 </v>
    <v>       0.46958918       0.21583228       0.54176223 </v>
    <v>       0.49983458       0.74806964       0.54027890 </v>
    <v>       0.99663856       0.24984654       0.54009350 </v>
    <v>       0.03051164       0.78586054       0.54257184 </v>
    <v>       0.23532224       0.51375887       0.54049867 </v>
    <v>       0.27002183       0.97788350       0.54043024 </v>
    <v>       0.78437764       0.96771534       0.54305552 </v>
    <v>       0.45278465       0.30712044       0.67597346 </v>
    <v>       0.43954279       0.81413952       0.67441468 </v>
    <v>       0.95384442       0.28843733       0.67835290 </v>
    <v>       0.94246784       0.80616733       0.67519401 </v>
    <v>       0.30295153       0.04946246       0.67470093 </v>
    <v>       0.29520548       0.55294469       0.67685492 </v>
    <v>       0.81024515       0.04933588       0.67537599 </v>
    <v>       0.83324113       0.53844929       0.67339354 </v>
    <v>       0.08478277       0.17154991       0.64791542 </v>
    <v>       0.08880184       0.68513895       0.65404628 </v>
    <v>       0.57078442       0.16442874       0.65105325 </v>
    <v>       0.56919076       0.66757827       0.65664385 </v>
    <v>       0.18618587       0.41132494       0.64759364 </v>
    <v>       0.16954626       0.91973927       0.65050957 </v>
    <v>       0.65961911       0.44328191       0.65427478 </v>
    <v>       0.66453450       0.93416185       0.65093824 </v>
    <v>       0.06264900       0.19050128       0.67413087 </v>
    <v>       0.04427271       0.70313367       0.67786941 </v>
    <v>       0.55491829       0.20073993       0.67568794 </v>
    <v>       0.53667679       0.70604636       0.68054347 </v>
    <v>       0.20512000       0.43775357       0.67377624 </v>
    <v>       0.19983306       0.94787608       0.67587059 </v>
    <v>       0.71860983       0.44567153       0.67697409 </v>
    <v>       0.69670009       0.95857536       0.67622351 </v>
    <v>       0.41551043       0.32362954       0.65101052 </v>
    <v>       0.42420074       0.83475956       0.64776494 </v>
    <v>       0.91984279       0.31976863       0.65393738 </v>
    <v>       0.92869965       0.84036234       0.64983304 </v>
    <v>       0.32893928       0.07545749       0.64915077 </v>
    <v>       0.32561715       0.58704351       0.65200529 </v>
    <v>       0.83903844       0.07374006       0.64967999 </v>
    <v>       0.83936485       0.57836488       0.64782537 </v>
    <v>       0.99564832       0.25241571       0.63350226 </v>
    <v>       0.02259436       0.77029668       0.63485537 </v>
    <v>       0.48442192       0.23643337       0.63346557 </v>
    <v>       0.50496451       0.74406456       0.63476545 </v>
    <v>       0.24831817       0.99551190       0.63185441 </v>
    <v>       0.25807448       0.50157517       0.63197052 </v>
    <v>       0.75090525       0.00217222       0.63236391 </v>
    <v>       0.73330915       0.52371446       0.63470495 </v>
    <v>       0.44874502       0.30128397       0.76888902 </v>
    <v>       0.44874501       0.80128391       0.76888902 </v>
    <v>       0.94874497       0.30128397       0.76888902 </v>
    <v>       0.94874501       0.80128391       0.76888902 </v>
    <v>       0.30127600       0.05129450       0.76887296 </v>
    <v>       0.30127601       0.55129450       0.76887296 </v>
    <v>       0.80127594       0.05129450       0.76887296 </v>
    <v>       0.80127598       0.55129450       0.76887296 </v>
    <v>       0.07877100       0.17118050       0.74344197 </v>
    <v>       0.07877101       0.67118045       0.74344197 </v>
    <v>       0.57877100       0.17118050       0.74344197 </v>
    <v>       0.57877099       0.67118045       0.74344197 </v>
    <v>       0.17119950       0.42117448       0.74342103 </v>
    <v>       0.17119950       0.92117451       0.74342103 </v>
    <v>       0.67119951       0.42117448       0.74342103 </v>
    <v>       0.67119950       0.92117451       0.74342103 </v>
    <v>       0.05125600       0.19871499       0.76888902 </v>
    <v>       0.05125600       0.69871493       0.76888902 </v>
    <v>       0.55125603       0.19871499       0.76888902 </v>
    <v>       0.55125602       0.69871493       0.76888902 </v>
    <v>       0.19872349       0.44870397       0.76887205 </v>
    <v>       0.19872349       0.94870397       0.76887205 </v>
    <v>       0.69872352       0.44870397       0.76887205 </v>
    <v>       0.69872351       0.94870397       0.76887205 </v>
    <v>       0.42123152       0.32881747       0.74344197 </v>
    <v>       0.42123151       0.82881744       0.74344197 </v>
    <v>       0.92123147       0.32881747       0.74344197 </v>
    <v>       0.92123151       0.82881744       0.74344197 </v>
    <v>       0.32880050       0.07882500       0.74342103 </v>
    <v>       0.32880049       0.57882496       0.74342103 </v>
    <v>       0.82880048       0.07882500       0.74342103 </v>
    <v>       0.82880052       0.57882496       0.74342103 </v>
    <v>       0.00000350       0.25000148       0.72582199 </v>
    <v>       0.00000350       0.75000145       0.72582199 </v>
    <v>       0.50000351       0.25000148       0.72582199 </v>
    <v>       0.50000350       0.75000145       0.72582199 </v>
    <v>       0.25000050       0.00000000       0.72580398 </v>
    <v>       0.25000052       0.50000000       0.72580398 </v>
    <v>       0.75000050       0.00000000       0.72580398 </v>
    <v>       0.75000049       0.50000000       0.72580398 </v>
    <v>       0.71774456       0.44846474       0.54547946 </v>
    <v>       0.73999866       0.50817499       0.52398652 </v>
    <v>       0.64859601       0.54141647       0.56063441 </v>
    <v>       0.68444418       0.63507041       0.56344259 </v>
    <v>       0.83496098       0.50992085       0.57794799 </v>
    <v>       0.77260049       0.57513678       0.58740991 </v>
    <v>       0.86844689       0.55958279       0.54126066 </v>
    <v>       0.80619624       0.61982212       0.52837912 </v>
    <v>       0.86898076       0.48079478       0.52493623 </v>
    <v>       0.86374909       0.44645674       0.55078308 </v>
    <v>       0.88731418       0.35137721       0.52641132 </v>
    <v>       0.79785840       0.33615648       0.53681629 </v>
    <v>       0.61802162       0.54983639       0.52651473 </v>
    <v>       0.68960233       0.61269754       0.51867570 </v>
    <v>       0.61119504       0.64550767       0.53236258 </v>
    <v>       0.73281567       0.45244696       0.60156014 </v>
    <v>       0.74172956       0.41103698       0.57700750 </v>
    <v>       0.66905057       0.47200587       0.58197743 </v>
    <v>       0.83576126       0.67682067       0.57177324 </v>
    <v>       0.87535547       0.70666732       0.54738390 </v>
    <v>       0.91850938       0.63571855       0.56284018 </v>
    <v>       0.83754957       0.39959477       0.49292910 </v>
    <v>       0.80321953       0.30915320       0.49911613 </v>
    <v>       0.67001911       0.31653751       0.52272815 </v>
    <v>       0.75177379       0.48622006       0.48001761 </v>
    <v>       0.54129092       0.36596392       0.51885707 </v>
    <v>       0.62292914       0.53651637       0.47617453 </v>
    <v>       0.51699257       0.47935457       0.49657686 </v>
    <v>       0.00306740       0.24407475       0.55751459 </v>
    <v>       0.01993288       0.77154334       0.55943324 </v>
    <v>       0.48323719       0.23614290       0.55775542 </v>
    <v>       0.49046247       0.75812565       0.55780419 </v>
    <v>       0.24593631       0.50534392       0.55758735 </v>
    <v>       0.25829245       0.99125479       0.55719781 </v>
    <v>       0.76322478       0.98702293       0.55855025 </v>
    <v>       0.00182854       0.24618967       0.65043863 </v>
    <v>       0.00983904       0.76292564       0.65128304 </v>
    <v>       0.49223400       0.24421350       0.65031959 </v>
    <v>       0.49666890       0.75232534       0.65154078 </v>
    <v>       0.25609867       0.49893254       0.64917928 </v>
    <v>       0.24959818       0.99820319       0.64914687 </v>
    <v>       0.75097557       0.51168519       0.65097163 </v>
    <v>       0.75219621       0.00399853       0.64966632 </v>
    <v>       0.49998898       0.24999498       0.74327702 </v>
    <v>       0.49998903       0.74999496       0.74327702 </v>
    <v>       0.99998898       0.24999498       0.74327702 </v>
    <v>       0.99998903       0.74999496       0.74327702 </v>
    <v>       0.25000050       0.00000100       0.74325596 </v>
    <v>       0.25000052       0.50000100       0.74325596 </v>
    <v>       0.75000050       0.00000100       0.74325596 </v>
    <v>       0.75000049       0.50000100       0.74325596 </v>
    <v>       0.71945471       0.39632041       0.50178939 </v>
    <v>       0.65772644       0.36365886       0.51243587 </v>
    <v>       0.70474772       0.45879234       0.48815296 </v>
    <v>       0.58684297       0.39218891       0.51036221 </v>
    <v>       0.63167087       0.48667581       0.48652764 </v>
    <v>       0.57411155       0.45399140       0.49733574 </v>
    <v>       0.75995075       0.48433730       0.53852135 </v>
    <v>       0.68402668       0.58529675       0.55344505 </v>
    <v>       0.77659994       0.52648919       0.57702587 </v>
    <v>       0.82495254       0.59987831       0.54456320 </v>
    <v>       0.83293055       0.44950861       0.53575254 </v>
    <v>       0.83004013       0.37310257       0.52674873 </v>
    <v>       0.65027055       0.59853266       0.53130921 </v>
    <v>       0.72755499       0.46322123       0.58446315 </v>
    <v>       0.86546493       0.65852489       0.55754517 </v>
    <v>       0.79911107       0.36875571       0.50387764 </v>
    <v>       0.06314514       0.21256920       0.56462288 </v>
    <v>       0.05090724       0.71033565       0.56647414 </v>
    <v>       0.54390972       0.20973443       0.56633056 </v>
    <v>       0.51466192       0.70811376       0.57119347 </v>
    <v>       0.43779350       0.28126490       0.56712027 </v>
    <v>       0.45737489       0.81889126       0.56269586 </v>
    <v>       0.95094766       0.26889075       0.56974189 </v>
    <v>       0.97900556       0.81601347       0.57098402 </v>
    <v>       0.21705091       0.44762484       0.56687650 </v>
    <v>       0.19478416       0.96616242       0.56541601 </v>
    <v>       0.71010434       0.94875512       0.56688334 </v>
    <v>       0.30700412       0.02946061       0.56763593 </v>
    <v>       0.28868543       0.55500243       0.56723497 </v>
    <v>       0.79398167       0.04630066       0.56765840 </v>
    <v>       0.05332701       0.19973956       0.65825800 </v>
    <v>       0.05051068       0.71305188       0.66210112 </v>
    <v>       0.54301110       0.20078149       0.65981599 </v>
    <v>       0.53570400       0.70645961       0.66372827 </v>
    <v>       0.21437642       0.44624080       0.65723131 </v>
    <v>       0.20223973       0.95172029       0.65902714 </v>
    <v>       0.70710696       0.46396235       0.66156030 </v>
    <v>       0.70035653       0.96205941       0.65943152 </v>
    <v>       0.45210277       0.29343583       0.65962211 </v>
    <v>       0.45174562       0.80207319       0.65821924 </v>
    <v>       0.95635002       0.28672080       0.66189569 </v>
    <v>       0.95635439       0.80473192       0.65962375 </v>
    <v>       0.29565357       0.04261931       0.65807828 </v>
    <v>       0.29275408       0.54858967       0.65999303 </v>
    <v>       0.80246460       0.04353432       0.65867416 </v>
    <v>       0.81028953       0.54327331       0.65796156 </v>
    <v>       0.04586250       0.20411950       0.75272599 </v>
    <v>       0.04586250       0.70411946       0.75272599 </v>
    <v>       0.54586251       0.20411950       0.75272599 </v>
    <v>       0.54586250       0.70411946       0.75272599 </v>
    <v>       0.20411900       0.45410100       0.75270499 </v>
    <v>       0.20411899       0.95410095       0.75270499 </v>
    <v>       0.70411898       0.45410100       0.75270499 </v>
    <v>       0.70411896       0.95410095       0.75270499 </v>
    <v>       0.45414002       0.29588849       0.75272697 </v>
    <v>       0.45414001       0.79588852       0.75272697 </v>
    <v>       0.95414002       0.29588849       0.75272697 </v>
    <v>       0.95414006       0.79588852       0.75272697 </v>
    <v>       0.29588249       0.04590050       0.75270499 </v>
    <v>       0.29588248       0.54590053       0.75270499 </v>
    <v>       0.79588244       0.04590050       0.75270499 </v>
    <v>       0.79588248       0.54590053       0.75270499 </v>
    <v>       0.76233910       0.55215880       0.55409233 </v>
    <v>       0.48918369       0.01499108       0.55162437 </v>
    <v>       0.48298488       0.51819419       0.55622026 </v>
    <v>       0.98865636       0.00432159       0.55293463 </v>
    <v>       0.02769328       0.50891695       0.55600098 </v>
    <v>       0.25040854       0.24748678       0.55165062 </v>
    <v>       0.24931112       0.75256108       0.55221555 </v>
    <v>       0.73396094       0.22081738       0.55906494 </v>
    <v>       0.72208298       0.77916912       0.54602547 </v>
    <v>       0.00393550       0.00296195       0.65515899 </v>
    <v>       0.01864069       0.50050670       0.65613123 </v>
    <v>       0.50093967       0.99816645       0.65434676 </v>
    <v>       0.50141761       0.49245516       0.65540947 </v>
    <v>       0.25131363       0.24521708       0.65346469 </v>
    <v>       0.25444538       0.75551839       0.65513543 </v>
    <v>       0.73952866       0.25709736       0.65654568 </v>
    <v>       0.75438650       0.75491349       0.65388249 </v>
    <v>       0.14270353       0.10669537       0.60725268 </v>
    <v>       0.14595231       0.60903053       0.60923575 </v>
    <v>       0.64335411       0.10364949       0.60946919 </v>
    <v>       0.62002475       0.63215909       0.61484282 </v>
    <v>       0.35592394       0.39387638       0.60737386 </v>
    <v>       0.36343443       0.89064973       0.60778245 </v>
    <v>       0.87865977       0.37342625       0.61330559 </v>
    <v>       0.85827821       0.89664998       0.60910913 </v>
    <v>       0.11573124       0.35391837       0.60783117 </v>
    <v>       0.11449254       0.86526860       0.60982095 </v>
    <v>       0.58824148       0.34200652       0.60865458 </v>
    <v>       0.60790226       0.86149616       0.61022270 </v>
    <v>       0.39085724       0.14167094       0.60909033 </v>
    <v>       0.38474706       0.63929475       0.61209569 </v>
    <v>       0.88754681       0.13682527       0.61126502 </v>
    <v>       0.91462029       0.64964131       0.61549194 </v>
    <v>       0.00000000       0.00000000       0.75492797 </v>
    <v>       0.00000000       0.50000000       0.75492797 </v>
    <v>       0.50000000       0.00000000       0.75492797 </v>
    <v>       0.49999999       0.50000000       0.75492797 </v>
    <v>       0.25000050       0.25000000       0.75493902 </v>
    <v>       0.25000051       0.74999997       0.75493902 </v>
    <v>       0.75000047       0.25000000       0.75493902 </v>
    <v>       0.75000046       0.74999997       0.75493902 </v>
    <v>       0.13579050       0.11421000       0.70478299 </v>
    <v>       0.13579050       0.61420998       0.70478299 </v>
    <v>       0.63579045       0.11421000       0.70478299 </v>
    <v>       0.63579049       0.61420998       0.70478299 </v>
    <v>       0.36420952       0.38578999       0.70478299 </v>
    <v>       0.36420950       0.88578996       0.70478299 </v>
    <v>       0.86420954       0.38578999       0.70478299 </v>
    <v>       0.86420953       0.88578996       0.70478299 </v>
    <v>       0.11421799       0.36421899       0.70478098 </v>
    <v>       0.11421799       0.86421899       0.70478098 </v>
    <v>       0.61421800       0.36421899       0.70478098 </v>
    <v>       0.61421799       0.86421899       0.70478098 </v>
    <v>       0.38578201       0.13578149       0.70478202 </v>
    <v>       0.38578200       0.63578149       0.70478202 </v>
    <v>       0.88578199       0.13578149       0.70478202 </v>
    <v>       0.88578203       0.63578149       0.70478202 </v>
    <v>       0.13466700       0.11533200       0.80125603 </v>
    <v>       0.13466699       0.61533199       0.80125603 </v>
    <v>       0.63466699       0.11533200       0.80125603 </v>
    <v>       0.63466698       0.61533199       0.80125603 </v>
    <v>       0.36533300       0.38466799       0.80125603 </v>
    <v>       0.36533299       0.88466796       0.80125603 </v>
    <v>       0.86533295       0.38466799       0.80125603 </v>
    <v>       0.86533294       0.88466796       0.80125603 </v>
    <v>       0.11532850       0.36533700       0.80126500 </v>
    <v>       0.11532850       0.86533698       0.80126500 </v>
    <v>       0.61532850       0.36533700       0.80126500 </v>
    <v>       0.61532849       0.86533698       0.80126500 </v>
    <v>       0.38467151       0.13466300       0.80126500 </v>
    <v>       0.38467150       0.63466297       0.80126500 </v>
    <v>       0.88467149       0.13466300       0.80126500 </v>
    <v>       0.88467153       0.63466297       0.80126500 </v>
    <v>       0.99725154       0.00528630       0.60393714 </v>
    <v>       0.00756225       0.50181920       0.60634143 </v>
    <v>       0.49791582       0.00690154       0.60309798 </v>
    <v>       0.49690595       0.49878248       0.60470463 </v>
    <v>       0.24819288       0.24849096       0.60249490 </v>
    <v>       0.25315805       0.75163264       0.60342813 </v>
    <v>       0.74384372       0.25226378       0.60779735 </v>
    <v>       0.74294469       0.76182212       0.60450067 </v>
    <v>       0.00000050       0.00000050       0.70482896 </v>
    <v>       0.00000050       0.50000048       0.70482896 </v>
    <v>       0.50000048       0.00000050       0.70482896 </v>
    <v>       0.50000046       0.50000048       0.70482896 </v>
    <v>       0.24999999       0.24999947       0.70482499 </v>
    <v>       0.25000001       0.74999950       0.70482499 </v>
    <v>       0.74999999       0.24999947       0.70482499 </v>
    <v>       0.74999998       0.74999950       0.70482499 </v>
    <v>       0.00000000       0.00000000       0.80731797 </v>
    <v>       0.00000000       0.50000000       0.80731797 </v>
    <v>       0.50000000       0.00000000       0.80731797 </v>
    <v>       0.49999999       0.50000000       0.80731797 </v>
    <v>       0.24999999       0.25000000       0.80731797 </v>
    <v>       0.25000001       0.74999997       0.80731797 </v>
    <v>       0.74999999       0.25000000       0.80731797 </v>
    <v>       0.74999998       0.74999997       0.80731797 </v>
   </varray>
  </structure>
  <varray name="primitive_index" >
   <v type="int" >        1 </v>
   <v type="int" >        2 </v>
   <v type="int" >        3 </v>
   <v type="int" >        4 </v>
   <v type="int" >        5 </v>
   <v type="int" >        6 </v>
   <v type="int" >        7 </v>
   <v type="int" >        8 </v>
   <v type="int" >        9 </v>
   <v type="int" >       10 </v>
   <v type="int" >       11 </v>
   <v type="int" >       12 </v>
   <v type="int" >       13 </v>
   <v type="int" >       14 </v>
   <v type="int" >       15 </v>
   <v type="int" >       16 </v>
   <v type="int" >       17 </v>
   <v type="int" >       18 </v>
   <v type="int" >       19 </v>
   <v type="int" >       20 </v>
   <v type="int" >       21 </v>
   <v type="int" >       22 </v>
   <v type="int" >       23 </v>
   <v type="int" >       24 </v>
   <v type="int" >       25 </v>
   <v type="int" >       26 </v>
   <v type="int" >       27 </v>
   <v type="int" >       28 </v>
   <v type="int" >       29 </v>
   <v type="int" >       30 </v>
   <v type="int" >       31 </v>
   <v type="int" >       32 </v>
   <v type="int" >       33 </v>
   <v type="int" >       34 </v>
   <v type="int" >       35 </v>
   <v type="int" >       36 </v>
   <v type="int" >       37 </v>
   <v type="int" >       38 </v>
   <v type="int" >       39 </v>
   <v type="int" >       40 </v>
   <v type="int" >       41 </v>
   <v type="int" >       42 </v>
   <v type="int" >       43 </v>
   <v type="int" >       44 </v>
   <v type="int" >       45 </v>
   <v type="int" >       46 </v>
   <v type="int" >       47 </v>
   <v type="int" >       48 </v>
   <v type="int" >       49 </v>
   <v type="int" >       50 </v>
   <v type="int" >       51 </v>
   <v type="int" >       52 </v>
   <v type="int" >       53 </v>
   <v type="int" >       54 </v>
   <v type="int" >       55 </v>
   <v type="int" >       56 </v>
   <v type="int" >       57 </v>
   <v type="int" >       58 </v>
   <v type="int" >       59 </v>
   <v type="int" >       60 </v>
   <v type="int" >       61 </v>
   <v type="int" >       62 </v>
   <v type="int" >       63 </v>
   <v type="int" >       64 </v>
   <v type="int" >       65 </v>
   <v type="int" >       66 </v>
   <v type="int" >       67 </v>
   <v type="int" >       68 </v>
   <v type="int" >       69 </v>
   <v type="int" >       70 </v>
   <v type="int" >       71 </v>
   <v type="int" >       72 </v>
   <v type="int" >       73 </v>
   <v type="int" >       74 </v>
   <v type="int" >       75 </v>
   <v type="int" >       76 </v>
   <v type="int" >       77 </v>
   <v type="int" >       78 </v>
   <v type="int" >       79 </v>
   <v type="int" >       80 </v>
   <v type="int" >       81 </v>
   <v type="int" >       82 </v>
   <v type="int" >       83 </v>
   <v type="int" >       84 </v>
   <v type="int" >       85 </v>
   <v type="int" >       86 </v>
   <v type="int" >       87 </v>
   <v type="int" >       88 </v>
   <v type="int" >       89 </v>
   <v type="int" >       90 </v>
   <v type="int" >       91 </v>
   <v type="int" >       92 </v>
   <v type="int" >       93 </v>
   <v type="int" >       94 </v>
   <v type="int" >       95 </v>
   <v type="int" >       96 </v>
   <v type="int" >       97 </v>
   <v type="int" >       98 </v>
   <v type="int" >       99 </v>
   <v type="int" >      100 </v>
   <v type="int" >      101 </v>
   <v type="int" >      102 </v>
   <v type="int" >      103 </v>
   <v type="int" >      104 </v>
   <v type="int" >      105 </v>
   <v type="int" >      106 </v>
   <v type="int" >      107 </v>
   <v type="int" >      108 </v>
   <v type="int" >      109 </v>
   <v type="int" >      110 </v>
   <v type="int" >      111 </v>
   <v type="int" >      112 </v>
   <v type="int" >      113 </v>
   <v type="int" >      114 </v>
   <v type="int" >      115 </v>
   <v type="int" >      116 </v>
   <v type="int" >      117 </v>
   <v type="int" >      118 </v>
   <v type="int" >      119 </v>
   <v type="int" >      120 </v>
   <v type="int" >      121 </v>
   <v type="int" >      122 </v>
   <v type="int" >      123 </v>
   <v type="int" >      124 </v>
   <v type="int" >      125 </v>
   <v type="int" >      126 </v>
   <v type="int" >      127 </v>
   <v type="int" >      128 </v>
   <v type="int" >      129 </v>
   <v type="int" >      130 </v>
   <v type="int" >      131 </v>
   <v type="int" >      132 </v>
   <v type="int" >      133 </v>
   <v type="int" >      134 </v>
   <v type="int" >      135 </v>
   <v type="int" >      136 </v>
   <v type="int" >      137 </v>
   <v type="int" >      138 </v>
   <v type="int" >      139 </v>
   <v type="int" >      140 </v>
   <v type="int" >      141 </v>
   <v type="int" >      142 </v>
   <v type="int" >      143 </v>
   <v type="int" >      144 </v>
   <v type="int" >      145 </v>
   <v type="int" >      146 </v>
   <v type="int" >      147 </v>
   <v type="int" >      148 </v>
   <v type="int" >      149 </v>
   <v type="int" >      150 </v>
   <v type="int" >      151 </v>
   <v type="int" >      152 </v>
   <v type="int" >      153 </v>
   <v type="int" >      154 </v>
   <v type="int" >      155 </v>
   <v type="int" >      156 </v>
   <v type="int" >      157 </v>
   <v type="int" >      158 </v>
   <v type="int" >      159 </v>
   <v type="int" >      160 </v>
   <v type="int" >      161 </v>
   <v type="int" >      162 </v>
   <v type="int" >      163 </v>
   <v type="int" >      164 </v>
   <v type="int" >      165 </v>
   <v type="int" >      166 </v>
   <v type="int" >      167 </v>
   <v type="int" >      168 </v>
   <v type="int" >      169 </v>
   <v type="int" >      170 </v>
   <v type="int" >      171 </v>
   <v type="int" >      172 </v>
   <v type="int" >      173 </v>
   <v type="int" >      174 </v>
   <v type="int" >      175 </v>
   <v type="int" >      176 </v>
   <v type="int" >      177 </v>
   <v type="int" >      178 </v>
   <v type="int" >      179 </v>
   <v type="int" >      180 </v>
   <v type="int" >      181 </v>
   <v type="int" >      182 </v>
   <v type="int" >      183 </v>
   <v type="int" >      184 </v>
   <v type="int" >      185 </v>
   <v type="int" >      186 </v>
   <v type="int" >      187 </v>
   <v type="int" >      188 </v>
   <v type="int" >      189 </v>
   <v type="int" >      190 </v>
   <v type="int" >      191 </v>
   <v type="int" >      192 </v>
   <v type="int" >      193 </v>
   <v type="int" >      194 </v>
   <v type="int" >      195 </v>
   <v type="int" >      196 </v>
   <v type="int" >      197 </v>
   <v type="int" >      198 </v>
   <v type="int" >      199 </v>
   <v type="int" >      200 </v>
   <v type="int" >      201 </v>
   <v type="int" >      202 </v>
   <v type="int" >      203 </v>
   <v type="int" >      204 </v>
   <v type="int" >      205 </v>
   <v type="int" >      206 </v>
   <v type="int" >      207 </v>
   <v type="int" >      208 </v>
   <v type="int" >      209 </v>
   <v type="int" >      210 </v>
   <v type="int" >      211 </v>
   <v type="int" >      212 </v>
   <v type="int" >      213 </v>
   <v type="int" >      214 </v>
   <v type="int" >      215 </v>
   <v type="int" >      216 </v>
   <v type="int" >      217 </v>
   <v type="int" >      218 </v>
   <v type="int" >      219 </v>
   <v type="int" >      220 </v>
   <v type="int" >      221 </v>
   <v type="int" >      222 </v>
   <v type="int" >      223 </v>
   <v type="int" >      224 </v>
   <v type="int" >      225 </v>
   <v type="int" >      226 </v>
   <v type="int" >      227 </v>
   <v type="int" >      228 </v>
   <v type="int" >      229 </v>
   <v type="int" >      230 </v>
   <v type="int" >      231 </v>
   <v type="int" >      232 </v>
   <v type="int" >      233 </v>
   <v type="int" >      234 </v>
   <v type="int" >      235 </v>
   <v type="int" >      236 </v>
   <v type="int" >      237 </v>
   <v type="int" >      238 </v>
   <v type="int" >      239 </v>
   <v type="int" >      240 </v>
   <v type="int" >      241 </v>
   <v type="int" >      242 </v>
   <v type="int" >      243 </v>
   <v type="int" >      244 </v>
   <v type="int" >      245 </v>
   <v type="int" >      246 </v>
   <v type="int" >      247 </v>
   <v type="int" >      248 </v>
   <v type="int" >      249 </v>
   <v type="int" >      250 </v>
   <v type="int" >      251 </v>
   <v type="int" >      252 </v>
   <v type="int" >      253 </v>
   <v type="int" >      254 </v>
   <v type="int" >      255 </v>
   <v type="int" >      256 </v>
   <v type="int" >      257 </v>
   <v type="int" >      258 </v>
   <v type="int" >      259 </v>
   <v type="int" >      260 </v>
   <v type="int" >      261 </v>
   <v type="int" >      262 </v>
   <v type="int" >      263 </v>
   <v type="int" >      264 </v>
   <v type="int" >      265 </v>
   <v type="int" >      266 </v>
   <v type="int" >      267 </v>
   <v type="int" >      268 </v>
   <v type="int" >      269 </v>
   <v type="int" >      270 </v>
   <v type="int" >      271 </v>
   <v type="int" >      272 </v>
   <v type="int" >      273 </v>
   <v type="int" >      274 </v>
   <v type="int" >      275 </v>
   <v type="int" >      276 </v>
   <v type="int" >      277 </v>
   <v type="int" >      278 </v>
   <v type="int" >      279 </v>
   <v type="int" >      280 </v>
   <v type="int" >      281 </v>
   <v type="int" >      282 </v>
   <v type="int" >      283 </v>
   <v type="int" >      284 </v>
   <v type="int" >      285 </v>
   <v type="int" >      286 </v>
   <v type="int" >      287 </v>
   <v type="int" >      288 </v>
   <v type="int" >      289 </v>
   <v type="int" >      290 </v>
   <v type="int" >      291 </v>
   <v type="int" >      292 </v>
   <v type="int" >      293 </v>
   <v type="int" >      294 </v>
   <v type="int" >      295 </v>
   <v type="int" >      296 </v>
   <v type="int" >      297 </v>
   <v type="int" >      298 </v>
   <v type="int" >      299 </v>
   <v type="int" >      300 </v>
   <v type="int" >      301 </v>
   <v type="int" >      302 </v>
   <v type="int" >      303 </v>
   <v type="int" >      304 </v>
   <v type="int" >      305 </v>
   <v type="int" >      306 </v>
   <v type="int" >      307 </v>
   <v type="int" >      308 </v>
   <v type="int" >      309 </v>
   <v type="int" >      310 </v>
   <v type="int" >      311 </v>
   <v type="int" >      312 </v>
   <v type="int" >      313 </v>
   <v type="int" >      314 </v>
   <v type="int" >      315 </v>
   <v type="int" >      316 </v>
   <v type="int" >      317 </v>
   <v type="int" >      318 </v>
   <v type="int" >      319 </v>
   <v type="int" >      320 </v>
   <v type="int" >      321 </v>
   <v type="int" >      322 </v>
   <v type="int" >      323 </v>
   <v type="int" >      324 </v>
   <v type="int" >      325 </v>
  </varray>
 </primitive_cell>
 <kpoints>
  <generation param="Gamma">
   <v type="int" name="divisions">       3        3        1 </v>
   <v name="usershift">      0.00000000       0.00000000       0.00000000 </v>
   <v name="genvec1">      0.33333333       0.00000000       0.00000000 </v>
   <v name="genvec2">      0.00000000       0.33333333       0.00000000 </v>
   <v name="genvec3">      0.00000000       0.00000000       1.00000000 </v>
   <v name="shift">      0.00000000       0.00000000       0.00000000 </v>
  </generation>
  <varray name="kpointlist" >
   <v>       0.00000000       0.00000000       0.00000000 </v>
   <v>       0.33333333       0.00000000       0.00000000 </v>
   <v>       0.00000000       0.33333333       0.00000000 </v>
   <v>       0.33333333       0.33333333       0.00000000 </v>
   <v>      -0.33333333       0.33333333       0.00000000 </v>
  </varray>
  <varray name="weights" >
   <v>       0.11111111 </v>
   <v>       0.22222222 </v>
   <v>       0.22222222 </v>
   <v>       0.22222222 </v>
   <v>       0.22222222 </v>
  </varray>
 </kpoints>
 <parameters>
  <separator name="general" >
   <i type="string" name="SYSTEM">PSC</i>
   <i type="logical" name="LCOMPAT"> F  </i>
  </separator>
  <separator name="electronic" >
   <i type="string" name="PREC">normal</i>
   <i name="ENMAX">    500.00000000</i>
   <i name="ENAUG">    644.87300000</i>
   <i name="EDIFF">      0.00010000</i>
   <i type="int" name="IALGO">    38</i>
   <i type="int" name="IWAVPR">    10</i>
   <i type="int" name="NBANDS">   732</i>
   <i type="int" name="NBANDSLOW">    -1</i>
   <i type="int" name="NBANDSHIGH">    -1</i>
   <i name="NELECT">   1134.00000000</i>
   <i type="int" name="TURBO">     0</i>
   <i type="int" name="IRESTART">     0</i>
   <i type="int" name="NREBOOT">     0</i>
   <i type="int" name="NMIN">     0</i>
   <i name="EREF">      0.00000000</i>
   <separator name="electronic smearing" >
    <i type="int" name="ISMEAR">     0</i>
    <i name="SIGMA">      0.05000000</i>
    <i name="KSPACING">      0.50000000</i>
    <i type="logical" name="KGAMMA"> T  </i>
    <i type="logical" name="KBLOWUP"> T  </i>
   </separator>
   <separator name="electronic projectors" >
    <i type="logical" name="LREAL"> T  </i>
    <v name="ROPT">     -0.00050000     -0.00050000     -0.00050000     -0.00050000     -0.00050000</v>
    <i type="int" name="LMAXPAW">  -100</i>
    <i type="int" name="LMAXMIX">     2</i>
    <i type="logical" name="NLSPLINE"> F  </i>
   </separator>
   <separator name="electronic startup" >
    <i type="int" name="ISTART">     0</i>
    <i type="int" name="ICHARG">     1</i>
    <i type="int" name="INIWAV">     1</i>
   </separator>
   <separator name="electronic spin" >
    <i type="int" name="ISPIN">     1</i>
    <i type="logical" name="LNONCOLLINEAR"> F  </i>
    <v name="MAGMOM">      1.00000000      1.00000000      1.00000000      1.00000000      1.00000000      1.00000000      1.00000000      1.00000000      1.00000000      1.00000000      1.00000000      1.00000000      1.00000000      1.00000000      1.00000000      1.00000000      1.00000000      1.00000000      1.00000000      1.00000000
      1.00000000      1.00000000      1.00000000      1.00000000      1.00000000      1.00000000      1.00000000      1.00000000      1.00000000      1.00000000      1.00000000      1.00000000      1.00000000      1.00000000      1.00000000      1.00000000      1.00000000      1.00000000      1.00000000      1.00000000
      1.00000000      1.00000000      1.00000000      1.00000000      1.00000000      1.00000000      1.00000000      1.00000000      1.00000000      1.00000000      1.00000000      1.00000000      1.00000000      1.00000000      1.00000000      1.00000000      1.00000000      1.00000000      1.00000000      1.00000000
      1.00000000      1.00000000      1.00000000      1.00000000      1.00000000      1.00000000      1.00000000      1.00000000      1.00000000      1.00000000      1.00000000      1.00000000      1.00000000      1.00000000      1.00000000      1.00000000      1.00000000      1.00000000      1.00000000      1.00000000
      1.00000000      1.00000000      1.00000000      1.00000000      1.00000000      1.00000000      1.00000000      1.00000000      1.00000000      1.00000000      1.00000000      1.00000000      1.00000000      1.00000000      1.00000000      1.00000000      1.00000000      1.00000000      1.00000000      1.00000000
      1.00000000      1.00000000      1.00000000      1.00000000      1.00000000      1.00000000      1.00000000      1.00000000      1.00000000      1.00000000      1.00000000      1.00000000      1.00000000      1.00000000      1.00000000      1.00000000      1.00000000      1.00000000      1.00000000      1.00000000
      1.00000000      1.00000000      1.00000000      1.00000000      1.00000000      1.00000000      1.00000000      1.00000000      1.00000000      1.00000000      1.00000000      1.00000000      1.00000000      1.00000000      1.00000000      1.00000000      1.00000000      1.00000000      1.00000000      1.00000000
      1.00000000      1.00000000      1.00000000      1.00000000      1.00000000      1.00000000      1.00000000      1.00000000      1.00000000      1.00000000      1.00000000      1.00000000      1.00000000      1.00000000      1.00000000      1.00000000      1.00000000      1.00000000      1.00000000      1.00000000
      1.00000000      1.00000000      1.00000000      1.00000000      1.00000000      1.00000000      1.00000000      1.00000000      1.00000000      1.00000000      1.00000000      1.00000000      1.00000000      1.00000000      1.00000000      1.00000000      1.00000000      1.00000000      1.00000000      1.00000000
      1.00000000      1.00000000      1.00000000      1.00000000      1.00000000      1.00000000      1.00000000      1.00000000      1.00000000      1.00000000      1.00000000      1.00000000      1.00000000      1.00000000      1.00000000      1.00000000      1.00000000      1.00000000      1.00000000      1.00000000
      1.00000000      1.00000000      1.00000000      1.00000000      1.00000000      1.00000000      1.00000000      1.00000000      1.00000000      1.00000000      1.00000000      1.00000000      1.00000000      1.00000000      1.00000000      1.00000000      1.00000000      1.00000000      1.00000000      1.00000000
      1.00000000      1.00000000      1.00000000      1.00000000      1.00000000      1.00000000      1.00000000      1.00000000      1.00000000      1.00000000      1.00000000      1.00000000      1.00000000      1.00000000      1.00000000      1.00000000      1.00000000      1.00000000      1.00000000      1.00000000
      1.00000000      1.00000000      1.00000000      1.00000000      1.00000000      1.00000000      1.00000000      1.00000000      1.00000000      1.00000000      1.00000000      1.00000000      1.00000000      1.00000000      1.00000000      1.00000000      1.00000000      1.00000000      1.00000000      1.00000000
      1.00000000      1.00000000      1.00000000      1.00000000      1.00000000      1.00000000      1.00000000      1.00000000      1.00000000      1.00000000      1.00000000      1.00000000      1.00000000      1.00000000      1.00000000      1.00000000      1.00000000      1.00000000      1.00000000      1.00000000
      1.00000000      1.00000000      1.00000000      1.00000000      1.00000000      1.00000000      1.00000000      1.00000000      1.00000000      1.00000000      1.00000000      1.00000000      1.00000000      1.00000000      1.00000000      1.00000000      1.00000000      1.00000000      1.00000000      1.00000000
      1.00000000      1.00000000      1.00000000      1.00000000      1.00000000      1.00000000      1.00000000      1.00000000      1.00000000      1.00000000      1.00000000      1.00000000      1.00000000      1.00000000      1.00000000      1.00000000      1.00000000      1.00000000      1.00000000      1.00000000
      1.00000000      1.00000000      1.00000000      1.00000000      1.00000000</v>
    <i name="NUPDOWN">     -1.00000000</i>
    <i type="logical" name="LSORBIT"> F  </i>
    <v name="SAXIS">      0.00000000      0.00000000      1.00000000</v>
    <i type="logical" name="LSPIRAL"> F  </i>
    <v name="QSPIRAL">      0.00000000      0.00000000      0.00000000</v>
    <i type="logical" name="LZEROZ"> F  </i>
   </separator>
   <separator name="electronic exchange-correlation" >
    <i type="logical" name="LASPH"> F  </i>
    <i type="logical" name="LMETAGGA"> F  </i>
   </separator>
   <separator name="electronic convergence" >
    <i type="int" name="NELM">   600</i>
    <i type="int" name="NELMDL">     0</i>
    <i type="int" name="NELMIN">     2</i>
    <i name="ENINI">    500.00000000</i>
    <separator name="electronic convergence detail" >
     <i type="logical" name="LDIAG"> T  </i>
     <i type="logical" name="LSUBROT"> F  </i>
     <i name="WEIMIN">      0.00000000</i>
     <i name="EBREAK">      0.00000003</i>
     <i name="DEPER">      0.30000000</i>
     <i type="int" name="NRMM">     4</i>
     <i name="TIME">      0.40000000</i>
    </separator>
   </separator>
   <separator name="electronic mixer" >
    <i name="AMIX">      0.40000000</i>
    <i name="BMIX">      0.01000000</i>
    <i name="AMIN">      0.01000000</i>
    <i name="AMIX_MAG">      1.60000000</i>
    <i name="BMIX_MAG">      0.01000000</i>
    <separator name="electronic mixer details" >
     <i type="int" name="IMIX">     4</i>
     <i type="logical" name="MIXFIRST"> F  </i>
     <i type="int" name="MAXMIX">   -45</i>
     <i name="WC">    100.00000000</i>
     <i type="int" name="INIMIX">     1</i>
     <i type="int" name="MIXPRE">     1</i>
     <i type="int" name="MREMOVE">     5</i>
    </separator>
   </separator>
   <separator name="electronic dipolcorrection" >
    <i type="logical" name="LDIPOL"> T  </i>
    <i type="logical" name="LMONO"> F  </i>
    <i type="int" name="IDIPOL">     3</i>
    <i name="EPSILON">      1.00000000</i>
    <v name="DIPOL">   -100.00000000   -100.00000000   -100.00000000</v>
    <i name="EFIELD">      0.00000000</i>
   </separator>
  </separator>
  <separator name="grids" >
   <i type="int" name="NGX">   100</i>
   <i type="int" name="NGY">   100</i>
   <i type="int" name="NGZ">   350</i>
   <i type="int" name="NGXF">   200</i>
   <i type="int" name="NGYF">   200</i>
   <i type="int" name="NGZF">   700</i>
   <i type="logical" name="ADDGRID"> F  </i>
  </separator>
  <separator name="ionic" >
   <i type="int" name="NSW">     0</i>
   <i type="int" name="IBRION">    -1</i>
   <i type="int" name="MDALGO">     0</i>
   <i type="int" name="ISIF">     2</i>
   <i name="PSTRESS">      0.00000000</i>
   <i name="EDIFFG">      0.00100000</i>
   <i type="int" name="NFREE">     0</i>
   <i name="POTIM">      0.50000000</i>
   <i name="SMASS">     -3.00000000</i>
   <i name="SCALEE">      1.00000000</i>
  </separator>
  <separator name="ionic md" >
   <i name="TEBEG">      0.00010000</i>
   <i name="TEEND">      0.00010000</i>
   <i type="int" name="NBLOCK">     1</i>
   <i type="int" name="KBLOCK">     1</i>
   <i type="int" name="NPACO">   256</i>
   <i name="APACO">     16.00000000</i>
  </separator>
  <separator name="symmetry" >
   <i type="int" name="ISYM">     0</i>
   <i name="SYMPREC">      0.00001000</i>
  </separator>
  <separator name="dos" >
   <i type="int" name="LORBIT">     0</i>
   <v name="RWIGS">     -1.00000000     -1.00000000     -1.00000000     -1.00000000     -1.00000000</v>
   <i type="int" name="NEDOS">   301</i>
   <i name="EMIN">     10.00000000</i>
   <i name="EMAX">    -10.00000000</i>
   <i name="EFERMI">      0.00000000</i>
  </separator>
  <separator name="writing" >
   <i type="int" name="NWRITE">     2</i>
   <i type="logical" name="LWAVE"> F  </i>
   <i type="logical" name="LDOWNSAMPLE"> F  </i>
   <i type="logical" name="LCHARG"> T  </i>
   <i type="logical" name="LPARD"> F  </i>
   <i type="logical" name="LVTOT"> T  </i>
   <i type="logical" name="LVHAR"> F  </i>
   <i type="logical" name="LELF"> F  </i>
   <i type="logical" name="LOPTICS"> F  </i>
   <v name="STM">      0.00000000      0.00000000      0.00000000      0.00000000      0.00000000      0.00000000      0.00000000</v>
  </separator>
  <separator name="performance" >
   <i type="int" name="NPAR">     4</i>
   <i type="int" name="NSIM">     4</i>
   <i type="int" name="NBLK">    -1</i>
   <i type="logical" name="LPLANE"> T  </i>
   <i type="logical" name="LSCALAPACK"> T  </i>
   <i type="logical" name="LSCAAWARE"> F  </i>
   <i type="logical" name="LSCALU"> F  </i>
   <i type="logical" name="LASYNC"> F  </i>
   <i type="logical" name="LORBITALREAL"> F  </i>
  </separator>
  <separator name="miscellaneous" >
   <i type="int" name="IDIOT">     3</i>
   <i type="int" name="PHON_NSTRUCT">    -1</i>
   <i type="logical" name="LMUSIC"> F  </i>
   <v name="POMASS">      1.00000000     12.01100000     14.00100000    126.90400000    207.20000000</v>
   <v name="DARWINR">      0.00000000      0.00000000      0.00000000      0.00000000      0.00000000</v>
   <v name="DARWINV">      1.00000000      1.00000000      1.00000000      1.00000000      1.00000000</v>
   <i type="logical" name="LCORR"> T  </i>
  </separator>
  <i type="logical" name="GGA_COMPAT"> F  </i>
  <i type="logical" name="LBERRY"> F  </i>
  <i type="int" name="ICORELEVEL">     0</i>
  <i type="logical" name="LDAU"> F  </i>
  <i type="int" name="I_CONSTRAINED_M">     0</i>
  <separator name="electronic exchange-correlation" >
   <i type="string" name="GGA">--</i>
   <i type="int" name="VOSKOWN">     0</i>
   <i type="logical" name="LHFCALC"> F  </i>
   <i type="string" name="PRECFOCK"></i>
   <i type="logical" name="LSYMGRAD"> F  </i>
   <i type="logical" name="LHFONE"> F  </i>
   <i type="logical" name="LRHFCALC"> F  </i>
   <i type="logical" name="LTHOMAS"> F  </i>
   <i type="logical" name="LMODELHF"> F  </i>
   <i type="logical" name="LFOCKACE"> F  </i>
   <i name="ENCUT4O">     -1.00000000</i>
   <i type="int" name="EXXOEP">     0</i>
   <i type="int" name="FOURORBIT">     0</i>
   <i name="AEXX">      0.00000000</i>
   <i name="HFALPHA">      0.00000000</i>
   <i name="MCALPHA">      0.00000000</i>
   <i name="ALDAX">      1.00000000</i>
   <i name="AGGAX">      1.00000000</i>
   <i name="ALDAC">      1.00000000</i>
   <i name="AGGAC">      1.00000000</i>
   <i type="int" name="NKREDX">     1</i>
   <i type="int" name="NKREDY">     1</i>
   <i type="int" name="NKREDZ">     1</i>
   <i type="logical" name="SHIFTRED"> F  </i>
   <i type="logical" name="ODDONLY"> F  </i>
   <i type="logical" name="EVENONLY"> F  </i>
   <i type="int" name="LMAXFOCK">     0</i>
   <i type="int" name="NMAXFOCKAE">     0</i>
   <i type="logical" name="LFOCKAEDFT"> F  </i>
   <i name="HFSCREEN">      0.00000000</i>
   <i name="HFSCREENC">      0.00000000</i>
   <i type="int" name="NBANDSGWLOW">     0</i>
  </separator>
  <separator name="vdW DFT" >
   <i type="logical" name="LUSE_VDW"> F  </i>
   <i name="Zab_VDW">     -0.84910000</i>
   <i name="PARAM1">      0.12340000</i>
   <i name="PARAM2">      1.00000000</i>
   <i name="PARAM3">      0.00000000</i>
  </separator>
  <separator name="model GW" >
   <i type="int" name="MODEL_GW">     0</i>
   <i name="MODEL_EPS0">     37.63423484</i>
   <i name="MODEL_ALPHA">      1.00000000</i>
  </separator>
  <separator name="linear response parameters" >
   <i type="logical" name="LEPSILON"> F  </i>
   <i type="logical" name="LRPA"> F  </i>
   <i type="logical" name="LNABLA"> F  </i>
   <i type="logical" name="LVEL"> F  </i>
   <i type="int" name="KINTER">     0</i>
   <i name="CSHIFT">      0.10000000</i>
   <i name="OMEGAMAX">     -1.00000000</i>
   <i name="DEG_THRESHOLD">      0.00200000</i>
   <i name="RTIME">     -0.10000000</i>
   <i name="WPLASMAI">      0.00000000</i>
   <v name="DFIELD">      0.00000000      0.00000000      0.00000000</v>
   <v name="WPLASMA">      0.00000000      0.00000000      0.00000000      0.00000000      0.00000000      0.00000000      0.00000000      0.00000000      0.00000000</v>
  </separator>
  <separator name="orbital magnetization" >
   <i type="logical" name="NUCIND"> F  </i>
   <v name="MAGPOS">      0.00000000      0.00000000      0.00000000</v>
   <i type="logical" name="LNICSALL"> T  </i>
   <i type="logical" name="ORBITALMAG"> F  </i>
   <i type="logical" name="LMAGBLOCH"> F  </i>
   <i type="logical" name="LCHIMAG"> F  </i>
   <i type="logical" name="LGAUGE"> T  </i>
   <i type="int" name="MAGATOM">     0</i>
   <v name="MAGDIPOL">      0.00000000      0.00000000      0.00000000</v>
   <v name="AVECCONST">      0.00000000      0.00000000      0.00000000</v>
  </separator>
  <separator name="response functions" >
   <i type="logical" name="LFINITE_TEMPERATURE"> F  </i>
   <i type="logical" name="LADDER"> F  </i>
   <i type="logical" name="LRPAFORCE"> F  </i>
   <i type="logical" name="LFXC"> F  </i>
   <i type="logical" name="LHARTREE"> T  </i>
   <i type="int" name="IBSE">     0</i>
   <v type="int" name="KPOINT">    -1     0     0     0</v>
   <i type="logical" name="LTCTC"> F  </i>
   <i type="logical" name="LTCTE"> F  </i>
   <i type="logical" name="LTETE"> F  </i>
   <i type="logical" name="LTRIPLET"> F  </i>
   <i type="logical" name="LFXCEPS"> F  </i>
   <i type="logical" name="LFXHEG"> F  </i>
   <i type="int" name="NATURALO">     2</i>
   <i type="logical" name="LHOLEGF"> F  </i>
   <i type="logical" name="L2ORDER"> F  </i>
   <i type="logical" name="LDMP1"> F  </i>
   <i type="logical" name="LMP2LT"> F  </i>
   <i type="logical" name="LSMP2LT"> F  </i>
   <i type="logical" name="LGWLF"> F  </i>
   <i name="ENCUTGW">     -2.00000000</i>
   <i name="ENCUTGWSOFT">     -2.00000000</i>
   <i name="ENCUTLF">     -1.00000000</i>
   <i type="logical" name="LESF_SPLINES"> F  </i>
   <i type="int" name="LMAXMP2">    -1</i>
   <i name="SCISSOR">      0.00000000</i>
   <i type="int" name="NOMEGA">     0</i>
   <i type="int" name="NOMEGAR">     0</i>
   <i type="int" name="NBANDSGW">    -1</i>
   <i type="int" name="NBANDSO">    -1</i>
   <i type="int" name="NBANDSV">    -1</i>
   <i type="int" name="NELM">   600</i>
   <i type="int" name="NELMHF">     1</i>
   <i type="int" name="DIM">     3</i>
   <i type="int" name="IESPILON">     4</i>
   <i type="int" name="ANTIRES">     0</i>
   <i name="OMEGAMAX">    -30.00000000</i>
   <i name="OMEGAMIN">    -30.00000000</i>
   <i name="OMEGATL">   -200.00000000</i>
   <i type="int" name="OMEGAGRID">     0</i>
   <i name="CSHIFT">     -0.10000000</i>
   <i type="logical" name="LSELFENERGY"> F  </i>
   <i type="logical" name="LSPECTRAL"> F  </i>
   <i type="logical" name="LSPECTRALGW"> F  </i>
   <i type="logical" name="LSINGLES"> F  </i>
   <i type="logical" name="LFERMIGW"> F  </i>
   <i type="logical" name="ODDONLYGW"> F  </i>
   <i type="logical" name="EVENONLYGW"> F  </i>
   <i type="int" name="NKREDLFX">     1</i>
   <i type="int" name="NKREDLFY">     1</i>
   <i type="int" name="NKREDLFZ">     1</i>
   <i type="int" name="MAXMEM">  2800</i>
   <i type="int" name="TELESCOPE">     0</i>
   <i type="int" name="NTAUPAR">    -1</i>
   <i type="int" name="NOMEGAPAR">    -1</i>
   <i name="DAMP_NEWTON">      0.80000001</i>
   <i name="LAMBDA">      1.00000000</i>
  </separator>
  <separator name="External order field" >
   <i name="OFIELD_KAPPA">      0.00000000</i>
   <v name="OFIELD_K">      0.00000000      0.00000000      0.00000000</v>
   <i name="OFIELD_Q6_NEAR">      0.00000000</i>
   <i name="OFIELD_Q6_FAR">      0.00000000</i>
   <i name="OFIELD_A">      0.00000000</i>
  </separator>
 </parameters>
 <atominfo>
  <atoms>     325 </atoms>
  <types>       5 </types>
  <array name="atoms" >
   <dimension dim="1">ion</dimension>
   <field type="string">element</field>
   <field type="int">atomtype</field>
   <set>
    <rc><c>H </c><c>   1</c></rc>
    <rc><c>H </c><c>   1</c></rc>
    <rc><c>H </c><c>   1</c></rc>
    <rc><c>H </c><c>   1</c></rc>
    <rc><c>H </c><c>   1</c></rc>
    <rc><c>H </c><c>   1</c></rc>
    <rc><c>H </c><c>   1</c></rc>
    <rc><c>H </c><c>   1</c></rc>
    <rc><c>H </c><c>   1</c></rc>
    <rc><c>H </c><c>   1</c></rc>
    <rc><c>H </c><c>   1</c></rc>
    <rc><c>H </c><c>   1</c></rc>
    <rc><c>H </c><c>   1</c></rc>
    <rc><c>H </c><c>   1</c></rc>
    <rc><c>H </c><c>   1</c></rc>
    <rc><c>H </c><c>   1</c></rc>
    <rc><c>H </c><c>   1</c></rc>
    <rc><c>H </c><c>   1</c></rc>
    <rc><c>H </c><c>   1</c></rc>
    <rc><c>H </c><c>   1</c></rc>
    <rc><c>H </c><c>   1</c></rc>
    <rc><c>H </c><c>   1</c></rc>
    <rc><c>H </c><c>   1</c></rc>
    <rc><c>H </c><c>   1</c></rc>
    <rc><c>H </c><c>   1</c></rc>
    <rc><c>H </c><c>   1</c></rc>
    <rc><c>H </c><c>   1</c></rc>
    <rc><c>H </c><c>   1</c></rc>
    <rc><c>H </c><c>   1</c></rc>
    <rc><c>H </c><c>   1</c></rc>
    <rc><c>H </c><c>   1</c></rc>
    <rc><c>H </c><c>   1</c></rc>
    <rc><c>H </c><c>   1</c></rc>
    <rc><c>H </c><c>   1</c></rc>
    <rc><c>H </c><c>   1</c></rc>
    <rc><c>H </c><c>   1</c></rc>
    <rc><c>H </c><c>   1</c></rc>
    <rc><c>H </c><c>   1</c></rc>
    <rc><c>H </c><c>   1</c></rc>
    <rc><c>H </c><c>   1</c></rc>
    <rc><c>H </c><c>   1</c></rc>
    <rc><c>H </c><c>   1</c></rc>
    <rc><c>H </c><c>   1</c></rc>
    <rc><c>H </c><c>   1</c></rc>
    <rc><c>H </c><c>   1</c></rc>
    <rc><c>H </c><c>   1</c></rc>
    <rc><c>H </c><c>   1</c></rc>
    <rc><c>H </c><c>   1</c></rc>
    <rc><c>H </c><c>   1</c></rc>
    <rc><c>H </c><c>   1</c></rc>
    <rc><c>H </c><c>   1</c></rc>
    <rc><c>H </c><c>   1</c></rc>
    <rc><c>H </c><c>   1</c></rc>
    <rc><c>H </c><c>   1</c></rc>
    <rc><c>H </c><c>   1</c></rc>
    <rc><c>H </c><c>   1</c></rc>
    <rc><c>H </c><c>   1</c></rc>
    <rc><c>H </c><c>   1</c></rc>
    <rc><c>H </c><c>   1</c></rc>
    <rc><c>H </c><c>   1</c></rc>
    <rc><c>H </c><c>   1</c></rc>
    <rc><c>H </c><c>   1</c></rc>
    <rc><c>H </c><c>   1</c></rc>
    <rc><c>H </c><c>   1</c></rc>
    <rc><c>H </c><c>   1</c></rc>
    <rc><c>H </c><c>   1</c></rc>
    <rc><c>H </c><c>   1</c></rc>
    <rc><c>H </c><c>   1</c></rc>
    <rc><c>H </c><c>   1</c></rc>
    <rc><c>H </c><c>   1</c></rc>
    <rc><c>H </c><c>   1</c></rc>
    <rc><c>H </c><c>   1</c></rc>
    <rc><c>H </c><c>   1</c></rc>
    <rc><c>H </c><c>   1</c></rc>
    <rc><c>H </c><c>   1</c></rc>
    <rc><c>H </c><c>   1</c></rc>
    <rc><c>H </c><c>   1</c></rc>
    <rc><c>H </c><c>   1</c></rc>
    <rc><c>H </c><c>   1</c></rc>
    <rc><c>H </c><c>   1</c></rc>
    <rc><c>H </c><c>   1</c></rc>
    <rc><c>H </c><c>   1</c></rc>
    <rc><c>H </c><c>   1</c></rc>
    <rc><c>H </c><c>   1</c></rc>
    <rc><c>H </c><c>   1</c></rc>
    <rc><c>H </c><c>   1</c></rc>
    <rc><c>H </c><c>   1</c></rc>
    <rc><c>H </c><c>   1</c></rc>
    <rc><c>H </c><c>   1</c></rc>
    <rc><c>H </c><c>   1</c></rc>
    <rc><c>H </c><c>   1</c></rc>
    <rc><c>H </c><c>   1</c></rc>
    <rc><c>H </c><c>   1</c></rc>
    <rc><c>H </c><c>   1</c></rc>
    <rc><c>H </c><c>   1</c></rc>
    <rc><c>H </c><c>   1</c></rc>
    <rc><c>H </c><c>   1</c></rc>
    <rc><c>H </c><c>   1</c></rc>
    <rc><c>H </c><c>   1</c></rc>
    <rc><c>H </c><c>   1</c></rc>
    <rc><c>H </c><c>   1</c></rc>
    <rc><c>H </c><c>   1</c></rc>
    <rc><c>H </c><c>   1</c></rc>
    <rc><c>H </c><c>   1</c></rc>
    <rc><c>H </c><c>   1</c></rc>
    <rc><c>H </c><c>   1</c></rc>
    <rc><c>H </c><c>   1</c></rc>
    <rc><c>H </c><c>   1</c></rc>
    <rc><c>H </c><c>   1</c></rc>
    <rc><c>H </c><c>   1</c></rc>
    <rc><c>H </c><c>   1</c></rc>
    <rc><c>H </c><c>   1</c></rc>
    <rc><c>H </c><c>   1</c></rc>
    <rc><c>H </c><c>   1</c></rc>
    <rc><c>H </c><c>   1</c></rc>
    <rc><c>H </c><c>   1</c></rc>
    <rc><c>H </c><c>   1</c></rc>
    <rc><c>H </c><c>   1</c></rc>
    <rc><c>H </c><c>   1</c></rc>
    <rc><c>H </c><c>   1</c></rc>
    <rc><c>H </c><c>   1</c></rc>
    <rc><c>H </c><c>   1</c></rc>
    <rc><c>H </c><c>   1</c></rc>
    <rc><c>H </c><c>   1</c></rc>
    <rc><c>H </c><c>   1</c></rc>
    <rc><c>H </c><c>   1</c></rc>
    <rc><c>H </c><c>   1</c></rc>
    <rc><c>H </c><c>   1</c></rc>
    <rc><c>H </c><c>   1</c></rc>
    <rc><c>H </c><c>   1</c></rc>
    <rc><c>H </c><c>   1</c></rc>
    <rc><c>H </c><c>   1</c></rc>
    <rc><c>H </c><c>   1</c></rc>
    <rc><c>H </c><c>   1</c></rc>
    <rc><c>H </c><c>   1</c></rc>
    <rc><c>H </c><c>   1</c></rc>
    <rc><c>H </c><c>   1</c></rc>
    <rc><c>H </c><c>   1</c></rc>
    <rc><c>H </c><c>   1</c></rc>
    <rc><c>H </c><c>   1</c></rc>
    <rc><c>H </c><c>   1</c></rc>
    <rc><c>H </c><c>   1</c></rc>
    <rc><c>H </c><c>   1</c></rc>
    <rc><c>C </c><c>   2</c></rc>
    <rc><c>C </c><c>   2</c></rc>
    <rc><c>C </c><c>   2</c></rc>
    <rc><c>C </c><c>   2</c></rc>
    <rc><c>C </c><c>   2</c></rc>
    <rc><c>C </c><c>   2</c></rc>
    <rc><c>C </c><c>   2</c></rc>
    <rc><c>C </c><c>   2</c></rc>
    <rc><c>C </c><c>   2</c></rc>
    <rc><c>C </c><c>   2</c></rc>
    <rc><c>C </c><c>   2</c></rc>
    <rc><c>C </c><c>   2</c></rc>
    <rc><c>C </c><c>   2</c></rc>
    <rc><c>C </c><c>   2</c></rc>
    <rc><c>C </c><c>   2</c></rc>
    <rc><c>C </c><c>   2</c></rc>
    <rc><c>C </c><c>   2</c></rc>
    <rc><c>C </c><c>   2</c></rc>
    <rc><c>C </c><c>   2</c></rc>
    <rc><c>C </c><c>   2</c></rc>
    <rc><c>C </c><c>   2</c></rc>
    <rc><c>C </c><c>   2</c></rc>
    <rc><c>C </c><c>   2</c></rc>
    <rc><c>C </c><c>   2</c></rc>
    <rc><c>C </c><c>   2</c></rc>
    <rc><c>C </c><c>   2</c></rc>
    <rc><c>C </c><c>   2</c></rc>
    <rc><c>C </c><c>   2</c></rc>
    <rc><c>C </c><c>   2</c></rc>
    <rc><c>C </c><c>   2</c></rc>
    <rc><c>C </c><c>   2</c></rc>
    <rc><c>C </c><c>   2</c></rc>
    <rc><c>C </c><c>   2</c></rc>
    <rc><c>C </c><c>   2</c></rc>
    <rc><c>C </c><c>   2</c></rc>
    <rc><c>C </c><c>   2</c></rc>
    <rc><c>C </c><c>   2</c></rc>
    <rc><c>C </c><c>   2</c></rc>
    <rc><c>C </c><c>   2</c></rc>
    <rc><c>N </c><c>   3</c></rc>
    <rc><c>N </c><c>   3</c></rc>
    <rc><c>N </c><c>   3</c></rc>
    <rc><c>N </c><c>   3</c></rc>
    <rc><c>N </c><c>   3</c></rc>
    <rc><c>N </c><c>   3</c></rc>
    <rc><c>N </c><c>   3</c></rc>
    <rc><c>N </c><c>   3</c></rc>
    <rc><c>N </c><c>   3</c></rc>
    <rc><c>N </c><c>   3</c></rc>
    <rc><c>N </c><c>   3</c></rc>
    <rc><c>N </c><c>   3</c></rc>
    <rc><c>N </c><c>   3</c></rc>
    <rc><c>N </c><c>   3</c></rc>
    <rc><c>N </c><c>   3</c></rc>
    <rc><c>N </c><c>   3</c></rc>
    <rc><c>N </c><c>   3</c></rc>
    <rc><c>N </c><c>   3</c></rc>
    <rc><c>N </c><c>   3</c></rc>
    <rc><c>N </c><c>   3</c></rc>
    <rc><c>N </c><c>   3</c></rc>
    <rc><c>N </c><c>   3</c></rc>
    <rc><c>N </c><c>   3</c></rc>
    <rc><c>N </c><c>   3</c></rc>
    <rc><c>N </c><c>   3</c></rc>
    <rc><c>N </c><c>   3</c></rc>
    <rc><c>N </c><c>   3</c></rc>
    <rc><c>N </c><c>   3</c></rc>
    <rc><c>N </c><c>   3</c></rc>
    <rc><c>N </c><c>   3</c></rc>
    <rc><c>N </c><c>   3</c></rc>
    <rc><c>N </c><c>   3</c></rc>
    <rc><c>N </c><c>   3</c></rc>
    <rc><c>N </c><c>   3</c></rc>
    <rc><c>N </c><c>   3</c></rc>
    <rc><c>N </c><c>   3</c></rc>
    <rc><c>N </c><c>   3</c></rc>
    <rc><c>N </c><c>   3</c></rc>
    <rc><c>N </c><c>   3</c></rc>
    <rc><c>N </c><c>   3</c></rc>
    <rc><c>N </c><c>   3</c></rc>
    <rc><c>N </c><c>   3</c></rc>
    <rc><c>N </c><c>   3</c></rc>
    <rc><c>N </c><c>   3</c></rc>
    <rc><c>N </c><c>   3</c></rc>
    <rc><c>N </c><c>   3</c></rc>
    <rc><c>N </c><c>   3</c></rc>
    <rc><c>I </c><c>   4</c></rc>
    <rc><c>I </c><c>   4</c></rc>
    <rc><c>I </c><c>   4</c></rc>
    <rc><c>I </c><c>   4</c></rc>
    <rc><c>I </c><c>   4</c></rc>
    <rc><c>I </c><c>   4</c></rc>
    <rc><c>I </c><c>   4</c></rc>
    <rc><c>I </c><c>   4</c></rc>
    <rc><c>I </c><c>   4</c></rc>
    <rc><c>I </c><c>   4</c></rc>
    <rc><c>I </c><c>   4</c></rc>
    <rc><c>I </c><c>   4</c></rc>
    <rc><c>I </c><c>   4</c></rc>
    <rc><c>I </c><c>   4</c></rc>
    <rc><c>I </c><c>   4</c></rc>
    <rc><c>I </c><c>   4</c></rc>
    <rc><c>I </c><c>   4</c></rc>
    <rc><c>I </c><c>   4</c></rc>
    <rc><c>I </c><c>   4</c></rc>
    <rc><c>I </c><c>   4</c></rc>
    <rc><c>I </c><c>   4</c></rc>
    <rc><c>I </c><c>   4</c></rc>
    <rc><c>I </c><c>   4</c></rc>
    <rc><c>I </c><c>   4</c></rc>
    <rc><c>I </c><c>   4</c></rc>
    <rc><c>I </c><c>   4</c></rc>
    <rc><c>I </c><c>   4</c></rc>
    <rc><c>I </c><c>   4</c></rc>
    <rc><c>I </c><c>   4</c></rc>
    <rc><c>I </c><c>   4</c></rc>
    <rc><c>I </c><c>   4</c></rc>
    <rc><c>I </c><c>   4</c></rc>
    <rc><c>I </c><c>   4</c></rc>
    <rc><c>I </c><c>   4</c></rc>
    <rc><c>I </c><c>   4</c></rc>
    <rc><c>I </c><c>   4</c></rc>
    <rc><c>I </c><c>   4</c></rc>
    <rc><c>I </c><c>   4</c></rc>
    <rc><c>I </c><c>   4</c></rc>
    <rc><c>I </c><c>   4</c></rc>
    <rc><c>I </c><c>   4</c></rc>
    <rc><c>I </c><c>   4</c></rc>
    <rc><c>I </c><c>   4</c></rc>
    <rc><c>I </c><c>   4</c></rc>
    <rc><c>I </c><c>   4</c></rc>
    <rc><c>I </c><c>   4</c></rc>
    <rc><c>I </c><c>   4</c></rc>
    <rc><c>I </c><c>   4</c></rc>
    <rc><c>I </c><c>   4</c></rc>
    <rc><c>I </c><c>   4</c></rc>
    <rc><c>I </c><c>   4</c></rc>
    <rc><c>I </c><c>   4</c></rc>
    <rc><c>I </c><c>   4</c></rc>
    <rc><c>I </c><c>   4</c></rc>
    <rc><c>I </c><c>   4</c></rc>
    <rc><c>I </c><c>   4</c></rc>
    <rc><c>I </c><c>   4</c></rc>
    <rc><c>I </c><c>   4</c></rc>
    <rc><c>I </c><c>   4</c></rc>
    <rc><c>I </c><c>   4</c></rc>
    <rc><c>I </c><c>   4</c></rc>
    <rc><c>I </c><c>   4</c></rc>
    <rc><c>I </c><c>   4</c></rc>
    <rc><c>I </c><c>   4</c></rc>
    <rc><c>I </c><c>   4</c></rc>
    <rc><c>I </c><c>   4</c></rc>
    <rc><c>I </c><c>   4</c></rc>
    <rc><c>I </c><c>   4</c></rc>
    <rc><c>I </c><c>   4</c></rc>
    <rc><c>I </c><c>   4</c></rc>
    <rc><c>I </c><c>   4</c></rc>
    <rc><c>I </c><c>   4</c></rc>
    <rc><c>Pb</c><c>   5</c></rc>
    <rc><c>Pb</c><c>   5</c></rc>
    <rc><c>Pb</c><c>   5</c></rc>
    <rc><c>Pb</c><c>   5</c></rc>
    <rc><c>Pb</c><c>   5</c></rc>
    <rc><c>Pb</c><c>   5</c></rc>
    <rc><c>Pb</c><c>   5</c></rc>
    <rc><c>Pb</c><c>   5</c></rc>
    <rc><c>Pb</c><c>   5</c></rc>
    <rc><c>Pb</c><c>   5</c></rc>
    <rc><c>Pb</c><c>   5</c></rc>
    <rc><c>Pb</c><c>   5</c></rc>
    <rc><c>Pb</c><c>   5</c></rc>
    <rc><c>Pb</c><c>   5</c></rc>
    <rc><c>Pb</c><c>   5</c></rc>
    <rc><c>Pb</c><c>   5</c></rc>
    <rc><c>Pb</c><c>   5</c></rc>
    <rc><c>Pb</c><c>   5</c></rc>
    <rc><c>Pb</c><c>   5</c></rc>
    <rc><c>Pb</c><c>   5</c></rc>
    <rc><c>Pb</c><c>   5</c></rc>
    <rc><c>Pb</c><c>   5</c></rc>
    <rc><c>Pb</c><c>   5</c></rc>
    <rc><c>Pb</c><c>   5</c></rc>
   </set>
  </array>
  <array name="atomtypes" >
   <dimension dim="1">type</dimension>
   <field type="int">atomspertype</field>
   <field type="string">element</field>
   <field>mass</field>
   <field>valence</field>
   <field type="string">pseudopotential</field>
   <set>
    <rc><c> 143</c><c>H </c><c>      1.00000000</c><c>      1.00000000</c><c>  PAW_PBE H 15Jun2001                   </c></rc>
    <rc><c>  39</c><c>C </c><c>     12.01100000</c><c>      4.00000000</c><c>  PAW_PBE C 08Apr2002                   </c></rc>
    <rc><c>  47</c><c>N </c><c>     14.00100000</c><c>      5.00000000</c><c>  PAW_PBE N 08Apr2002                   </c></rc>
    <rc><c>  72</c><c>I </c><c>    126.90400000</c><c>      7.00000000</c><c>  PAW_PBE I 08Apr2002                   </c></rc>
    <rc><c>  24</c><c>Pb</c><c>    207.20000000</c><c>      4.00000000</c><c>  PAW_PBE Pb 08Apr2002                  </c></rc>
   </set>
  </array>
 </atominfo>
 <structure name="initialpos" >
  <crystal>
   <varray name="basis" >
    <v>      18.06080055       0.00000000       0.00000000 </v>
    <v>      -0.00491865      18.06279945       0.00000000 </v>
    <v>       0.00000000       0.00000000      62.48749924 </v>
   </varray>
   <i name="volume">  20385.21054034 </i>
   <varray name="rec_basis" >
    <v>       0.05536853       0.00001508      -0.00000000 </v>
    <v>       0.00000000       0.05536240       0.00000000 </v>
    <v>       0.00000000      -0.00000000       0.01600320 </v>
   </varray>
  </crystal>
  <varray name="positions" >
   <v>       0.44671494       0.30132327       0.58240903 </v>
   <v>       0.44407196       0.83428855       0.57881120 </v>
   <v>       0.95243274       0.26706955       0.58600130 </v>
   <v>       0.96858874       0.80613380       0.58636020 </v>
   <v>       0.30037901       0.04388391       0.58323726 </v>
   <v>       0.30357387       0.55162507       0.58277342 </v>
   <v>       0.77536200       0.06673502       0.58170430 </v>
   <v>       0.10410441       0.19466089       0.55385950 </v>
   <v>       0.08257773       0.67884826       0.55699996 </v>
   <v>       0.58015050       0.17777187       0.55776751 </v>
   <v>       0.53549376       0.65730178       0.56644960 </v>
   <v>       0.35597522       0.04529761       0.55992522 </v>
   <v>       0.31004552       0.59910937       0.55851741 </v>
   <v>       0.83555293       0.07489551       0.55975069 </v>
   <v>       0.07441045       0.20322933       0.58075196 </v>
   <v>       0.04528275       0.69182910       0.58221057 </v>
   <v>       0.56209442       0.22503022       0.58095677 </v>
   <v>       0.50602747       0.71118859       0.58735149 </v>
   <v>       0.22448168       0.43683278       0.58272416 </v>
   <v>       0.18044881       0.97460996       0.58088156 </v>
   <v>       0.68751112       0.96188602       0.58127904 </v>
   <v>       0.38845469       0.29495397       0.56006930 </v>
   <v>       0.44146809       0.85612858       0.55175092 </v>
   <v>       0.90498742       0.29046968       0.56284561 </v>
   <v>       0.95680470       0.86242909       0.56445781 </v>
   <v>       0.18411523       0.41229832       0.55813019 </v>
   <v>       0.15829200       0.93683192       0.55579397 </v>
   <v>       0.69223264       0.89997721       0.55878382 </v>
   <v>       0.46958918       0.21583228       0.54176223 </v>
   <v>       0.49983458       0.74806964       0.54027890 </v>
   <v>       0.99663856       0.24984654       0.54009350 </v>
   <v>       0.03051164       0.78586054       0.54257184 </v>
   <v>       0.23532224       0.51375887       0.54049867 </v>
   <v>       0.27002183       0.97788350       0.54043024 </v>
   <v>       0.78437764       0.96771534       0.54305552 </v>
   <v>       0.45278465       0.30712044       0.67597346 </v>
   <v>       0.43954279       0.81413952       0.67441468 </v>
   <v>       0.95384442       0.28843733       0.67835290 </v>
   <v>       0.94246784       0.80616733       0.67519401 </v>
   <v>       0.30295153       0.04946246       0.67470093 </v>
   <v>       0.29520548       0.55294469       0.67685492 </v>
   <v>       0.81024515       0.04933588       0.67537599 </v>
   <v>       0.83324113       0.53844929       0.67339354 </v>
   <v>       0.08478277       0.17154991       0.64791542 </v>
   <v>       0.08880184       0.68513895       0.65404628 </v>
   <v>       0.57078442       0.16442874       0.65105325 </v>
   <v>       0.56919076       0.66757827       0.65664385 </v>
   <v>       0.18618587       0.41132494       0.64759364 </v>
   <v>       0.16954626       0.91973927       0.65050957 </v>
   <v>       0.65961911       0.44328191       0.65427478 </v>
   <v>       0.66453450       0.93416185       0.65093824 </v>
   <v>       0.06264900       0.19050128       0.67413087 </v>
   <v>       0.04427271       0.70313367       0.67786941 </v>
   <v>       0.55491829       0.20073993       0.67568794 </v>
   <v>       0.53667679       0.70604636       0.68054347 </v>
   <v>       0.20512000       0.43775357       0.67377624 </v>
   <v>       0.19983306       0.94787608       0.67587059 </v>
   <v>       0.71860983       0.44567153       0.67697409 </v>
   <v>       0.69670009       0.95857536       0.67622351 </v>
   <v>       0.41551043       0.32362954       0.65101052 </v>
   <v>       0.42420074       0.83475956       0.64776494 </v>
   <v>       0.91984279       0.31976863       0.65393738 </v>
   <v>       0.92869965       0.84036234       0.64983304 </v>
   <v>       0.32893928       0.07545749       0.64915077 </v>
   <v>       0.32561715       0.58704351       0.65200529 </v>
   <v>       0.83903844       0.07374006       0.64967999 </v>
   <v>       0.83936485       0.57836488       0.64782537 </v>
   <v>       0.99564832       0.25241571       0.63350226 </v>
   <v>       0.02259436       0.77029668       0.63485537 </v>
   <v>       0.48442192       0.23643337       0.63346557 </v>
   <v>       0.50496451       0.74406456       0.63476545 </v>
   <v>       0.24831817       0.99551190       0.63185441 </v>
   <v>       0.25807448       0.50157517       0.63197052 </v>
   <v>       0.75090525       0.00217222       0.63236391 </v>
   <v>       0.73330915       0.52371446       0.63470495 </v>
   <v>       0.44874502       0.30128397       0.76888902 </v>
   <v>       0.44874501       0.80128391       0.76888902 </v>
   <v>       0.94874497       0.30128397       0.76888902 </v>
   <v>       0.94874501       0.80128391       0.76888902 </v>
   <v>       0.30127600       0.05129450       0.76887296 </v>
   <v>       0.30127601       0.55129450       0.76887296 </v>
   <v>       0.80127594       0.05129450       0.76887296 </v>
   <v>       0.80127598       0.55129450       0.76887296 </v>
   <v>       0.07877100       0.17118050       0.74344197 </v>
   <v>       0.07877101       0.67118045       0.74344197 </v>
   <v>       0.57877100       0.17118050       0.74344197 </v>
   <v>       0.57877099       0.67118045       0.74344197 </v>
   <v>       0.17119950       0.42117448       0.74342103 </v>
   <v>       0.17119950       0.92117451       0.74342103 </v>
   <v>       0.67119951       0.42117448       0.74342103 </v>
   <v>       0.67119950       0.92117451       0.74342103 </v>
   <v>       0.05125600       0.19871499       0.76888902 </v>
   <v>       0.05125600       0.69871493       0.76888902 </v>
   <v>       0.55125603       0.19871499       0.76888902 </v>
   <v>       0.55125602       0.69871493       0.76888902 </v>
   <v>       0.19872349       0.44870397       0.76887205 </v>
   <v>       0.19872349       0.94870397       0.76887205 </v>
   <v>       0.69872352       0.44870397       0.76887205 </v>
   <v>       0.69872351       0.94870397       0.76887205 </v>
   <v>       0.42123152       0.32881747       0.74344197 </v>
   <v>       0.42123151       0.82881744       0.74344197 </v>
   <v>       0.92123147       0.32881747       0.74344197 </v>
   <v>       0.92123151       0.82881744       0.74344197 </v>
   <v>       0.32880050       0.07882500       0.74342103 </v>
   <v>       0.32880049       0.57882496       0.74342103 </v>
   <v>       0.82880048       0.07882500       0.74342103 </v>
   <v>       0.82880052       0.57882496       0.74342103 </v>
   <v>       0.00000350       0.25000148       0.72582199 </v>
   <v>       0.00000350       0.75000145       0.72582199 </v>
   <v>       0.50000351       0.25000148       0.72582199 </v>
   <v>       0.50000350       0.75000145       0.72582199 </v>
   <v>       0.25000050       0.00000000       0.72580398 </v>
   <v>       0.25000052       0.50000000       0.72580398 </v>
   <v>       0.75000050       0.00000000       0.72580398 </v>
   <v>       0.75000049       0.50000000       0.72580398 </v>
   <v>       0.71774456       0.44846474       0.54547946 </v>
   <v>       0.73999866       0.50817499       0.52398652 </v>
   <v>       0.64859601       0.54141647       0.56063441 </v>
   <v>       0.68444418       0.63507041       0.56344259 </v>
   <v>       0.83496098       0.50992085       0.57794799 </v>
   <v>       0.77260049       0.57513678       0.58740991 </v>
   <v>       0.86844689       0.55958279       0.54126066 </v>
   <v>       0.80619624       0.61982212       0.52837912 </v>
   <v>       0.86898076       0.48079478       0.52493623 </v>
   <v>       0.86374909       0.44645674       0.55078308 </v>
   <v>       0.88731418       0.35137721       0.52641132 </v>
   <v>       0.79785840       0.33615648       0.53681629 </v>
   <v>       0.61802162       0.54983639       0.52651473 </v>
   <v>       0.68960233       0.61269754       0.51867570 </v>
   <v>       0.61119504       0.64550767       0.53236258 </v>
   <v>       0.73281567       0.45244696       0.60156014 </v>
   <v>       0.74172956       0.41103698       0.57700750 </v>
   <v>       0.66905057       0.47200587       0.58197743 </v>
   <v>       0.83576126       0.67682067       0.57177324 </v>
   <v>       0.87535547       0.70666732       0.54738390 </v>
   <v>       0.91850938       0.63571855       0.56284018 </v>
   <v>       0.83754957       0.39959477       0.49292910 </v>
   <v>       0.80321953       0.30915320       0.49911613 </v>
   <v>       0.67001911       0.31653751       0.52272815 </v>
   <v>       0.75177379       0.48622006       0.48001761 </v>
   <v>       0.54129092       0.36596392       0.51885707 </v>
   <v>       0.62292914       0.53651637       0.47617453 </v>
   <v>       0.51699257       0.47935457       0.49657686 </v>
   <v>       0.00306740       0.24407475       0.55751459 </v>
   <v>       0.01993288       0.77154334       0.55943324 </v>
   <v>       0.48323719       0.23614290       0.55775542 </v>
   <v>       0.49046247       0.75812565       0.55780419 </v>
   <v>       0.24593631       0.50534392       0.55758735 </v>
   <v>       0.25829245       0.99125479       0.55719781 </v>
   <v>       0.76322478       0.98702293       0.55855025 </v>
   <v>       0.00182854       0.24618967       0.65043863 </v>
   <v>       0.00983904       0.76292564       0.65128304 </v>
   <v>       0.49223400       0.24421350       0.65031959 </v>
   <v>       0.49666890       0.75232534       0.65154078 </v>
   <v>       0.25609867       0.49893254       0.64917928 </v>
   <v>       0.24959818       0.99820319       0.64914687 </v>
   <v>       0.75097557       0.51168519       0.65097163 </v>
   <v>       0.75219621       0.00399853       0.64966632 </v>
   <v>       0.49998898       0.24999498       0.74327702 </v>
   <v>       0.49998903       0.74999496       0.74327702 </v>
   <v>       0.99998898       0.24999498       0.74327702 </v>
   <v>       0.99998903       0.74999496       0.74327702 </v>
   <v>       0.25000050       0.00000100       0.74325596 </v>
   <v>       0.25000052       0.50000100       0.74325596 </v>
   <v>       0.75000050       0.00000100       0.74325596 </v>
   <v>       0.75000049       0.50000100       0.74325596 </v>
   <v>       0.71945471       0.39632041       0.50178939 </v>
   <v>       0.65772644       0.36365886       0.51243587 </v>
   <v>       0.70474772       0.45879234       0.48815296 </v>
   <v>       0.58684297       0.39218891       0.51036221 </v>
   <v>       0.63167087       0.48667581       0.48652764 </v>
   <v>       0.57411155       0.45399140       0.49733574 </v>
   <v>       0.75995075       0.48433730       0.53852135 </v>
   <v>       0.68402668       0.58529675       0.55344505 </v>
   <v>       0.77659994       0.52648919       0.57702587 </v>
   <v>       0.82495254       0.59987831       0.54456320 </v>
   <v>       0.83293055       0.44950861       0.53575254 </v>
   <v>       0.83004013       0.37310257       0.52674873 </v>
   <v>       0.65027055       0.59853266       0.53130921 </v>
   <v>       0.72755499       0.46322123       0.58446315 </v>
   <v>       0.86546493       0.65852489       0.55754517 </v>
   <v>       0.79911107       0.36875571       0.50387764 </v>
   <v>       0.06314514       0.21256920       0.56462288 </v>
   <v>       0.05090724       0.71033565       0.56647414 </v>
   <v>       0.54390972       0.20973443       0.56633056 </v>
   <v>       0.51466192       0.70811376       0.57119347 </v>
   <v>       0.43779350       0.28126490       0.56712027 </v>
   <v>       0.45737489       0.81889126       0.56269586 </v>
   <v>       0.95094766       0.26889075       0.56974189 </v>
   <v>       0.97900556       0.81601347       0.57098402 </v>
   <v>       0.21705091       0.44762484       0.56687650 </v>
   <v>       0.19478416       0.96616242       0.56541601 </v>
   <v>       0.71010434       0.94875512       0.56688334 </v>
   <v>       0.30700412       0.02946061       0.56763593 </v>
   <v>       0.28868543       0.55500243       0.56723497 </v>
   <v>       0.79398167       0.04630066       0.56765840 </v>
   <v>       0.05332701       0.19973956       0.65825800 </v>
   <v>       0.05051068       0.71305188       0.66210112 </v>
   <v>       0.54301110       0.20078149       0.65981599 </v>
   <v>       0.53570400       0.70645961       0.66372827 </v>
   <v>       0.21437642       0.44624080       0.65723131 </v>
   <v>       0.20223973       0.95172029       0.65902714 </v>
   <v>       0.70710696       0.46396235       0.66156030 </v>
   <v>       0.70035653       0.96205941       0.65943152 </v>
   <v>       0.45210277       0.29343583       0.65962211 </v>
   <v>       0.45174562       0.80207319       0.65821924 </v>
   <v>       0.95635002       0.28672080       0.66189569 </v>
   <v>       0.95635439       0.80473192       0.65962375 </v>
   <v>       0.29565357       0.04261931       0.65807828 </v>
   <v>       0.29275408       0.54858967       0.65999303 </v>
   <v>       0.80246460       0.04353432       0.65867416 </v>
   <v>       0.81028953       0.54327331       0.65796156 </v>
   <v>       0.04586250       0.20411950       0.75272599 </v>
   <v>       0.04586250       0.70411946       0.75272599 </v>
   <v>       0.54586251       0.20411950       0.75272599 </v>
   <v>       0.54586250       0.70411946       0.75272599 </v>
   <v>       0.20411900       0.45410100       0.75270499 </v>
   <v>       0.20411899       0.95410095       0.75270499 </v>
   <v>       0.70411898       0.45410100       0.75270499 </v>
   <v>       0.70411896       0.95410095       0.75270499 </v>
   <v>       0.45414002       0.29588849       0.75272697 </v>
   <v>       0.45414001       0.79588852       0.75272697 </v>
   <v>       0.95414002       0.29588849       0.75272697 </v>
[...]
   <v>       0.58015050       0.17777187       0.55776751 </v>
   <v>       0.53549376       0.65730178       0.56644960 </v>
   <v>       0.35597522       0.04529761       0.55992522 </v>
   <v>       0.31004552       0.59910937       0.55851741 </v>
   <v>       0.83555293       0.07489551       0.55975069 </v>
   <v>       0.07441045       0.20322933       0.58075196 </v>
   <v>       0.04528275       0.69182910       0.58221057 </v>
   <v>       0.56209442       0.22503022       0.58095677 </v>
   <v>       0.50602747       0.71118859       0.58735149 </v>
   <v>       0.22448168       0.43683278       0.58272416 </v>
   <v>       0.18044881       0.97460996       0.58088156 </v>
   <v>       0.68751112       0.96188602       0.58127904 </v>
   <v>       0.38845469       0.29495397       0.56006930 </v>
   <v>       0.44146809       0.85612858       0.55175092 </v>
   <v>       0.90498742       0.29046968       0.56284561 </v>
   <v>       0.95680470       0.86242909       0.56445781 </v>
   <v>       0.18411523       0.41229832       0.55813019 </v>
   <v>       0.15829200       0.93683192       0.55579397 </v>
   <v>       0.69223264       0.89997721       0.55878382 </v>
   <v>       0.46958918       0.21583228       0.54176223 </v>
   <v>       0.49983458       0.74806964       0.54027890 </v>
   <v>       0.99663856       0.24984654       0.54009350 </v>
   <v>       0.03051164       0.78586054       0.54257184 </v>
   <v>       0.23532224       0.51375887       0.54049867 </v>
   <v>       0.27002183       0.97788350       0.54043024 </v>
   <v>       0.78437764       0.96771534       0.54305552 </v>
   <v>       0.45278465       0.30712044       0.67597346 </v>
   <v>       0.43954279       0.81413952       0.67441468 </v>
   <v>       0.95384442       0.28843733       0.67835290 </v>
   <v>       0.94246784       0.80616733       0.67519401 </v>
   <v>       0.30295153       0.04946246       0.67470093 </v>
   <v>       0.29520548       0.55294469       0.67685492 </v>
   <v>       0.81024515       0.04933588       0.67537599 </v>
   <v>       0.83324113       0.53844929       0.67339354 </v>
   <v>       0.08478277       0.17154991       0.64791542 </v>
   <v>       0.08880184       0.68513895       0.65404628 </v>
   <v>       0.57078442       0.16442874       0.65105325 </v>
   <v>       0.56919076       0.66757827       0.65664385 </v>
   <v>       0.18618587       0.41132494       0.64759364 </v>
   <v>       0.16954626       0.91973927       0.65050957 </v>
   <v>       0.65961911       0.44328191       0.65427478 </v>
   <v>       0.66453450       0.93416185       0.65093824 </v>
   <v>       0.06264900       0.19050128       0.67413087 </v>
   <v>       0.04427271       0.70313367       0.67786941 </v>
   <v>       0.55491829       0.20073993       0.67568794 </v>
   <v>       0.53667679       0.70604636       0.68054347 </v>
   <v>       0.20512000       0.43775357       0.67377624 </v>
   <v>       0.19983306       0.94787608       0.67587059 </v>
   <v>       0.71860983       0.44567153       0.67697409 </v>
   <v>       0.69670009       0.95857536       0.67622351 </v>
   <v>       0.41551043       0.32362954       0.65101052 </v>
   <v>       0.42420074       0.83475956       0.64776494 </v>
   <v>       0.91984279       0.31976863       0.65393738 </v>
   <v>       0.92869965       0.84036234       0.64983304 </v>
   <v>       0.32893928       0.07545749       0.64915077 </v>
   <v>       0.32561715       0.58704351       0.65200529 </v>
   <v>       0.83903844       0.07374006       0.64967999 </v>
   <v>       0.83936485       0.57836488       0.64782537 </v>
   <v>       0.99564832       0.25241571       0.63350226 </v>
   <v>       0.02259436       0.77029668       0.63485537 </v>
   <v>       0.48442192       0.23643337       0.63346557 </v>
   <v>       0.50496451       0.74406456       0.63476545 </v>
   <v>       0.24831817       0.99551190       0.63185441 </v>
   <v>       0.25807448       0.50157517       0.63197052 </v>
   <v>       0.75090525       0.00217222       0.63236391 </v>
   <v>       0.73330915       0.52371446       0.63470495 </v>
   <v>       0.44874502       0.30128397       0.76888902 </v>
   <v>       0.44874501       0.80128391       0.76888902 </v>
   <v>       0.94874497       0.30128397       0.76888902 </v>
   <v>       0.94874501       0.80128391       0.76888902 </v>
   <v>       0.30127600       0.05129450       0.76887296 </v>
   <v>       0.30127601       0.55129450       0.76887296 </v>
   <v>       0.80127594       0.05129450       0.76887296 </v>
   <v>       0.80127598       0.55129450       0.76887296 </v>
   <v>       0.07877100       0.17118050       0.74344197 </v>
   <v>       0.07877101       0.67118045       0.74344197 </v>
   <v>       0.57877100       0.17118050       0.74344197 </v>
   <v>       0.57877099       0.67118045       0.74344197 </v>
   <v>       0.17119950       0.42117448       0.74342103 </v>
   <v>       0.17119950       0.92117451       0.74342103 </v>
   <v>       0.67119951       0.42117448       0.74342103 </v>
   <v>       0.67119950       0.92117451       0.74342103 </v>
   <v>       0.05125600       0.19871499       0.76888902 </v>
   <v>       0.05125600       0.69871493       0.76888902 </v>
   <v>       0.55125603       0.19871499       0.76888902 </v>
   <v>       0.55125602       0.69871493       0.76888902 </v>
   <v>       0.19872349       0.44870397       0.76887205 </v>
   <v>       0.19872349       0.94870397       0.76887205 </v>
   <v>       0.69872352       0.44870397       0.76887205 </v>
   <v>       0.69872351       0.94870397       0.76887205 </v>
   <v>       0.42123152       0.32881747       0.74344197 </v>
   <v>       0.42123151       0.82881744       0.74344197 </v>
   <v>       0.92123147       0.32881747       0.74344197 </v>
   <v>       0.92123151       0.82881744       0.74344197 </v>
   <v>       0.32880050       0.07882500       0.74342103 </v>
   <v>       0.32880049       0.57882496       0.74342103 </v>
   <v>       0.82880048       0.07882500       0.74342103 </v>
   <v>       0.82880052       0.57882496       0.74342103 </v>
   <v>       0.00000350       0.25000148       0.72582199 </v>
   <v>       0.00000350       0.75000145       0.72582199 </v>
   <v>       0.50000351       0.25000148       0.72582199 </v>
   <v>       0.50000350       0.75000145       0.72582199 </v>
   <v>       0.25000050       0.00000000       0.72580398 </v>
   <v>       0.25000052       0.50000000       0.72580398 </v>
   <v>       0.75000050       0.00000000       0.72580398 </v>
   <v>       0.75000049       0.50000000       0.72580398 </v>
   <v>       0.71774456       0.44846474       0.54547946 </v>
   <v>       0.73999866       0.50817499       0.52398652 </v>
   <v>       0.64859601       0.54141647       0.56063441 </v>
   <v>       0.68444418       0.63507041       0.56344259 </v>
   <v>       0.83496098       0.50992085       0.57794799 </v>
   <v>       0.77260049       0.57513678       0.58740991 </v>
   <v>       0.86844689       0.55958279       0.54126066 </v>
   <v>       0.80619624       0.61982212       0.52837912 </v>
   <v>       0.86898076       0.48079478       0.52493623 </v>
   <v>       0.86374909       0.44645674       0.55078308 </v>
   <v>       0.88731418       0.35137721       0.52641132 </v>
   <v>       0.79785840       0.33615648       0.53681629 </v>
   <v>       0.61802162       0.54983639       0.52651473 </v>
   <v>       0.68960233       0.61269754       0.51867570 </v>
   <v>       0.61119504       0.64550767       0.53236258 </v>
   <v>       0.73281567       0.45244696       0.60156014 </v>
   <v>       0.74172956       0.41103698       0.57700750 </v>
   <v>       0.66905057       0.47200587       0.58197743 </v>
   <v>       0.83576126       0.67682067       0.57177324 </v>
   <v>       0.87535547       0.70666732       0.54738390 </v>
   <v>       0.91850938       0.63571855       0.56284018 </v>
   <v>       0.83754957       0.39959477       0.49292910 </v>
   <v>       0.80321953       0.30915320       0.49911613 </v>
   <v>       0.67001911       0.31653751       0.52272815 </v>
   <v>       0.75177379       0.48622006       0.48001761 </v>
   <v>       0.54129092       0.36596392       0.51885707 </v>
   <v>       0.62292914       0.53651637       0.47617453 </v>
   <v>       0.51699257       0.47935457       0.49657686 </v>
   <v>       0.00306740       0.24407475       0.55751459 </v>
   <v>       0.01993288       0.77154334       0.55943324 </v>
   <v>       0.48323719       0.23614290       0.55775542 </v>
   <v>       0.49046247       0.75812565       0.55780419 </v>
   <v>       0.24593631       0.50534392       0.55758735 </v>
   <v>       0.25829245       0.99125479       0.55719781 </v>
   <v>       0.76322478       0.98702293       0.55855025 </v>
   <v>       0.00182854       0.24618967       0.65043863 </v>
   <v>       0.00983904       0.76292564       0.65128304 </v>
   <v>       0.49223400       0.24421350       0.65031959 </v>
   <v>       0.49666890       0.75232534       0.65154078 </v>
   <v>       0.25609867       0.49893254       0.64917928 </v>
   <v>       0.24959818       0.99820319       0.64914687 </v>
   <v>       0.75097557       0.51168519       0.65097163 </v>
   <v>       0.75219621       0.00399853       0.64966632 </v>
   <v>       0.49998898       0.24999498       0.74327702 </v>
   <v>       0.49998903       0.74999496       0.74327702 </v>
   <v>       0.99998898       0.24999498       0.74327702 </v>
   <v>       0.99998903       0.74999496       0.74327702 </v>
   <v>       0.25000050       0.00000100       0.74325596 </v>
   <v>       0.25000052       0.50000100       0.74325596 </v>
   <v>       0.75000050       0.00000100       0.74325596 </v>
   <v>       0.75000049       0.50000100       0.74325596 </v>
   <v>       0.71945471       0.39632041       0.50178939 </v>
   <v>       0.65772644       0.36365886       0.51243587 </v>
   <v>       0.70474772       0.45879234       0.48815296 </v>
   <v>       0.58684297       0.39218891       0.51036221 </v>
   <v>       0.63167087       0.48667581       0.48652764 </v>
   <v>       0.57411155       0.45399140       0.49733574 </v>
   <v>       0.75995075       0.48433730       0.53852135 </v>
   <v>       0.68402668       0.58529675       0.55344505 </v>
   <v>       0.77659994       0.52648919       0.57702587 </v>
   <v>       0.82495254       0.59987831       0.54456320 </v>
   <v>       0.83293055       0.44950861       0.53575254 </v>
   <v>       0.83004013       0.37310257       0.52674873 </v>
   <v>       0.65027055       0.59853266       0.53130921 </v>
   <v>       0.72755499       0.46322123       0.58446315 </v>
   <v>       0.86546493       0.65852489       0.55754517 </v>
   <v>       0.79911107       0.36875571       0.50387764 </v>
   <v>       0.06314514       0.21256920       0.56462288 </v>
   <v>       0.05090724       0.71033565       0.56647414 </v>
   <v>       0.54390972       0.20973443       0.56633056 </v>
   <v>       0.51466192       0.70811376       0.57119347 </v>
   <v>       0.43779350       0.28126490       0.56712027 </v>
   <v>       0.45737489       0.81889126       0.56269586 </v>
   <v>       0.95094766       0.26889075       0.56974189 </v>
   <v>       0.97900556       0.81601347       0.57098402 </v>
   <v>       0.21705091       0.44762484       0.56687650 </v>
   <v>       0.19478416       0.96616242       0.56541601 </v>
   <v>       0.71010434       0.94875512       0.56688334 </v>
   <v>       0.30700412       0.02946061       0.56763593 </v>
   <v>       0.28868543       0.55500243       0.56723497 </v>
   <v>       0.79398167       0.04630066       0.56765840 </v>
   <v>       0.05332701       0.19973956       0.65825800 </v>
   <v>       0.05051068       0.71305188       0.66210112 </v>
   <v>       0.54301110       0.20078149       0.65981599 </v>
   <v>       0.53570400       0.70645961       0.66372827 </v>
   <v>       0.21437642       0.44624080       0.65723131 </v>
   <v>       0.20223973       0.95172029       0.65902714 </v>
   <v>       0.70710696       0.46396235       0.66156030 </v>
   <v>       0.70035653       0.96205941       0.65943152 </v>
   <v>       0.45210277       0.29343583       0.65962211 </v>
   <v>       0.45174562       0.80207319       0.65821924 </v>
   <v>       0.95635002       0.28672080       0.66189569 </v>
   <v>       0.95635439       0.80473192       0.65962375 </v>
   <v>       0.29565357       0.04261931       0.65807828 </v>
   <v>       0.29275408       0.54858967       0.65999303 </v>
   <v>       0.80246460       0.04353432       0.65867416 </v>
   <v>       0.81028953       0.54327331       0.65796156 </v>
   <v>       0.04586250       0.20411950       0.75272599 </v>
   <v>       0.04586250       0.70411946       0.75272599 </v>
   <v>       0.54586251       0.20411950       0.75272599 </v>
   <v>       0.54586250       0.70411946       0.75272599 </v>
   <v>       0.20411900       0.45410100       0.75270499 </v>
   <v>       0.20411899       0.95410095       0.75270499 </v>
   <v>       0.70411898       0.45410100       0.75270499 </v>
   <v>       0.70411896       0.95410095       0.75270499 </v>
   <v>       0.45414002       0.29588849       0.75272697 </v>
   <v>       0.45414001       0.79588852       0.75272697 </v>
   <v>       0.95414002       0.29588849       0.75272697 </v>
   <v>       0.95414006       0.79588852       0.75272697 </v>
   <v>       0.29588249       0.04590050       0.75270499 </v>
   <v>       0.29588248       0.54590053       0.75270499 </v>
   <v>       0.79588244       0.04590050       0.75270499 </v>
   <v>       0.79588248       0.54590053       0.75270499 </v>
   <v>       0.76233910       0.55215880       0.55409233 </v>
   <v>       0.48918369       0.01499108       0.55162437 </v>
   <v>       0.48298488       0.51819419       0.55622026 </v>
   <v>       0.98865636       0.00432159       0.55293463 </v>
   <v>       0.02769328       0.50891695       0.55600098 </v>
   <v>       0.25040854       0.24748678       0.55165062 </v>
   <v>       0.24931112       0.75256108       0.55221555 </v>
   <v>       0.73396094       0.22081738       0.55906494 </v>
   <v>       0.72208298       0.77916912       0.54602547 </v>
   <v>       0.00393550       0.00296195       0.65515899 </v>
   <v>       0.01864069       0.50050670       0.65613123 </v>
   <v>       0.50093967       0.99816645       0.65434676 </v>
   <v>       0.50141761       0.49245516       0.65540947 </v>
   <v>       0.25131363       0.24521708       0.65346469 </v>
   <v>       0.25444538       0.75551839       0.65513543 </v>
   <v>       0.73952866       0.25709736       0.65654568 </v>
   <v>       0.75438650       0.75491349       0.65388249 </v>
   <v>       0.14270353       0.10669537       0.60725268 </v>
   <v>       0.14595231       0.60903053       0.60923575 </v>
   <v>       0.64335411       0.10364949       0.60946919 </v>
   <v>       0.62002475       0.63215909       0.61484282 </v>
   <v>       0.35592394       0.39387638       0.60737386 </v>
   <v>       0.36343443       0.89064973       0.60778245 </v>
   <v>       0.87865977       0.37342625       0.61330559 </v>
   <v>       0.85827821       0.89664998       0.60910913 </v>
   <v>       0.11573124       0.35391837       0.60783117 </v>
   <v>       0.11449254       0.86526860       0.60982095 </v>
   <v>       0.58824148       0.34200652       0.60865458 </v>
   <v>       0.60790226       0.86149616       0.61022270 </v>
   <v>       0.39085724       0.14167094       0.60909033 </v>
   <v>       0.38474706       0.63929475       0.61209569 </v>
   <v>       0.88754681       0.13682527       0.61126502 </v>
   <v>       0.91462029       0.64964131       0.61549194 </v>
   <v>       0.00000000       0.00000000       0.75492797 </v>
   <v>       0.00000000       0.50000000       0.75492797 </v>
   <v>       0.50000000       0.00000000       0.75492797 </v>
   <v>       0.49999999       0.50000000       0.75492797 </v>
   <v>       0.25000050       0.25000000       0.75493902 </v>
   <v>       0.25000051       0.74999997       0.75493902 </v>
   <v>       0.75000047       0.25000000       0.75493902 </v>
   <v>       0.75000046       0.74999997       0.75493902 </v>
   <v>       0.13579050       0.11421000       0.70478299 </v>
   <v>       0.13579050       0.61420998       0.70478299 </v>
   <v>       0.63579045       0.11421000       0.70478299 </v>
   <v>       0.63579049       0.61420998       0.70478299 </v>
   <v>       0.36420952       0.38578999       0.70478299 </v>
   <v>       0.36420950       0.88578996       0.70478299 </v>
   <v>       0.86420954       0.38578999       0.70478299 </v>
   <v>       0.86420953       0.88578996       0.70478299 </v>
   <v>       0.11421799       0.36421899       0.70478098 </v>
   <v>       0.11421799       0.86421899       0.70478098 </v>
   <v>       0.61421800       0.36421899       0.70478098 </v>
   <v>       0.61421799       0.86421899       0.70478098 </v>
   <v>       0.38578201       0.13578149       0.70478202 </v>
   <v>       0.38578200       0.63578149       0.70478202 </v>
   <v>       0.88578199       0.13578149       0.70478202 </v>
   <v>       0.88578203       0.63578149       0.70478202 </v>
   <v>       0.13466700       0.11533200       0.80125603 </v>
   <v>       0.13466699       0.61533199       0.80125603 </v>
   <v>       0.63466699       0.11533200       0.80125603 </v>
   <v>       0.63466698       0.61533199       0.80125603 </v>
   <v>       0.36533300       0.38466799       0.80125603 </v>
   <v>       0.36533299       0.88466796       0.80125603 </v>
   <v>       0.86533295       0.38466799       0.80125603 </v>
   <v>       0.86533294       0.88466796       0.80125603 </v>
   <v>       0.11532850       0.36533700       0.80126500 </v>
   <v>       0.11532850       0.86533698       0.80126500 </v>
   <v>       0.61532850       0.36533700       0.80126500 </v>
   <v>       0.61532849       0.86533698       0.80126500 </v>
   <v>       0.38467151       0.13466300       0.80126500 </v>
   <v>       0.38467150       0.63466297       0.80126500 </v>
   <v>       0.88467149       0.13466300       0.80126500 </v>
   <v>       0.88467153       0.63466297       0.80126500 </v>
   <v>       0.99725154       0.00528630       0.60393714 </v>
   <v>       0.00756225       0.50181920       0.60634143 </v>
   <v>       0.49791582       0.00690154       0.60309798 </v>
   <v>       0.49690595       0.49878248       0.60470463 </v>
   <v>       0.24819288       0.24849096       0.60249490 </v>
   <v>       0.25315805       0.75163264       0.60342813 </v>
   <v>       0.74384372       0.25226378       0.60779735 </v>
   <v>       0.74294469       0.76182212       0.60450067 </v>
   <v>       0.00000050       0.00000050       0.70482896 </v>
   <v>       0.00000050       0.50000048       0.70482896 </v>
   <v>       0.50000048       0.00000050       0.70482896 </v>
   <v>       0.50000046       0.50000048       0.70482896 </v>
   <v>       0.24999999       0.24999947       0.70482499 </v>
   <v>       0.25000001       0.74999950       0.70482499 </v>
   <v>       0.74999999       0.24999947       0.70482499 </v>
   <v>       0.74999998       0.74999950       0.70482499 </v>
   <v>       0.00000000       0.00000000       0.80731797 </v>
   <v>       0.00000000       0.50000000       0.80731797 </v>
   <v>       0.50000000       0.00000000       0.80731797 </v>
   <v>       0.49999999       0.50000000       0.80731797 </v>
   <v>       0.24999999       0.25000000       0.80731797 </v>
   <v>       0.25000001       0.74999997       0.80731797 </v>
   <v>       0.74999999       0.25000000       0.80731797 </v>
   <v>       0.74999998       0.74999997       0.80731797 </v>
  </varray>
 </structure>
</modeling>
