<?xml version="1.0" encoding="ISO-8859-1"?>
<modeling>
 <generator>
  <i name="program" type="string">vasp </i>
  <i name="version" type="string">6.2.1  </i>
  <i name="subversion" type="string">16May21 (build Nov 15 2021 14:57:28) complex                          parallel </i>
  <i name="platform" type="string">LinuxPGI </i>
  <i name="date" type="string">2023 07 30 </i>
  <i name="time" type="string">13:46:17 </i>
 </generator>
 <incar>
  <i type="string" name="SYSTEM">PSC</i>
  <i type="int" name="ISTART">     1</i>
  <i type="string" name="PREC">Normal</i>
  <i name="BMIX">      0.01000000</i>
  <i name="AMIN">      0.01000000</i>
  <i type="int" name="ICHARG">     1</i>
  <i type="int" name="NELM">   600</i>
  <i type="int" name="ISYM">     0</i>
  <i name="ENCUT">    500.00000000</i>
  <i type="string" name="LREAL">Auto</i>
  <i type="int" name="ISMEAR">     0</i>
  <i name="SIGMA">      0.05000000</i>
  <i type="logical" name="LWAVE"> F  </i>
  <i type="logical" name="LVTOT"> T  </i>
  <i type="logical" name="GGA_COMPAT"> F  </i>
  <i type="logical" name="LDIPOL"> T  </i>
  <i type="int" name="IDIPOL">     3</i>
  <i type="int" name="IVDW">    12</i>
 </incar>
 <primitive_cell>
  <structure name="primitive_cell" >
   <crystal>
    <varray name="basis" >
     <v>      18.06080055       0.00000000       0.00000000 </v>
     <v>      -0.00491865      18.06279945       0.00000000 </v>
     <v>       0.00000000       0.00000000      62.48749924 </v>
    </varray>
    <i name="volume">  20385.21054034 </i>
    <varray name="rec_basis" >
     <v>       0.05536853       0.00001508      -0.00000000 </v>
     <v>       0.00000000       0.05536240       0.00000000 </v>
     <v>       0.00000000      -0.00000000       0.01600320 </v>
    </varray>
   </crystal>
   <varray name="positions" >
    <v>       0.40862406       0.28023883       0.56499918 </v>
    <v>       0.41350507       0.69925499       0.57267454 </v>
    <v>       0.92789895       0.29072812       0.58072522 </v>
    <v>       0.93116411       0.81539563       0.57340509 </v>
    <v>       0.32393418       0.09268629       0.56482098 </v>
    <v>       0.31998377       0.57588065       0.56946491 </v>
    <v>       0.80262118       0.10057722       0.56789294 </v>
    <v>       0.11068263       0.24102376       0.56213325 </v>
    <v>       0.07870028       0.68005104       0.56956338 </v>
    <v>       0.58897987       0.18837477       0.56488465 </v>
    <v>       0.60071075       0.75276161       0.55885732 </v>
    <v>       0.37776271       0.01982123       0.55475170 </v>
    <v>       0.25333995       0.62295175       0.55452705 </v>
    <v>       0.87531819       0.04512813       0.55786536 </v>
    <v>       0.06350008       0.28738056       0.58254840 </v>
    <v>       0.99348211       0.69480219       0.58191186 </v>
    <v>       0.49501735       0.17254321       0.57132686 </v>
    <v>       0.55006624       0.69054654       0.57444394 </v>
    <v>       0.30741476       0.43899843       0.57265165 </v>
    <v>       0.18862353       0.06775263       0.56962003 </v>
    <v>       0.68023240       0.03356780       0.57313520 </v>
    <v>       0.45186766       0.36293943       0.55717437 </v>
    <v>       0.37554662       0.76657460       0.55585178 </v>
    <v>       0.88512864       0.24122265       0.56016777 </v>
    <v>       0.97801590       0.87295975       0.55587650 </v>
    <v>       0.23479136       0.39881782       0.55868663 </v>
    <v>       0.15477333       0.98612516       0.55905683 </v>
    <v>       0.67825856       0.94210254       0.56403176 </v>
    <v>       0.56884505       0.30905700       0.55477765 </v>
    <v>       0.49400435       0.80923820       0.54519627 </v>
    <v>       0.00003000       0.20244551       0.54557854 </v>
    <v>       0.07377257       0.78950596       0.55033676 </v>
    <v>       0.18989265       0.51244822       0.54616637 </v>
    <v>       0.27333338       0.94395375       0.54913162 </v>
    <v>       0.79992528       0.94214075       0.55353582 </v>
    <v>       0.45313467       0.29446060       0.67306388 </v>
    <v>       0.44085705       0.81193580       0.67122233 </v>
    <v>       0.95990508       0.28263708       0.67774603 </v>
    <v>       0.91482291       0.73956826       0.66749215 </v>
    <v>       0.29834236       0.04226830       0.67488352 </v>
    <v>       0.30283665       0.55878084       0.67380744 </v>
    <v>       0.79696310       0.05436399       0.67494194 </v>
    <v>       0.83011953       0.49537339       0.66878971 </v>
    <v>       0.09083191       0.17117954       0.64669380 </v>
    <v>       0.10592981       0.69868230       0.65281563 </v>
    <v>       0.57762514       0.16350606       0.64686333 </v>
    <v>       0.57574235       0.67644591       0.65122101 </v>
    <v>       0.18670048       0.41207324       0.65098763 </v>
    <v>       0.16265551       0.93079185       0.64583859 </v>
    <v>       0.63917296       0.46561307       0.65188661 </v>
    <v>       0.67485919       0.91732864       0.64992150 </v>
    <v>       0.06467995       0.18825302       0.67307603 </v>
    <v>       0.02814642       0.65728457       0.66399145 </v>
    <v>       0.54384995       0.18628429       0.67213053 </v>
    <v>       0.54379157       0.71296840       0.67527813 </v>
    <v>       0.21669403       0.44540438       0.67578464 </v>
    <v>       0.18628576       0.95487845       0.67209329 </v>
    <v>       0.70141577       0.43535721       0.67108637 </v>
    <v>       0.69873998       0.95093655       0.67529858 </v>
    <v>       0.43852382       0.33894913       0.64870989 </v>
    <v>       0.41501318       0.82941675       0.64489400 </v>
    <v>       0.92594052       0.32005102       0.65386760 </v>
    <v>       0.92591994       0.83047455       0.65815434 </v>
    <v>       0.34122407       0.06226283       0.65084423 </v>
    <v>       0.31994232       0.59043634       0.64804179 </v>
    <v>       0.82808296       0.07933982       0.64960912 </v>
    <v>       0.84085544       0.56069254       0.64875824 </v>
    <v>       0.00512512       0.25261259       0.63255688 </v>
    <v>       0.04671674       0.81135027       0.64681724 </v>
    <v>       0.51418197       0.25920979       0.62988642 </v>
    <v>       0.49821962       0.74665471       0.63036760 </v>
    <v>       0.25767196       0.99475908       0.63061551 </v>
    <v>       0.24869988       0.50056594       0.63174629 </v>
    <v>       0.75450246       0.99410526       0.63214108 </v>
    <v>       0.72114709       0.54649017       0.63597907 </v>
    <v>       0.44874502       0.30128397       0.76888902 </v>
    <v>       0.44874501       0.80128391       0.76888902 </v>
    <v>       0.94874497       0.30128397       0.76888902 </v>
    <v>       0.94874501       0.80128391       0.76888902 </v>
    <v>       0.30127600       0.05129450       0.76887296 </v>
    <v>       0.30127601       0.55129450       0.76887296 </v>
    <v>       0.80127594       0.05129450       0.76887296 </v>
    <v>       0.80127598       0.55129450       0.76887296 </v>
    <v>       0.07877100       0.17118050       0.74344197 </v>
    <v>       0.07877101       0.67118045       0.74344197 </v>
    <v>       0.57877100       0.17118050       0.74344197 </v>
    <v>       0.57877099       0.67118045       0.74344197 </v>
    <v>       0.17119950       0.42117448       0.74342103 </v>
    <v>       0.17119950       0.92117451       0.74342103 </v>
    <v>       0.67119951       0.42117448       0.74342103 </v>
    <v>       0.67119950       0.92117451       0.74342103 </v>
    <v>       0.05125600       0.19871499       0.76888902 </v>
    <v>       0.05125600       0.69871493       0.76888902 </v>
    <v>       0.55125603       0.19871499       0.76888902 </v>
    <v>       0.55125602       0.69871493       0.76888902 </v>
    <v>       0.19872349       0.44870397       0.76887205 </v>
    <v>       0.19872349       0.94870397       0.76887205 </v>
    <v>       0.69872352       0.44870397       0.76887205 </v>
    <v>       0.69872351       0.94870397       0.76887205 </v>
    <v>       0.42123152       0.32881747       0.74344197 </v>
    <v>       0.42123151       0.82881744       0.74344197 </v>
    <v>       0.92123147       0.32881747       0.74344197 </v>
    <v>       0.92123151       0.82881744       0.74344197 </v>
    <v>       0.32880050       0.07882500       0.74342103 </v>
    <v>       0.32880049       0.57882496       0.74342103 </v>
    <v>       0.82880048       0.07882500       0.74342103 </v>
    <v>       0.82880052       0.57882496       0.74342103 </v>
    <v>       0.00000350       0.25000148       0.72582199 </v>
    <v>       0.00000350       0.75000145       0.72582199 </v>
    <v>       0.50000351       0.25000148       0.72582199 </v>
    <v>       0.50000350       0.75000145       0.72582199 </v>
    <v>       0.25000050       0.00000000       0.72580398 </v>
    <v>       0.25000052       0.50000000       0.72580398 </v>
    <v>       0.75000050       0.00000000       0.72580398 </v>
    <v>       0.75000049       0.50000000       0.72580398 </v>
    <v>       0.80009921       0.50845180       0.51453486 </v>
    <v>       0.87879535       0.50072782       0.53119499 </v>
    <v>       0.76165447       0.62166022       0.53197884 </v>
    <v>       0.76015316       0.62476134       0.56008590 </v>
    <v>       0.68647090       0.44702896       0.55050244 </v>
    <v>       0.66969564       0.53954727       0.55800162 </v>
    <v>       0.79677913       0.42622780       0.56676552 </v>
    <v>       0.86607422       0.49619360       0.56915797 </v>
    <v>       0.85743172       0.37527731       0.53929933 </v>
    <v>       0.76283484       0.37698172       0.53283643 </v>
    <v>       0.78296564       0.38229695       0.49549080 </v>
    <v>       0.87570177       0.40832339       0.49795079 </v>
    <v>       0.89813805       0.61887577       0.53089653 </v>
    <v>       0.90383521       0.60559910       0.55905628 </v>
    <v>       0.86770828       0.68932739       0.54857457 </v>
    <v>       0.60016262       0.51359182       0.52604326 </v>
    <v>       0.68024386       0.48572788       0.51110482 </v>
    <v>       0.66698674       0.58018292       0.51904193 </v>
    <v>       0.70781228       0.50611492       0.58760080 </v>
    <v>       0.77795887       0.57430907       0.59085719 </v>
    <v>       0.78897594       0.48426723       0.60163376 </v>
    <v>       0.82169811       0.25631835       0.51295031 </v>
    <v>       0.84517645       0.27449159       0.48634145 </v>
    <v>       0.92467048       0.15982889       0.49858440 </v>
    <v>       0.97294340       0.38407000       0.51785437 </v>
    <v>       0.05590303       0.12650052       0.50384049 </v>
    <v>       0.10181608       0.35159292       0.52289939 </v>
    <v>       0.14673821       0.22260092       0.51576228 </v>
    <v>       0.99829931       0.23733116       0.55979666 </v>
    <v>       0.02717270       0.77436838       0.56066616 </v>
    <v>       0.52157952       0.27505563       0.55947543 </v>
    <v>       0.48943082       0.76190586       0.55605433 </v>
    <v>       0.24064843       0.51085098       0.55563494 </v>
    <v>       0.26673329       0.99914699       0.55594781 </v>
    <v>       0.77681113       0.99281584       0.56008889 </v>
    <v>       0.00805775       0.24567003       0.64986265 </v>
    <v>       0.01686792       0.76575776       0.65457807 </v>
    <v>       0.50822733       0.25110601       0.64718499 </v>
    <v>       0.49575937       0.75295981       0.64773875 </v>
    <v>       0.25336587       0.50077665       0.64917879 </v>
    <v>       0.25163891       0.99657339       0.64792171 </v>
    <v>       0.73983334       0.51399525       0.64962072 </v>
    <v>       0.75161516       0.99761221       0.64953720 </v>
    <v>       0.49998898       0.24999498       0.74327702 </v>
    <v>       0.49998903       0.74999496       0.74327702 </v>
    <v>       0.99998898       0.24999498       0.74327702 </v>
    <v>       0.99998903       0.74999496       0.74327702 </v>
    <v>       0.25000050       0.00000100       0.74325596 </v>
    <v>       0.25000052       0.50000100       0.74325596 </v>
    <v>       0.75000050       0.00000100       0.74325596 </v>
    <v>       0.75000049       0.50000100       0.74325596 </v>
    <v>       0.93794584       0.27432253       0.50740285 </v>
    <v>       0.96329110       0.20211718       0.50387303 </v>
    <v>       0.98960714       0.32743324       0.51425642 </v>
    <v>       0.03811246       0.18348693       0.50652584 </v>
    <v>       0.06389553       0.30893760       0.51717571 </v>
    <v>       0.08886359       0.23724159       0.51312845 </v>
    <v>       0.82118484       0.48350426       0.52923800 </v>
    <v>       0.79046724       0.60242369       0.54641953 </v>
    <v>       0.69521906       0.50495813       0.54557610 </v>
    <v>       0.80609508       0.48607286       0.56845952 </v>
    <v>       0.81711225       0.39912730       0.52801992 </v>
    <v>       0.83338672       0.37329871       0.50513115 </v>
    <v>       0.87003510       0.62914086       0.54619744 </v>
    <v>       0.66041515       0.52188903       0.52398475 </v>
    <v>       0.76702239       0.51546234       0.58797338 </v>
    <v>       0.85712862       0.29225469       0.50289477 </v>
    <v>       0.06134408       0.25547330       0.56883466 </v>
    <v>       0.03161457       0.71050824       0.57054191 </v>
    <v>       0.53476477       0.20523842       0.56442301 </v>
    <v>       0.55002904       0.73040184       0.56283956 </v>
    <v>       0.45523347       0.30655143       0.55954893 </v>
    <v>       0.42203514       0.74027997       0.56133872 </v>
    <v>       0.93349817       0.25870684       0.56711032 </v>
    <v>       0.97112064       0.82076547       0.56197874 </v>
    <v>       0.26289953       0.44582913       0.56248970 </v>
    <v>       0.19963149       0.01943512       0.56139054 </v>
    <v>       0.70664567       0.99087388       0.56532175 </v>
    <v>       0.32582153       0.04049000       0.55820955 </v>
    <v>       0.27466344       0.57375818       0.55951285 </v>
    <v>       0.82068819       0.05002484       0.56218459 </v>
    <v>       0.05687619       0.19883734       0.65716629 </v>
    <v>       0.05147170       0.70318948       0.65729980 </v>
    <v>       0.54475678       0.19705935       0.65605254 </v>
    <v>       0.54082640       0.71143394       0.65904912 </v>
    <v>       0.21685130       0.44969630       0.65952412 </v>
    <v>       0.19633711       0.95885679       0.65605865 </v>
    <v>       0.69122878       0.46821948       0.65804830 </v>
    <v>       0.70600557       0.95240527       0.65909295 </v>
    <v>       0.46388964       0.29771991       0.65717472 </v>
    <v>       0.44767664       0.80072426       0.65532846 </v>
    <v>       0.96195677       0.28489696       0.66143021 </v>
    <v>       0.94779433       0.77897710       0.66039545 </v>
    <v>       0.29974254       0.03650971       0.65863253 </v>
    <v>       0.29453308       0.55305509       0.65785942 </v>
    <v>       0.79443044       0.04703060       0.65889143 </v>
    <v>       0.80761850       0.52323025       0.65621914 </v>
    <v>       0.04586250       0.20411950       0.75272599 </v>
    <v>       0.04586250       0.70411946       0.75272599 </v>
    <v>       0.54586251       0.20411950       0.75272599 </v>
    <v>       0.54586250       0.70411946       0.75272599 </v>
    <v>       0.20411900       0.45410100       0.75270499 </v>
    <v>       0.20411899       0.95410095       0.75270499 </v>
    <v>       0.70411898       0.45410100       0.75270499 </v>
    <v>       0.70411896       0.95410095       0.75270499 </v>
    <v>       0.45414002       0.29588849       0.75272697 </v>
    <v>       0.45414001       0.79588852       0.75272697 </v>
    <v>       0.95414002       0.29588849       0.75272697 </v>
    <v>       0.95414006       0.79588852       0.75272697 </v>
    <v>       0.29588249       0.04590050       0.75270499 </v>
    <v>       0.29588248       0.54590053       0.75270499 </v>
    <v>       0.79588244       0.04590050       0.75270499 </v>
    <v>       0.79588248       0.54590053       0.75270499 </v>
    <v>       0.77891896       0.51909466       0.54733451 </v>
    <v>       0.50968672       0.97737472       0.55267719 </v>
    <v>       0.47021036       0.50589043       0.55336227 </v>
    <v>       0.00838616       0.01254601       0.55119063 </v>
    <v>       0.03292640       0.49176308       0.55452088 </v>
    <v>       0.25552713       0.24235946       0.55483369 </v>
    <v>       0.23128144       0.76667750       0.55116896 </v>
    <v>       0.73579663       0.22631854       0.55498875 </v>
    <v>       0.72716914       0.79610456       0.55432034 </v>
    <v>       0.99573190       0.98368652       0.65419170 </v>
    <v>       0.00649027       0.50283640       0.65542522 </v>
    <v>       0.49717296       0.00138064       0.65455798 </v>
    <v>       0.49694588       0.50054852       0.65418456 </v>
    <v>       0.26383868       0.24005215       0.65547931 </v>
    <v>       0.24564931       0.75319175       0.65373201 </v>
    <v>       0.74364909       0.26081057       0.65522322 </v>
    <v>       0.75034853       0.73737810       0.65479704 </v>
    <v>       0.13673121       0.11660935       0.60905468 </v>
    <v>       0.14671743       0.60857193       0.60621836 </v>
    <v>       0.64049303       0.11017429       0.60890664 </v>
    <v>       0.61746313       0.63055948       0.60833225 </v>
    <v>       0.36799599       0.38466957       0.60885133 </v>
    <v>       0.36474440       0.88634925       0.60555532 </v>
    <v>       0.88765065       0.36417736       0.61231296 </v>
    <v>       0.86300323       0.89081266       0.60549800 </v>
    <v>       0.12634755       0.36974326       0.61112956 </v>
    <v>       0.11650614       0.87241599       0.60592094 </v>
    <v>       0.61771373       0.37012766       0.60184700 </v>
    <v>       0.61560824       0.86453583       0.61202860 </v>
    <v>       0.39748805       0.14071555       0.60406705 </v>
    <v>       0.37886553       0.63238554       0.60768026 </v>
    <v>       0.88191386       0.13268234       0.61283253 </v>
    <v>       0.90263541       0.64865220       0.61067433 </v>
    <v>       0.00000000       0.00000000       0.75492797 </v>
    <v>       0.00000000       0.50000000       0.75492797 </v>
    <v>       0.50000000       0.00000000       0.75492797 </v>
    <v>       0.49999999       0.50000000       0.75492797 </v>
    <v>       0.25000050       0.25000000       0.75493902 </v>
    <v>       0.25000051       0.74999997       0.75493902 </v>
    <v>       0.75000047       0.25000000       0.75493902 </v>
    <v>       0.75000046       0.74999997       0.75493902 </v>
    <v>       0.13579050       0.11421000       0.70478299 </v>
    <v>       0.13579050       0.61420998       0.70478299 </v>
    <v>       0.63579045       0.11421000       0.70478299 </v>
    <v>       0.63579049       0.61420998       0.70478299 </v>
    <v>       0.36420952       0.38578999       0.70478299 </v>
    <v>       0.36420950       0.88578996       0.70478299 </v>
    <v>       0.86420954       0.38578999       0.70478299 </v>
    <v>       0.86420953       0.88578996       0.70478299 </v>
    <v>       0.11421799       0.36421899       0.70478098 </v>
    <v>       0.11421799       0.86421899       0.70478098 </v>
    <v>       0.61421800       0.36421899       0.70478098 </v>
    <v>       0.61421799       0.86421899       0.70478098 </v>
    <v>       0.38578201       0.13578149       0.70478202 </v>
    <v>       0.38578200       0.63578149       0.70478202 </v>
    <v>       0.88578199       0.13578149       0.70478202 </v>
    <v>       0.88578203       0.63578149       0.70478202 </v>
    <v>       0.13466700       0.11533200       0.80125603 </v>
    <v>       0.13466699       0.61533199       0.80125603 </v>
    <v>       0.63466699       0.11533200       0.80125603 </v>
    <v>       0.63466698       0.61533199       0.80125603 </v>
    <v>       0.36533300       0.38466799       0.80125603 </v>
    <v>       0.36533299       0.88466796       0.80125603 </v>
    <v>       0.86533295       0.38466799       0.80125603 </v>
    <v>       0.86533294       0.88466796       0.80125603 </v>
    <v>       0.11532850       0.36533700       0.80126500 </v>
    <v>       0.11532850       0.86533698       0.80126500 </v>
    <v>       0.61532850       0.36533700       0.80126500 </v>
    <v>       0.61532849       0.86533698       0.80126500 </v>
    <v>       0.38467151       0.13466300       0.80126500 </v>
    <v>       0.38467150       0.63466297       0.80126500 </v>
    <v>       0.88467149       0.13466300       0.80126500 </v>
    <v>       0.88467153       0.63466297       0.80126500 </v>
    <v>       0.99874168       0.00641389       0.60411448 </v>
    <v>       0.00887081       0.50295049       0.60406247 </v>
    <v>       0.50192081       0.99407613       0.60290342 </v>
    <v>       0.49881387       0.50062201       0.60300183 </v>
    <v>       0.25560948       0.24925165       0.60607886 </v>
    <v>       0.24483447       0.75677698       0.60323754 </v>
    <v>       0.74845671       0.25117620       0.60584359 </v>
    <v>       0.75055200       0.75838108       0.60472758 </v>
    <v>       0.00000050       0.00000050       0.70482896 </v>
    <v>       0.00000050       0.50000048       0.70482896 </v>
    <v>       0.50000048       0.00000050       0.70482896 </v>
    <v>       0.50000046       0.50000048       0.70482896 </v>
    <v>       0.24999999       0.24999947       0.70482499 </v>
    <v>       0.25000001       0.74999950       0.70482499 </v>
    <v>       0.74999999       0.24999947       0.70482499 </v>
    <v>       0.74999998       0.74999950       0.70482499 </v>
    <v>       0.00000000       0.00000000       0.80731797 </v>
    <v>       0.00000000       0.50000000       0.80731797 </v>
    <v>       0.50000000       0.00000000       0.80731797 </v>
    <v>       0.49999999       0.50000000       0.80731797 </v>
    <v>       0.24999999       0.25000000       0.80731797 </v>
    <v>       0.25000001       0.74999997       0.80731797 </v>
    <v>       0.74999999       0.25000000       0.80731797 </v>
    <v>       0.74999998       0.74999997       0.80731797 </v>
   </varray>
  </structure>
  <varray name="primitive_index" >
   <v type="int" >        1 </v>
   <v type="int" >        2 </v>
   <v type="int" >        3 </v>
   <v type="int" >        4 </v>
   <v type="int" >        5 </v>
   <v type="int" >        6 </v>
   <v type="int" >        7 </v>
   <v type="int" >        8 </v>
   <v type="int" >        9 </v>
   <v type="int" >       10 </v>
   <v type="int" >       11 </v>
   <v type="int" >       12 </v>
   <v type="int" >       13 </v>
   <v type="int" >       14 </v>
   <v type="int" >       15 </v>
   <v type="int" >       16 </v>
   <v type="int" >       17 </v>
   <v type="int" >       18 </v>
   <v type="int" >       19 </v>
   <v type="int" >       20 </v>
   <v type="int" >       21 </v>
   <v type="int" >       22 </v>
   <v type="int" >       23 </v>
   <v type="int" >       24 </v>
   <v type="int" >       25 </v>
   <v type="int" >       26 </v>
   <v type="int" >       27 </v>
   <v type="int" >       28 </v>
   <v type="int" >       29 </v>
   <v type="int" >       30 </v>
   <v type="int" >       31 </v>
   <v type="int" >       32 </v>
   <v type="int" >       33 </v>
   <v type="int" >       34 </v>
   <v type="int" >       35 </v>
   <v type="int" >       36 </v>
   <v type="int" >       37 </v>
   <v type="int" >       38 </v>
   <v type="int" >       39 </v>
   <v type="int" >       40 </v>
   <v type="int" >       41 </v>
   <v type="int" >       42 </v>
   <v type="int" >       43 </v>
   <v type="int" >       44 </v>
   <v type="int" >       45 </v>
   <v type="int" >       46 </v>
   <v type="int" >       47 </v>
   <v type="int" >       48 </v>
   <v type="int" >       49 </v>
   <v type="int" >       50 </v>
   <v type="int" >       51 </v>
   <v type="int" >       52 </v>
   <v type="int" >       53 </v>
   <v type="int" >       54 </v>
   <v type="int" >       55 </v>
   <v type="int" >       56 </v>
   <v type="int" >       57 </v>
   <v type="int" >       58 </v>
   <v type="int" >       59 </v>
   <v type="int" >       60 </v>
   <v type="int" >       61 </v>
   <v type="int" >       62 </v>
   <v type="int" >       63 </v>
   <v type="int" >       64 </v>
   <v type="int" >       65 </v>
   <v type="int" >       66 </v>
   <v type="int" >       67 </v>
   <v type="int" >       68 </v>
   <v type="int" >       69 </v>
   <v type="int" >       70 </v>
   <v type="int" >       71 </v>
   <v type="int" >       72 </v>
   <v type="int" >       73 </v>
   <v type="int" >       74 </v>
   <v type="int" >       75 </v>
   <v type="int" >       76 </v>
   <v type="int" >       77 </v>
   <v type="int" >       78 </v>
   <v type="int" >       79 </v>
   <v type="int" >       80 </v>
   <v type="int" >       81 </v>
   <v type="int" >       82 </v>
   <v type="int" >       83 </v>
   <v type="int" >       84 </v>
   <v type="int" >       85 </v>
   <v type="int" >       86 </v>
   <v type="int" >       87 </v>
   <v type="int" >       88 </v>
   <v type="int" >       89 </v>
   <v type="int" >       90 </v>
   <v type="int" >       91 </v>
   <v type="int" >       92 </v>
   <v type="int" >       93 </v>
   <v type="int" >       94 </v>
   <v type="int" >       95 </v>
   <v type="int" >       96 </v>
   <v type="int" >       97 </v>
   <v type="int" >       98 </v>
   <v type="int" >       99 </v>
   <v type="int" >      100 </v>
   <v type="int" >      101 </v>
   <v type="int" >      102 </v>
   <v type="int" >      103 </v>
   <v type="int" >      104 </v>
   <v type="int" >      105 </v>
   <v type="int" >      106 </v>
   <v type="int" >      107 </v>
   <v type="int" >      108 </v>
   <v type="int" >      109 </v>
   <v type="int" >      110 </v>
   <v type="int" >      111 </v>
   <v type="int" >      112 </v>
   <v type="int" >      113 </v>
   <v type="int" >      114 </v>
   <v type="int" >      115 </v>
   <v type="int" >      116 </v>
   <v type="int" >      117 </v>
   <v type="int" >      118 </v>
   <v type="int" >      119 </v>
   <v type="int" >      120 </v>
   <v type="int" >      121 </v>
   <v type="int" >      122 </v>
   <v type="int" >      123 </v>
   <v type="int" >      124 </v>
   <v type="int" >      125 </v>
   <v type="int" >      126 </v>
   <v type="int" >      127 </v>
   <v type="int" >      128 </v>
   <v type="int" >      129 </v>
   <v type="int" >      130 </v>
   <v type="int" >      131 </v>
   <v type="int" >      132 </v>
   <v type="int" >      133 </v>
   <v type="int" >      134 </v>
   <v type="int" >      135 </v>
   <v type="int" >      136 </v>
   <v type="int" >      137 </v>
   <v type="int" >      138 </v>
   <v type="int" >      139 </v>
   <v type="int" >      140 </v>
   <v type="int" >      141 </v>
   <v type="int" >      142 </v>
   <v type="int" >      143 </v>
   <v type="int" >      144 </v>
   <v type="int" >      145 </v>
   <v type="int" >      146 </v>
   <v type="int" >      147 </v>
   <v type="int" >      148 </v>
   <v type="int" >      149 </v>
   <v type="int" >      150 </v>
   <v type="int" >      151 </v>
   <v type="int" >      152 </v>
   <v type="int" >      153 </v>
   <v type="int" >      154 </v>
   <v type="int" >      155 </v>
   <v type="int" >      156 </v>
   <v type="int" >      157 </v>
   <v type="int" >      158 </v>
   <v type="int" >      159 </v>
   <v type="int" >      160 </v>
   <v type="int" >      161 </v>
   <v type="int" >      162 </v>
   <v type="int" >      163 </v>
   <v type="int" >      164 </v>
   <v type="int" >      165 </v>
   <v type="int" >      166 </v>
   <v type="int" >      167 </v>
   <v type="int" >      168 </v>
   <v type="int" >      169 </v>
   <v type="int" >      170 </v>
   <v type="int" >      171 </v>
   <v type="int" >      172 </v>
   <v type="int" >      173 </v>
   <v type="int" >      174 </v>
   <v type="int" >      175 </v>
   <v type="int" >      176 </v>
   <v type="int" >      177 </v>
   <v type="int" >      178 </v>
   <v type="int" >      179 </v>
   <v type="int" >      180 </v>
   <v type="int" >      181 </v>
   <v type="int" >      182 </v>
   <v type="int" >      183 </v>
   <v type="int" >      184 </v>
   <v type="int" >      185 </v>
   <v type="int" >      186 </v>
   <v type="int" >      187 </v>
   <v type="int" >      188 </v>
   <v type="int" >      189 </v>
   <v type="int" >      190 </v>
   <v type="int" >      191 </v>
   <v type="int" >      192 </v>
   <v type="int" >      193 </v>
   <v type="int" >      194 </v>
   <v type="int" >      195 </v>
   <v type="int" >      196 </v>
   <v type="int" >      197 </v>
   <v type="int" >      198 </v>
   <v type="int" >      199 </v>
   <v type="int" >      200 </v>
   <v type="int" >      201 </v>
   <v type="int" >      202 </v>
   <v type="int" >      203 </v>
   <v type="int" >      204 </v>
   <v type="int" >      205 </v>
   <v type="int" >      206 </v>
   <v type="int" >      207 </v>
   <v type="int" >      208 </v>
   <v type="int" >      209 </v>
   <v type="int" >      210 </v>
   <v type="int" >      211 </v>
   <v type="int" >      212 </v>
   <v type="int" >      213 </v>
   <v type="int" >      214 </v>
   <v type="int" >      215 </v>
   <v type="int" >      216 </v>
   <v type="int" >      217 </v>
   <v type="int" >      218 </v>
   <v type="int" >      219 </v>
   <v type="int" >      220 </v>
   <v type="int" >      221 </v>
   <v type="int" >      222 </v>
   <v type="int" >      223 </v>
   <v type="int" >      224 </v>
   <v type="int" >      225 </v>
   <v type="int" >      226 </v>
   <v type="int" >      227 </v>
   <v type="int" >      228 </v>
   <v type="int" >      229 </v>
   <v type="int" >      230 </v>
   <v type="int" >      231 </v>
   <v type="int" >      232 </v>
   <v type="int" >      233 </v>
   <v type="int" >      234 </v>
   <v type="int" >      235 </v>
   <v type="int" >      236 </v>
   <v type="int" >      237 </v>
   <v type="int" >      238 </v>
   <v type="int" >      239 </v>
   <v type="int" >      240 </v>
   <v type="int" >      241 </v>
   <v type="int" >      242 </v>
   <v type="int" >      243 </v>
   <v type="int" >      244 </v>
   <v type="int" >      245 </v>
   <v type="int" >      246 </v>
   <v type="int" >      247 </v>
   <v type="int" >      248 </v>
   <v type="int" >      249 </v>
   <v type="int" >      250 </v>
   <v type="int" >      251 </v>
   <v type="int" >      252 </v>
   <v type="int" >      253 </v>
   <v type="int" >      254 </v>
   <v type="int" >      255 </v>
   <v type="int" >      256 </v>
   <v type="int" >      257 </v>
   <v type="int" >      258 </v>
   <v type="int" >      259 </v>
   <v type="int" >      260 </v>
   <v type="int" >      261 </v>
   <v type="int" >      262 </v>
   <v type="int" >      263 </v>
   <v type="int" >      264 </v>
   <v type="int" >      265 </v>
   <v type="int" >      266 </v>
   <v type="int" >      267 </v>
   <v type="int" >      268 </v>
   <v type="int" >      269 </v>
   <v type="int" >      270 </v>
   <v type="int" >      271 </v>
   <v type="int" >      272 </v>
   <v type="int" >      273 </v>
   <v type="int" >      274 </v>
   <v type="int" >      275 </v>
   <v type="int" >      276 </v>
   <v type="int" >      277 </v>
   <v type="int" >      278 </v>
   <v type="int" >      279 </v>
   <v type="int" >      280 </v>
   <v type="int" >      281 </v>
   <v type="int" >      282 </v>
   <v type="int" >      283 </v>
   <v type="int" >      284 </v>
   <v type="int" >      285 </v>
   <v type="int" >      286 </v>
   <v type="int" >      287 </v>
   <v type="int" >      288 </v>
   <v type="int" >      289 </v>
   <v type="int" >      290 </v>
   <v type="int" >      291 </v>
   <v type="int" >      292 </v>
   <v type="int" >      293 </v>
   <v type="int" >      294 </v>
   <v type="int" >      295 </v>
   <v type="int" >      296 </v>
   <v type="int" >      297 </v>
   <v type="int" >      298 </v>
   <v type="int" >      299 </v>
   <v type="int" >      300 </v>
   <v type="int" >      301 </v>
   <v type="int" >      302 </v>
   <v type="int" >      303 </v>
   <v type="int" >      304 </v>
   <v type="int" >      305 </v>
   <v type="int" >      306 </v>
   <v type="int" >      307 </v>
   <v type="int" >      308 </v>
   <v type="int" >      309 </v>
   <v type="int" >      310 </v>
   <v type="int" >      311 </v>
   <v type="int" >      312 </v>
   <v type="int" >      313 </v>
   <v type="int" >      314 </v>
   <v type="int" >      315 </v>
   <v type="int" >      316 </v>
   <v type="int" >      317 </v>
   <v type="int" >      318 </v>
   <v type="int" >      319 </v>
   <v type="int" >      320 </v>
   <v type="int" >      321 </v>
   <v type="int" >      322 </v>
   <v type="int" >      323 </v>
   <v type="int" >      324 </v>
   <v type="int" >      325 </v>
  </varray>
 </primitive_cell>
 <kpoints>
  <generation param="Gamma">
   <v type="int" name="divisions">       3        3        1 </v>
   <v name="usershift">      0.00000000       0.00000000       0.00000000 </v>
   <v name="genvec1">      0.33333333       0.00000000       0.00000000 </v>
   <v name="genvec2">      0.00000000       0.33333333       0.00000000 </v>
   <v name="genvec3">      0.00000000       0.00000000       1.00000000 </v>
   <v name="shift">      0.00000000       0.00000000       0.00000000 </v>
  </generation>
  <varray name="kpointlist" >
   <v>       0.00000000       0.00000000       0.00000000 </v>
   <v>       0.33333333       0.00000000       0.00000000 </v>
   <v>       0.00000000       0.33333333       0.00000000 </v>
   <v>       0.33333333       0.33333333       0.00000000 </v>
   <v>      -0.33333333       0.33333333       0.00000000 </v>
  </varray>
  <varray name="weights" >
   <v>       0.11111111 </v>
   <v>       0.22222222 </v>
   <v>       0.22222222 </v>
   <v>       0.22222222 </v>
   <v>       0.22222222 </v>
  </varray>
 </kpoints>
 <parameters>
  <separator name="general" >
   <i type="string" name="SYSTEM">PSC</i>
   <i type="logical" name="LCOMPAT"> F  </i>
  </separator>
  <separator name="electronic" >
   <i type="string" name="PREC">normal</i>
   <i name="ENMAX">    500.00000000</i>
   <i name="ENAUG">    644.87300000</i>
   <i name="EDIFF">      0.00010000</i>
   <i type="int" name="IALGO">    38</i>
   <i type="int" name="IWAVPR">    10</i>
   <i type="int" name="NBANDS">   732</i>
   <i type="int" name="NBANDSLOW">    -1</i>
   <i type="int" name="NBANDSHIGH">    -1</i>
   <i name="NELECT">   1134.00000000</i>
   <i type="int" name="TURBO">     0</i>
   <i type="int" name="IRESTART">     0</i>
   <i type="int" name="NREBOOT">     0</i>
   <i type="int" name="NMIN">     0</i>
   <i name="EREF">      0.00000000</i>
   <separator name="electronic smearing" >
    <i type="int" name="ISMEAR">     0</i>
    <i name="SIGMA">      0.05000000</i>
    <i name="KSPACING">      0.50000000</i>
    <i type="logical" name="KGAMMA"> T  </i>
    <i type="logical" name="KBLOWUP"> T  </i>
   </separator>
   <separator name="electronic projectors" >
    <i type="logical" name="LREAL"> T  </i>
    <v name="ROPT">     -0.00050000     -0.00050000     -0.00050000     -0.00050000     -0.00050000</v>
    <i type="int" name="LMAXPAW">  -100</i>
    <i type="int" name="LMAXMIX">     2</i>
    <i type="logical" name="NLSPLINE"> F  </i>
   </separator>
   <separator name="electronic startup" >
    <i type="int" name="ISTART">     0</i>
    <i type="int" name="ICHARG">     1</i>
    <i type="int" name="INIWAV">     1</i>
   </separator>
   <separator name="electronic spin" >
    <i type="int" name="ISPIN">     1</i>
    <i type="logical" name="LNONCOLLINEAR"> F  </i>
    <v name="MAGMOM">      1.00000000      1.00000000      1.00000000      1.00000000      1.00000000      1.00000000      1.00000000      1.00000000      1.00000000      1.00000000      1.00000000      1.00000000      1.00000000      1.00000000      1.00000000      1.00000000      1.00000000      1.00000000      1.00000000      1.00000000
      1.00000000      1.00000000      1.00000000      1.00000000      1.00000000      1.00000000      1.00000000      1.00000000      1.00000000      1.00000000      1.00000000      1.00000000      1.00000000      1.00000000      1.00000000      1.00000000      1.00000000      1.00000000      1.00000000      1.00000000
      1.00000000      1.00000000      1.00000000      1.00000000      1.00000000      1.00000000      1.00000000      1.00000000      1.00000000      1.00000000      1.00000000      1.00000000      1.00000000      1.00000000      1.00000000      1.00000000      1.00000000      1.00000000      1.00000000      1.00000000
      1.00000000      1.00000000      1.00000000      1.00000000      1.00000000      1.00000000      1.00000000      1.00000000      1.00000000      1.00000000      1.00000000      1.00000000      1.00000000      1.00000000      1.00000000      1.00000000      1.00000000      1.00000000      1.00000000      1.00000000
      1.00000000      1.00000000      1.00000000      1.00000000      1.00000000      1.00000000      1.00000000      1.00000000      1.00000000      1.00000000      1.00000000      1.00000000      1.00000000      1.00000000      1.00000000      1.00000000      1.00000000      1.00000000      1.00000000      1.00000000
      1.00000000      1.00000000      1.00000000      1.00000000      1.00000000      1.00000000      1.00000000      1.00000000      1.00000000      1.00000000      1.00000000      1.00000000      1.00000000      1.00000000      1.00000000      1.00000000      1.00000000      1.00000000      1.00000000      1.00000000
      1.00000000      1.00000000      1.00000000      1.00000000      1.00000000      1.00000000      1.00000000      1.00000000      1.00000000      1.00000000      1.00000000      1.00000000      1.00000000      1.00000000      1.00000000      1.00000000      1.00000000      1.00000000      1.00000000      1.00000000
      1.00000000      1.00000000      1.00000000      1.00000000      1.00000000      1.00000000      1.00000000      1.00000000      1.00000000      1.00000000      1.00000000      1.00000000      1.00000000      1.00000000      1.00000000      1.00000000      1.00000000      1.00000000      1.00000000      1.00000000
      1.00000000      1.00000000      1.00000000      1.00000000      1.00000000      1.00000000      1.00000000      1.00000000      1.00000000      1.00000000      1.00000000      1.00000000      1.00000000      1.00000000      1.00000000      1.00000000      1.00000000      1.00000000      1.00000000      1.00000000
      1.00000000      1.00000000      1.00000000      1.00000000      1.00000000      1.00000000      1.00000000      1.00000000      1.00000000      1.00000000      1.00000000      1.00000000      1.00000000      1.00000000      1.00000000      1.00000000      1.00000000      1.00000000      1.00000000      1.00000000
      1.00000000      1.00000000      1.00000000      1.00000000      1.00000000      1.00000000      1.00000000      1.00000000      1.00000000      1.00000000      1.00000000      1.00000000      1.00000000      1.00000000      1.00000000      1.00000000      1.00000000      1.00000000      1.00000000      1.00000000
      1.00000000      1.00000000      1.00000000      1.00000000      1.00000000      1.00000000      1.00000000      1.00000000      1.00000000      1.00000000      1.00000000      1.00000000      1.00000000      1.00000000      1.00000000      1.00000000      1.00000000      1.00000000      1.00000000      1.00000000
      1.00000000      1.00000000      1.00000000      1.00000000      1.00000000      1.00000000      1.00000000      1.00000000      1.00000000      1.00000000      1.00000000      1.00000000      1.00000000      1.00000000      1.00000000      1.00000000      1.00000000      1.00000000      1.00000000      1.00000000
      1.00000000      1.00000000      1.00000000      1.00000000      1.00000000      1.00000000      1.00000000      1.00000000      1.00000000      1.00000000      1.00000000      1.00000000      1.00000000      1.00000000      1.00000000      1.00000000      1.00000000      1.00000000      1.00000000      1.00000000
      1.00000000      1.00000000      1.00000000      1.00000000      1.00000000      1.00000000      1.00000000      1.00000000      1.00000000      1.00000000      1.00000000      1.00000000      1.00000000      1.00000000      1.00000000      1.00000000      1.00000000      1.00000000      1.00000000      1.00000000
      1.00000000      1.00000000      1.00000000      1.00000000      1.00000000      1.00000000      1.00000000      1.00000000      1.00000000      1.00000000      1.00000000      1.00000000      1.00000000      1.00000000      1.00000000      1.00000000      1.00000000      1.00000000      1.00000000      1.00000000
      1.00000000      1.00000000      1.00000000      1.00000000      1.00000000</v>
    <i name="NUPDOWN">     -1.00000000</i>
    <i type="logical" name="LSORBIT"> F  </i>
    <v name="SAXIS">      0.00000000      0.00000000      1.00000000</v>
    <i type="logical" name="LSPIRAL"> F  </i>
    <v name="QSPIRAL">      0.00000000      0.00000000      0.00000000</v>
    <i type="logical" name="LZEROZ"> F  </i>
   </separator>
   <separator name="electronic exchange-correlation" >
    <i type="logical" name="LASPH"> F  </i>
    <i type="logical" name="LMETAGGA"> F  </i>
   </separator>
   <separator name="electronic convergence" >
    <i type="int" name="NELM">   600</i>
    <i type="int" name="NELMDL">     0</i>
    <i type="int" name="NELMIN">     2</i>
    <i name="ENINI">    500.00000000</i>
    <separator name="electronic convergence detail" >
     <i type="logical" name="LDIAG"> T  </i>
     <i type="logical" name="LSUBROT"> F  </i>
     <i name="WEIMIN">      0.00000000</i>
     <i name="EBREAK">      0.00000003</i>
     <i name="DEPER">      0.30000000</i>
     <i type="int" name="NRMM">     4</i>
     <i name="TIME">      0.40000000</i>
    </separator>
   </separator>
   <separator name="electronic mixer" >
    <i name="AMIX">      0.40000000</i>
    <i name="BMIX">      0.01000000</i>
    <i name="AMIN">      0.01000000</i>
    <i name="AMIX_MAG">      1.60000000</i>
    <i name="BMIX_MAG">      0.01000000</i>
    <separator name="electronic mixer details" >
     <i type="int" name="IMIX">     4</i>
     <i type="logical" name="MIXFIRST"> F  </i>
     <i type="int" name="MAXMIX">   -45</i>
     <i name="WC">    100.00000000</i>
     <i type="int" name="INIMIX">     1</i>
     <i type="int" name="MIXPRE">     1</i>
     <i type="int" name="MREMOVE">     5</i>
    </separator>
   </separator>
   <separator name="electronic dipolcorrection" >
    <i type="logical" name="LDIPOL"> T  </i>
    <i type="logical" name="LMONO"> F  </i>
    <i type="int" name="IDIPOL">     3</i>
    <i name="EPSILON">      1.00000000</i>
    <v name="DIPOL">   -100.00000000   -100.00000000   -100.00000000</v>
    <i name="EFIELD">      0.00000000</i>
   </separator>
  </separator>
  <separator name="grids" >
   <i type="int" name="NGX">   100</i>
   <i type="int" name="NGY">   100</i>
   <i type="int" name="NGZ">   350</i>
   <i type="int" name="NGXF">   200</i>
   <i type="int" name="NGYF">   200</i>
   <i type="int" name="NGZF">   700</i>
   <i type="logical" name="ADDGRID"> F  </i>
  </separator>
  <separator name="ionic" >
   <i type="int" name="NSW">     0</i>
   <i type="int" name="IBRION">    -1</i>
   <i type="int" name="MDALGO">     0</i>
   <i type="int" name="ISIF">     2</i>
   <i name="PSTRESS">      0.00000000</i>
   <i name="EDIFFG">      0.00100000</i>
   <i type="int" name="NFREE">     0</i>
   <i name="POTIM">      0.50000000</i>
   <i name="SMASS">     -3.00000000</i>
   <i name="SCALEE">      1.00000000</i>
  </separator>
  <separator name="ionic md" >
   <i name="TEBEG">      0.00010000</i>
   <i name="TEEND">      0.00010000</i>
   <i type="int" name="NBLOCK">     1</i>
   <i type="int" name="KBLOCK">     1</i>
   <i type="int" name="NPACO">   256</i>
   <i name="APACO">     16.00000000</i>
  </separator>
  <separator name="symmetry" >
   <i type="int" name="ISYM">     0</i>
   <i name="SYMPREC">      0.00001000</i>
  </separator>
  <separator name="dos" >
   <i type="int" name="LORBIT">     0</i>
   <v name="RWIGS">     -1.00000000     -1.00000000     -1.00000000     -1.00000000     -1.00000000</v>
   <i type="int" name="NEDOS">   301</i>
   <i name="EMIN">     10.00000000</i>
   <i name="EMAX">    -10.00000000</i>
   <i name="EFERMI">      0.00000000</i>
  </separator>
  <separator name="writing" >
   <i type="int" name="NWRITE">     2</i>
   <i type="logical" name="LWAVE"> F  </i>
   <i type="logical" name="LDOWNSAMPLE"> F  </i>
   <i type="logical" name="LCHARG"> T  </i>
   <i type="logical" name="LPARD"> F  </i>
   <i type="logical" name="LVTOT"> T  </i>
   <i type="logical" name="LVHAR"> F  </i>
   <i type="logical" name="LELF"> F  </i>
   <i type="logical" name="LOPTICS"> F  </i>
   <v name="STM">      0.00000000      0.00000000      0.00000000      0.00000000      0.00000000      0.00000000      0.00000000</v>
  </separator>
  <separator name="performance" >
   <i type="int" name="NPAR">     4</i>
   <i type="int" name="NSIM">     4</i>
   <i type="int" name="NBLK">    -1</i>
   <i type="logical" name="LPLANE"> T  </i>
   <i type="logical" name="LSCALAPACK"> T  </i>
   <i type="logical" name="LSCAAWARE"> F  </i>
   <i type="logical" name="LSCALU"> F  </i>
   <i type="logical" name="LASYNC"> F  </i>
   <i type="logical" name="LORBITALREAL"> F  </i>
  </separator>
  <separator name="miscellaneous" >
   <i type="int" name="IDIOT">     3</i>
   <i type="int" name="PHON_NSTRUCT">    -1</i>
   <i type="logical" name="LMUSIC"> F  </i>
   <v name="POMASS">      1.00000000     12.01100000     14.00100000    126.90400000    207.20000000</v>
   <v name="DARWINR">      0.00000000      0.00000000      0.00000000      0.00000000      0.00000000</v>
   <v name="DARWINV">      1.00000000      1.00000000      1.00000000      1.00000000      1.00000000</v>
   <i type="logical" name="LCORR"> T  </i>
  </separator>
  <i type="logical" name="GGA_COMPAT"> F  </i>
  <i type="logical" name="LBERRY"> F  </i>
  <i type="int" name="ICORELEVEL">     0</i>
  <i type="logical" name="LDAU"> F  </i>
  <i type="int" name="I_CONSTRAINED_M">     0</i>
  <separator name="electronic exchange-correlation" >
   <i type="string" name="GGA">--</i>
   <i type="int" name="VOSKOWN">     0</i>
   <i type="logical" name="LHFCALC"> F  </i>
   <i type="string" name="PRECFOCK"></i>
   <i type="logical" name="LSYMGRAD"> F  </i>
   <i type="logical" name="LHFONE"> F  </i>
   <i type="logical" name="LRHFCALC"> F  </i>
   <i type="logical" name="LTHOMAS"> F  </i>
   <i type="logical" name="LMODELHF"> F  </i>
   <i type="logical" name="LFOCKACE"> F  </i>
   <i name="ENCUT4O">     -1.00000000</i>
   <i type="int" name="EXXOEP">     0</i>
   <i type="int" name="FOURORBIT">     0</i>
   <i name="AEXX">      0.00000000</i>
   <i name="HFALPHA">      0.00000000</i>
   <i name="MCALPHA">      0.00000000</i>
   <i name="ALDAX">      1.00000000</i>
   <i name="AGGAX">      1.00000000</i>
   <i name="ALDAC">      1.00000000</i>
   <i name="AGGAC">      1.00000000</i>
   <i type="int" name="NKREDX">     1</i>
   <i type="int" name="NKREDY">     1</i>
   <i type="int" name="NKREDZ">     1</i>
   <i type="logical" name="SHIFTRED"> F  </i>
   <i type="logical" name="ODDONLY"> F  </i>
   <i type="logical" name="EVENONLY"> F  </i>
   <i type="int" name="LMAXFOCK">     0</i>
   <i type="int" name="NMAXFOCKAE">     0</i>
   <i type="logical" name="LFOCKAEDFT"> F  </i>
   <i name="HFSCREEN">      0.00000000</i>
   <i name="HFSCREENC">      0.00000000</i>
   <i type="int" name="NBANDSGWLOW">     0</i>
  </separator>
  <separator name="vdW DFT" >
   <i type="logical" name="LUSE_VDW"> F  </i>
   <i name="Zab_VDW">     -0.84910000</i>
   <i name="PARAM1">      0.12340000</i>
   <i name="PARAM2">      1.00000000</i>
   <i name="PARAM3">      0.00000000</i>
  </separator>
  <separator name="model GW" >
   <i type="int" name="MODEL_GW">     0</i>
   <i name="MODEL_EPS0">     37.63423484</i>
   <i name="MODEL_ALPHA">      1.00000000</i>
  </separator>
  <separator name="linear response parameters" >
   <i type="logical" name="LEPSILON"> F  </i>
   <i type="logical" name="LRPA"> F  </i>
   <i type="logical" name="LNABLA"> F  </i>
   <i type="logical" name="LVEL"> F  </i>
   <i type="int" name="KINTER">     0</i>
   <i name="CSHIFT">      0.10000000</i>
   <i name="OMEGAMAX">     -1.00000000</i>
   <i name="DEG_THRESHOLD">      0.00200000</i>
   <i name="RTIME">     -0.10000000</i>
   <i name="WPLASMAI">      0.00000000</i>
   <v name="DFIELD">      0.00000000      0.00000000      0.00000000</v>
   <v name="WPLASMA">      0.00000000      0.00000000      0.00000000      0.00000000      0.00000000      0.00000000      0.00000000      0.00000000      0.00000000</v>
  </separator>
  <separator name="orbital magnetization" >
   <i type="logical" name="NUCIND"> F  </i>
   <v name="MAGPOS">      0.00000000      0.00000000      0.00000000</v>
   <i type="logical" name="LNICSALL"> T  </i>
   <i type="logical" name="ORBITALMAG"> F  </i>
   <i type="logical" name="LMAGBLOCH"> F  </i>
   <i type="logical" name="LCHIMAG"> F  </i>
   <i type="logical" name="LGAUGE"> T  </i>
   <i type="int" name="MAGATOM">     0</i>
   <v name="MAGDIPOL">      0.00000000      0.00000000      0.00000000</v>
   <v name="AVECCONST">      0.00000000      0.00000000      0.00000000</v>
  </separator>
  <separator name="response functions" >
   <i type="logical" name="LFINITE_TEMPERATURE"> F  </i>
   <i type="logical" name="LADDER"> F  </i>
   <i type="logical" name="LRPAFORCE"> F  </i>
   <i type="logical" name="LFXC"> F  </i>
   <i type="logical" name="LHARTREE"> T  </i>
   <i type="int" name="IBSE">     0</i>
   <v type="int" name="KPOINT">    -1     0     0     0</v>
   <i type="logical" name="LTCTC"> F  </i>
   <i type="logical" name="LTCTE"> F  </i>
   <i type="logical" name="LTETE"> F  </i>
   <i type="logical" name="LTRIPLET"> F  </i>
   <i type="logical" name="LFXCEPS"> F  </i>
   <i type="logical" name="LFXHEG"> F  </i>
   <i type="int" name="NATURALO">     2</i>
   <i type="logical" name="LHOLEGF"> F  </i>
   <i type="logical" name="L2ORDER"> F  </i>
   <i type="logical" name="LDMP1"> F  </i>
   <i type="logical" name="LMP2LT"> F  </i>
   <i type="logical" name="LSMP2LT"> F  </i>
   <i type="logical" name="LGWLF"> F  </i>
   <i name="ENCUTGW">     -2.00000000</i>
   <i name="ENCUTGWSOFT">     -2.00000000</i>
   <i name="ENCUTLF">     -1.00000000</i>
   <i type="logical" name="LESF_SPLINES"> F  </i>
   <i type="int" name="LMAXMP2">    -1</i>
   <i name="SCISSOR">      0.00000000</i>
   <i type="int" name="NOMEGA">     0</i>
   <i type="int" name="NOMEGAR">     0</i>
   <i type="int" name="NBANDSGW">    -1</i>
   <i type="int" name="NBANDSO">    -1</i>
   <i type="int" name="NBANDSV">    -1</i>
   <i type="int" name="NELM">   600</i>
   <i type="int" name="NELMHF">     1</i>
   <i type="int" name="DIM">     3</i>
   <i type="int" name="IESPILON">     4</i>
   <i type="int" name="ANTIRES">     0</i>
   <i name="OMEGAMAX">    -30.00000000</i>
   <i name="OMEGAMIN">    -30.00000000</i>
   <i name="OMEGATL">   -200.00000000</i>
   <i type="int" name="OMEGAGRID">     0</i>
   <i name="CSHIFT">     -0.10000000</i>
   <i type="logical" name="LSELFENERGY"> F  </i>
   <i type="logical" name="LSPECTRAL"> F  </i>
   <i type="logical" name="LSPECTRALGW"> F  </i>
   <i type="logical" name="LSINGLES"> F  </i>
   <i type="logical" name="LFERMIGW"> F  </i>
   <i type="logical" name="ODDONLYGW"> F  </i>
   <i type="logical" name="EVENONLYGW"> F  </i>
   <i type="int" name="NKREDLFX">     1</i>
   <i type="int" name="NKREDLFY">     1</i>
   <i type="int" name="NKREDLFZ">     1</i>
   <i type="int" name="MAXMEM">  2800</i>
   <i type="int" name="TELESCOPE">     0</i>
   <i type="int" name="NTAUPAR">    -1</i>
   <i type="int" name="NOMEGAPAR">    -1</i>
   <i name="DAMP_NEWTON">      0.80000001</i>
   <i name="LAMBDA">      1.00000000</i>
  </separator>
  <separator name="External order field" >
   <i name="OFIELD_KAPPA">      0.00000000</i>
   <v name="OFIELD_K">      0.00000000      0.00000000      0.00000000</v>
   <i name="OFIELD_Q6_NEAR">      0.00000000</i>
   <i name="OFIELD_Q6_FAR">      0.00000000</i>
   <i name="OFIELD_A">      0.00000000</i>
  </separator>
 </parameters>
 <atominfo>
  <atoms>     325 </atoms>
  <types>       5 </types>
  <array name="atoms" >
   <dimension dim="1">ion</dimension>
   <field type="string">element</field>
   <field type="int">atomtype</field>
   <set>
    <rc><c>H </c><c>   1</c></rc>
    <rc><c>H </c><c>   1</c></rc>
    <rc><c>H </c><c>   1</c></rc>
    <rc><c>H </c><c>   1</c></rc>
    <rc><c>H </c><c>   1</c></rc>
    <rc><c>H </c><c>   1</c></rc>
    <rc><c>H </c><c>   1</c></rc>
    <rc><c>H </c><c>   1</c></rc>
    <rc><c>H </c><c>   1</c></rc>
    <rc><c>H </c><c>   1</c></rc>
    <rc><c>H </c><c>   1</c></rc>
    <rc><c>H </c><c>   1</c></rc>
    <rc><c>H </c><c>   1</c></rc>
    <rc><c>H </c><c>   1</c></rc>
    <rc><c>H </c><c>   1</c></rc>
    <rc><c>H </c><c>   1</c></rc>
    <rc><c>H </c><c>   1</c></rc>
    <rc><c>H </c><c>   1</c></rc>
    <rc><c>H </c><c>   1</c></rc>
    <rc><c>H </c><c>   1</c></rc>
    <rc><c>H </c><c>   1</c></rc>
    <rc><c>H </c><c>   1</c></rc>
    <rc><c>H </c><c>   1</c></rc>
    <rc><c>H </c><c>   1</c></rc>
    <rc><c>H </c><c>   1</c></rc>
    <rc><c>H </c><c>   1</c></rc>
    <rc><c>H </c><c>   1</c></rc>
    <rc><c>H </c><c>   1</c></rc>
    <rc><c>H </c><c>   1</c></rc>
    <rc><c>H </c><c>   1</c></rc>
    <rc><c>H </c><c>   1</c></rc>
    <rc><c>H </c><c>   1</c></rc>
    <rc><c>H </c><c>   1</c></rc>
    <rc><c>H </c><c>   1</c></rc>
    <rc><c>H </c><c>   1</c></rc>
    <rc><c>H </c><c>   1</c></rc>
    <rc><c>H </c><c>   1</c></rc>
    <rc><c>H </c><c>   1</c></rc>
    <rc><c>H </c><c>   1</c></rc>
    <rc><c>H </c><c>   1</c></rc>
    <rc><c>H </c><c>   1</c></rc>
    <rc><c>H </c><c>   1</c></rc>
    <rc><c>H </c><c>   1</c></rc>
    <rc><c>H </c><c>   1</c></rc>
    <rc><c>H </c><c>   1</c></rc>
    <rc><c>H </c><c>   1</c></rc>
    <rc><c>H </c><c>   1</c></rc>
    <rc><c>H </c><c>   1</c></rc>
    <rc><c>H </c><c>   1</c></rc>
    <rc><c>H </c><c>   1</c></rc>
    <rc><c>H </c><c>   1</c></rc>
    <rc><c>H </c><c>   1</c></rc>
    <rc><c>H </c><c>   1</c></rc>
    <rc><c>H </c><c>   1</c></rc>
    <rc><c>H </c><c>   1</c></rc>
    <rc><c>H </c><c>   1</c></rc>
    <rc><c>H </c><c>   1</c></rc>
    <rc><c>H </c><c>   1</c></rc>
    <rc><c>H </c><c>   1</c></rc>
    <rc><c>H </c><c>   1</c></rc>
    <rc><c>H </c><c>   1</c></rc>
    <rc><c>H </c><c>   1</c></rc>
    <rc><c>H </c><c>   1</c></rc>
    <rc><c>H </c><c>   1</c></rc>
    <rc><c>H </c><c>   1</c></rc>
    <rc><c>H </c><c>   1</c></rc>
    <rc><c>H </c><c>   1</c></rc>
    <rc><c>H </c><c>   1</c></rc>
    <rc><c>H </c><c>   1</c></rc>
    <rc><c>H </c><c>   1</c></rc>
    <rc><c>H </c><c>   1</c></rc>
    <rc><c>H </c><c>   1</c></rc>
    <rc><c>H </c><c>   1</c></rc>
    <rc><c>H </c><c>   1</c></rc>
    <rc><c>H </c><c>   1</c></rc>
    <rc><c>H </c><c>   1</c></rc>
    <rc><c>H </c><c>   1</c></rc>
    <rc><c>H </c><c>   1</c></rc>
    <rc><c>H </c><c>   1</c></rc>
    <rc><c>H </c><c>   1</c></rc>
    <rc><c>H </c><c>   1</c></rc>
    <rc><c>H </c><c>   1</c></rc>
    <rc><c>H </c><c>   1</c></rc>
    <rc><c>H </c><c>   1</c></rc>
    <rc><c>H </c><c>   1</c></rc>
    <rc><c>H </c><c>   1</c></rc>
    <rc><c>H </c><c>   1</c></rc>
    <rc><c>H </c><c>   1</c></rc>
    <rc><c>H </c><c>   1</c></rc>
    <rc><c>H </c><c>   1</c></rc>
    <rc><c>H </c><c>   1</c></rc>
    <rc><c>H </c><c>   1</c></rc>
    <rc><c>H </c><c>   1</c></rc>
    <rc><c>H </c><c>   1</c></rc>
    <rc><c>H </c><c>   1</c></rc>
    <rc><c>H </c><c>   1</c></rc>
    <rc><c>H </c><c>   1</c></rc>
    <rc><c>H </c><c>   1</c></rc>
    <rc><c>H </c><c>   1</c></rc>
    <rc><c>H </c><c>   1</c></rc>
    <rc><c>H </c><c>   1</c></rc>
    <rc><c>H </c><c>   1</c></rc>
    <rc><c>H </c><c>   1</c></rc>
    <rc><c>H </c><c>   1</c></rc>
    <rc><c>H </c><c>   1</c></rc>
    <rc><c>H </c><c>   1</c></rc>
    <rc><c>H </c><c>   1</c></rc>
    <rc><c>H </c><c>   1</c></rc>
    <rc><c>H </c><c>   1</c></rc>
    <rc><c>H </c><c>   1</c></rc>
    <rc><c>H </c><c>   1</c></rc>
    <rc><c>H </c><c>   1</c></rc>
    <rc><c>H </c><c>   1</c></rc>
    <rc><c>H </c><c>   1</c></rc>
    <rc><c>H </c><c>   1</c></rc>
    <rc><c>H </c><c>   1</c></rc>
    <rc><c>H </c><c>   1</c></rc>
    <rc><c>H </c><c>   1</c></rc>
    <rc><c>H </c><c>   1</c></rc>
    <rc><c>H </c><c>   1</c></rc>
    <rc><c>H </c><c>   1</c></rc>
    <rc><c>H </c><c>   1</c></rc>
    <rc><c>H </c><c>   1</c></rc>
    <rc><c>H </c><c>   1</c></rc>
    <rc><c>H </c><c>   1</c></rc>
    <rc><c>H </c><c>   1</c></rc>
    <rc><c>H </c><c>   1</c></rc>
    <rc><c>H </c><c>   1</c></rc>
    <rc><c>H </c><c>   1</c></rc>
    <rc><c>H </c><c>   1</c></rc>
    <rc><c>H </c><c>   1</c></rc>
    <rc><c>H </c><c>   1</c></rc>
    <rc><c>H </c><c>   1</c></rc>
    <rc><c>H </c><c>   1</c></rc>
    <rc><c>H </c><c>   1</c></rc>
    <rc><c>H </c><c>   1</c></rc>
    <rc><c>H </c><c>   1</c></rc>
    <rc><c>H </c><c>   1</c></rc>
    <rc><c>H </c><c>   1</c></rc>
    <rc><c>H </c><c>   1</c></rc>
    <rc><c>H </c><c>   1</c></rc>
    <rc><c>H </c><c>   1</c></rc>
    <rc><c>H </c><c>   1</c></rc>
    <rc><c>C </c><c>   2</c></rc>
    <rc><c>C </c><c>   2</c></rc>
    <rc><c>C </c><c>   2</c></rc>
    <rc><c>C </c><c>   2</c></rc>
    <rc><c>C </c><c>   2</c></rc>
    <rc><c>C </c><c>   2</c></rc>
    <rc><c>C </c><c>   2</c></rc>
    <rc><c>C </c><c>   2</c></rc>
    <rc><c>C </c><c>   2</c></rc>
    <rc><c>C </c><c>   2</c></rc>
    <rc><c>C </c><c>   2</c></rc>
    <rc><c>C </c><c>   2</c></rc>
    <rc><c>C </c><c>   2</c></rc>
    <rc><c>C </c><c>   2</c></rc>
    <rc><c>C </c><c>   2</c></rc>
    <rc><c>C </c><c>   2</c></rc>
    <rc><c>C </c><c>   2</c></rc>
    <rc><c>C </c><c>   2</c></rc>
    <rc><c>C </c><c>   2</c></rc>
    <rc><c>C </c><c>   2</c></rc>
    <rc><c>C </c><c>   2</c></rc>
    <rc><c>C </c><c>   2</c></rc>
    <rc><c>C </c><c>   2</c></rc>
    <rc><c>C </c><c>   2</c></rc>
    <rc><c>C </c><c>   2</c></rc>
    <rc><c>C </c><c>   2</c></rc>
    <rc><c>C </c><c>   2</c></rc>
    <rc><c>C </c><c>   2</c></rc>
    <rc><c>C </c><c>   2</c></rc>
    <rc><c>C </c><c>   2</c></rc>
    <rc><c>C </c><c>   2</c></rc>
    <rc><c>C </c><c>   2</c></rc>
    <rc><c>C </c><c>   2</c></rc>
    <rc><c>C </c><c>   2</c></rc>
    <rc><c>C </c><c>   2</c></rc>
    <rc><c>C </c><c>   2</c></rc>
    <rc><c>C </c><c>   2</c></rc>
    <rc><c>C </c><c>   2</c></rc>
    <rc><c>C </c><c>   2</c></rc>
    <rc><c>N </c><c>   3</c></rc>
    <rc><c>N </c><c>   3</c></rc>
    <rc><c>N </c><c>   3</c></rc>
    <rc><c>N </c><c>   3</c></rc>
    <rc><c>N </c><c>   3</c></rc>
    <rc><c>N </c><c>   3</c></rc>
    <rc><c>N </c><c>   3</c></rc>
    <rc><c>N </c><c>   3</c></rc>
    <rc><c>N </c><c>   3</c></rc>
    <rc><c>N </c><c>   3</c></rc>
    <rc><c>N </c><c>   3</c></rc>
    <rc><c>N </c><c>   3</c></rc>
    <rc><c>N </c><c>   3</c></rc>
    <rc><c>N </c><c>   3</c></rc>
    <rc><c>N </c><c>   3</c></rc>
    <rc><c>N </c><c>   3</c></rc>
    <rc><c>N </c><c>   3</c></rc>
    <rc><c>N </c><c>   3</c></rc>
    <rc><c>N </c><c>   3</c></rc>
    <rc><c>N </c><c>   3</c></rc>
    <rc><c>N </c><c>   3</c></rc>
    <rc><c>N </c><c>   3</c></rc>
    <rc><c>N </c><c>   3</c></rc>
    <rc><c>N </c><c>   3</c></rc>
    <rc><c>N </c><c>   3</c></rc>
    <rc><c>N </c><c>   3</c></rc>
    <rc><c>N </c><c>   3</c></rc>
    <rc><c>N </c><c>   3</c></rc>
    <rc><c>N </c><c>   3</c></rc>
    <rc><c>N </c><c>   3</c></rc>
    <rc><c>N </c><c>   3</c></rc>
    <rc><c>N </c><c>   3</c></rc>
    <rc><c>N </c><c>   3</c></rc>
    <rc><c>N </c><c>   3</c></rc>
    <rc><c>N </c><c>   3</c></rc>
    <rc><c>N </c><c>   3</c></rc>
    <rc><c>N </c><c>   3</c></rc>
    <rc><c>N </c><c>   3</c></rc>
    <rc><c>N </c><c>   3</c></rc>
    <rc><c>N </c><c>   3</c></rc>
    <rc><c>N </c><c>   3</c></rc>
    <rc><c>N </c><c>   3</c></rc>
    <rc><c>N </c><c>   3</c></rc>
    <rc><c>N </c><c>   3</c></rc>
    <rc><c>N </c><c>   3</c></rc>
    <rc><c>N </c><c>   3</c></rc>
    <rc><c>N </c><c>   3</c></rc>
    <rc><c>I </c><c>   4</c></rc>
    <rc><c>I </c><c>   4</c></rc>
    <rc><c>I </c><c>   4</c></rc>
    <rc><c>I </c><c>   4</c></rc>
    <rc><c>I </c><c>   4</c></rc>
    <rc><c>I </c><c>   4</c></rc>
    <rc><c>I </c><c>   4</c></rc>
    <rc><c>I </c><c>   4</c></rc>
    <rc><c>I </c><c>   4</c></rc>
    <rc><c>I </c><c>   4</c></rc>
    <rc><c>I </c><c>   4</c></rc>
    <rc><c>I </c><c>   4</c></rc>
    <rc><c>I </c><c>   4</c></rc>
    <rc><c>I </c><c>   4</c></rc>
    <rc><c>I </c><c>   4</c></rc>
    <rc><c>I </c><c>   4</c></rc>
    <rc><c>I </c><c>   4</c></rc>
    <rc><c>I </c><c>   4</c></rc>
    <rc><c>I </c><c>   4</c></rc>
    <rc><c>I </c><c>   4</c></rc>
    <rc><c>I </c><c>   4</c></rc>
    <rc><c>I </c><c>   4</c></rc>
    <rc><c>I </c><c>   4</c></rc>
    <rc><c>I </c><c>   4</c></rc>
    <rc><c>I </c><c>   4</c></rc>
    <rc><c>I </c><c>   4</c></rc>
    <rc><c>I </c><c>   4</c></rc>
    <rc><c>I </c><c>   4</c></rc>
    <rc><c>I </c><c>   4</c></rc>
    <rc><c>I </c><c>   4</c></rc>
    <rc><c>I </c><c>   4</c></rc>
    <rc><c>I </c><c>   4</c></rc>
    <rc><c>I </c><c>   4</c></rc>
    <rc><c>I </c><c>   4</c></rc>
    <rc><c>I </c><c>   4</c></rc>
    <rc><c>I </c><c>   4</c></rc>
    <rc><c>I </c><c>   4</c></rc>
    <rc><c>I </c><c>   4</c></rc>
    <rc><c>I </c><c>   4</c></rc>
    <rc><c>I </c><c>   4</c></rc>
    <rc><c>I </c><c>   4</c></rc>
    <rc><c>I </c><c>   4</c></rc>
    <rc><c>I </c><c>   4</c></rc>
    <rc><c>I </c><c>   4</c></rc>
    <rc><c>I </c><c>   4</c></rc>
    <rc><c>I </c><c>   4</c></rc>
    <rc><c>I </c><c>   4</c></rc>
    <rc><c>I </c><c>   4</c></rc>
    <rc><c>I </c><c>   4</c></rc>
    <rc><c>I </c><c>   4</c></rc>
    <rc><c>I </c><c>   4</c></rc>
    <rc><c>I </c><c>   4</c></rc>
    <rc><c>I </c><c>   4</c></rc>
    <rc><c>I </c><c>   4</c></rc>
    <rc><c>I </c><c>   4</c></rc>
    <rc><c>I </c><c>   4</c></rc>
    <rc><c>I </c><c>   4</c></rc>
    <rc><c>I </c><c>   4</c></rc>
    <rc><c>I </c><c>   4</c></rc>
    <rc><c>I </c><c>   4</c></rc>
    <rc><c>I </c><c>   4</c></rc>
    <rc><c>I </c><c>   4</c></rc>
    <rc><c>I </c><c>   4</c></rc>
    <rc><c>I </c><c>   4</c></rc>
    <rc><c>I </c><c>   4</c></rc>
    <rc><c>I </c><c>   4</c></rc>
    <rc><c>I </c><c>   4</c></rc>
    <rc><c>I </c><c>   4</c></rc>
    <rc><c>I </c><c>   4</c></rc>
    <rc><c>I </c><c>   4</c></rc>
    <rc><c>I </c><c>   4</c></rc>
    <rc><c>I </c><c>   4</c></rc>
    <rc><c>Pb</c><c>   5</c></rc>
    <rc><c>Pb</c><c>   5</c></rc>
    <rc><c>Pb</c><c>   5</c></rc>
    <rc><c>Pb</c><c>   5</c></rc>
    <rc><c>Pb</c><c>   5</c></rc>
    <rc><c>Pb</c><c>   5</c></rc>
    <rc><c>Pb</c><c>   5</c></rc>
    <rc><c>Pb</c><c>   5</c></rc>
    <rc><c>Pb</c><c>   5</c></rc>
    <rc><c>Pb</c><c>   5</c></rc>
    <rc><c>Pb</c><c>   5</c></rc>
    <rc><c>Pb</c><c>   5</c></rc>
    <rc><c>Pb</c><c>   5</c></rc>
    <rc><c>Pb</c><c>   5</c></rc>
    <rc><c>Pb</c><c>   5</c></rc>
    <rc><c>Pb</c><c>   5</c></rc>
    <rc><c>Pb</c><c>   5</c></rc>
    <rc><c>Pb</c><c>   5</c></rc>
    <rc><c>Pb</c><c>   5</c></rc>
    <rc><c>Pb</c><c>   5</c></rc>
    <rc><c>Pb</c><c>   5</c></rc>
    <rc><c>Pb</c><c>   5</c></rc>
    <rc><c>Pb</c><c>   5</c></rc>
    <rc><c>Pb</c><c>   5</c></rc>
   </set>
  </array>
  <array name="atomtypes" >
   <dimension dim="1">type</dimension>
   <field type="int">atomspertype</field>
   <field type="string">element</field>
   <field>mass</field>
   <field>valence</field>
   <field type="string">pseudopotential</field>
   <set>
    <rc><c> 143</c><c>H </c><c>      1.00000000</c><c>      1.00000000</c><c>  PAW_PBE H 15Jun2001                   </c></rc>
    <rc><c>  39</c><c>C </c><c>     12.01100000</c><c>      4.00000000</c><c>  PAW_PBE C 08Apr2002                   </c></rc>
    <rc><c>  47</c><c>N </c><c>     14.00100000</c><c>      5.00000000</c><c>  PAW_PBE N 08Apr2002                   </c></rc>
    <rc><c>  72</c><c>I </c><c>    126.90400000</c><c>      7.00000000</c><c>  PAW_PBE I 08Apr2002                   </c></rc>
    <rc><c>  24</c><c>Pb</c><c>    207.20000000</c><c>      4.00000000</c><c>  PAW_PBE Pb 08Apr2002                  </c></rc>
   </set>
  </array>
 </atominfo>
 <structure name="initialpos" >
  <crystal>
   <varray name="basis" >
    <v>      18.06080055       0.00000000       0.00000000 </v>
    <v>      -0.00491865      18.06279945       0.00000000 </v>
    <v>       0.00000000       0.00000000      62.48749924 </v>
   </varray>
   <i name="volume">  20385.21054034 </i>
   <varray name="rec_basis" >
    <v>       0.05536853       0.00001508      -0.00000000 </v>
    <v>       0.00000000       0.05536240       0.00000000 </v>
    <v>       0.00000000      -0.00000000       0.01600320 </v>
   </varray>
  </crystal>
  <varray name="positions" >
   <v>       0.40862406       0.28023883       0.56499918 </v>
   <v>       0.41350507       0.69925499       0.57267454 </v>
   <v>       0.92789895       0.29072812       0.58072522 </v>
   <v>       0.93116411       0.81539563       0.57340509 </v>
   <v>       0.32393418       0.09268629       0.56482098 </v>
   <v>       0.31998377       0.57588065       0.56946491 </v>
   <v>       0.80262118       0.10057722       0.56789294 </v>
   <v>       0.11068263       0.24102376       0.56213325 </v>
   <v>       0.07870028       0.68005104       0.56956338 </v>
   <v>       0.58897987       0.18837477       0.56488465 </v>
   <v>       0.60071075       0.75276161       0.55885732 </v>
   <v>       0.37776271       0.01982123       0.55475170 </v>
   <v>       0.25333995       0.62295175       0.55452705 </v>
   <v>       0.87531819       0.04512813       0.55786536 </v>
   <v>       0.06350008       0.28738056       0.58254840 </v>
   <v>       0.99348211       0.69480219       0.58191186 </v>
   <v>       0.49501735       0.17254321       0.57132686 </v>
   <v>       0.55006624       0.69054654       0.57444394 </v>
   <v>       0.30741476       0.43899843       0.57265165 </v>
   <v>       0.18862353       0.06775263       0.56962003 </v>
   <v>       0.68023240       0.03356780       0.57313520 </v>
   <v>       0.45186766       0.36293943       0.55717437 </v>
   <v>       0.37554662       0.76657460       0.55585178 </v>
   <v>       0.88512864       0.24122265       0.56016777 </v>
   <v>       0.97801590       0.87295975       0.55587650 </v>
   <v>       0.23479136       0.39881782       0.55868663 </v>
   <v>       0.15477333       0.98612516       0.55905683 </v>
   <v>       0.67825856       0.94210254       0.56403176 </v>
   <v>       0.56884505       0.30905700       0.55477765 </v>
   <v>       0.49400435       0.80923820       0.54519627 </v>
   <v>       0.00003000       0.20244551       0.54557854 </v>
   <v>       0.07377257       0.78950596       0.55033676 </v>
   <v>       0.18989265       0.51244822       0.54616637 </v>
   <v>       0.27333338       0.94395375       0.54913162 </v>
   <v>       0.79992528       0.94214075       0.55353582 </v>
   <v>       0.45313467       0.29446060       0.67306388 </v>
   <v>       0.44085705       0.81193580       0.67122233 </v>
   <v>       0.95990508       0.28263708       0.67774603 </v>
   <v>       0.91482291       0.73956826       0.66749215 </v>
   <v>       0.29834236       0.04226830       0.67488352 </v>
   <v>       0.30283665       0.55878084       0.67380744 </v>
   <v>       0.79696310       0.05436399       0.67494194 </v>
   <v>       0.83011953       0.49537339       0.66878971 </v>
   <v>       0.09083191       0.17117954       0.64669380 </v>
   <v>       0.10592981       0.69868230       0.65281563 </v>
   <v>       0.57762514       0.16350606       0.64686333 </v>
   <v>       0.57574235       0.67644591       0.65122101 </v>
   <v>       0.18670048       0.41207324       0.65098763 </v>
   <v>       0.16265551       0.93079185       0.64583859 </v>
   <v>       0.63917296       0.46561307       0.65188661 </v>
   <v>       0.67485919       0.91732864       0.64992150 </v>
   <v>       0.06467995       0.18825302       0.67307603 </v>
   <v>       0.02814642       0.65728457       0.66399145 </v>
   <v>       0.54384995       0.18628429       0.67213053 </v>
   <v>       0.54379157       0.71296840       0.67527813 </v>
   <v>       0.21669403       0.44540438       0.67578464 </v>
   <v>       0.18628576       0.95487845       0.67209329 </v>
   <v>       0.70141577       0.43535721       0.67108637 </v>
   <v>       0.69873998       0.95093655       0.67529858 </v>
   <v>       0.43852382       0.33894913       0.64870989 </v>
   <v>       0.41501318       0.82941675       0.64489400 </v>
   <v>       0.92594052       0.32005102       0.65386760 </v>
   <v>       0.92591994       0.83047455       0.65815434 </v>
   <v>       0.34122407       0.06226283       0.65084423 </v>
   <v>       0.31994232       0.59043634       0.64804179 </v>
   <v>       0.82808296       0.07933982       0.64960912 </v>
   <v>       0.84085544       0.56069254       0.64875824 </v>
   <v>       0.00512512       0.25261259       0.63255688 </v>
   <v>       0.04671674       0.81135027       0.64681724 </v>
   <v>       0.51418197       0.25920979       0.62988642 </v>
   <v>       0.49821962       0.74665471       0.63036760 </v>
   <v>       0.25767196       0.99475908       0.63061551 </v>
   <v>       0.24869988       0.50056594       0.63174629 </v>
   <v>       0.75450246       0.99410526       0.63214108 </v>
   <v>       0.72114709       0.54649017       0.63597907 </v>
   <v>       0.44874502       0.30128397       0.76888902 </v>
   <v>       0.44874501       0.80128391       0.76888902 </v>
   <v>       0.94874497       0.30128397       0.76888902 </v>
   <v>       0.94874501       0.80128391       0.76888902 </v>
   <v>       0.30127600       0.05129450       0.76887296 </v>
   <v>       0.30127601       0.55129450       0.76887296 </v>
   <v>       0.80127594       0.05129450       0.76887296 </v>
   <v>       0.80127598       0.55129450       0.76887296 </v>
   <v>       0.07877100       0.17118050       0.74344197 </v>
   <v>       0.07877101       0.67118045       0.74344197 </v>
   <v>       0.57877100       0.17118050       0.74344197 </v>
   <v>       0.57877099       0.67118045       0.74344197 </v>
   <v>       0.17119950       0.42117448       0.74342103 </v>
   <v>       0.17119950       0.92117451       0.74342103 </v>
   <v>       0.67119951       0.42117448       0.74342103 </v>
   <v>       0.67119950       0.92117451       0.74342103 </v>
   <v>       0.05125600       0.19871499       0.76888902 </v>
   <v>       0.05125600       0.69871493       0.76888902 </v>
   <v>       0.55125603       0.19871499       0.76888902 </v>
   <v>       0.55125602       0.69871493       0.76888902 </v>
   <v>       0.19872349       0.44870397       0.76887205 </v>
   <v>       0.19872349       0.94870397       0.76887205 </v>
   <v>       0.69872352       0.44870397       0.76887205 </v>
   <v>       0.69872351       0.94870397       0.76887205 </v>
   <v>       0.42123152       0.32881747       0.74344197 </v>
   <v>       0.42123151       0.82881744       0.74344197 </v>
   <v>       0.92123147       0.32881747       0.74344197 </v>
   <v>       0.92123151       0.82881744       0.74344197 </v>
   <v>       0.32880050       0.07882500       0.74342103 </v>
   <v>       0.32880049       0.57882496       0.74342103 </v>
   <v>       0.82880048       0.07882500       0.74342103 </v>
   <v>       0.82880052       0.57882496       0.74342103 </v>
   <v>       0.00000350       0.25000148       0.72582199 </v>
   <v>       0.00000350       0.75000145       0.72582199 </v>
   <v>       0.50000351       0.25000148       0.72582199 </v>
   <v>       0.50000350       0.75000145       0.72582199 </v>
   <v>       0.25000050       0.00000000       0.72580398 </v>
   <v>       0.25000052       0.50000000       0.72580398 </v>
   <v>       0.75000050       0.00000000       0.72580398 </v>
   <v>       0.75000049       0.50000000       0.72580398 </v>
   <v>       0.80009921       0.50845180       0.51453486 </v>
   <v>       0.87879535       0.50072782       0.53119499 </v>
   <v>       0.76165447       0.62166022       0.53197884 </v>
   <v>       0.76015316       0.62476134       0.56008590 </v>
   <v>       0.68647090       0.44702896       0.55050244 </v>
   <v>       0.66969564       0.53954727       0.55800162 </v>
   <v>       0.79677913       0.42622780       0.56676552 </v>
   <v>       0.86607422       0.49619360       0.56915797 </v>
   <v>       0.85743172       0.37527731       0.53929933 </v>
   <v>       0.76283484       0.37698172       0.53283643 </v>
   <v>       0.78296564       0.38229695       0.49549080 </v>
   <v>       0.87570177       0.40832339       0.49795079 </v>
   <v>       0.89813805       0.61887577       0.53089653 </v>
   <v>       0.90383521       0.60559910       0.55905628 </v>
   <v>       0.86770828       0.68932739       0.54857457 </v>
   <v>       0.60016262       0.51359182       0.52604326 </v>
   <v>       0.68024386       0.48572788       0.51110482 </v>
   <v>       0.66698674       0.58018292       0.51904193 </v>
   <v>       0.70781228       0.50611492       0.58760080 </v>
   <v>       0.77795887       0.57430907       0.59085719 </v>
   <v>       0.78897594       0.48426723       0.60163376 </v>
   <v>       0.82169811       0.25631835       0.51295031 </v>
   <v>       0.84517645       0.27449159       0.48634145 </v>
   <v>       0.92467048       0.15982889       0.49858440 </v>
   <v>       0.97294340       0.38407000       0.51785437 </v>
   <v>       0.05590303       0.12650052       0.50384049 </v>
   <v>       0.10181608       0.35159292       0.52289939 </v>
   <v>       0.14673821       0.22260092       0.51576228 </v>
   <v>       0.99829931       0.23733116       0.55979666 </v>
   <v>       0.02717270       0.77436838       0.56066616 </v>
   <v>       0.52157952       0.27505563       0.55947543 </v>
   <v>       0.48943082       0.76190586       0.55605433 </v>
   <v>       0.24064843       0.51085098       0.55563494 </v>
   <v>       0.26673329       0.99914699       0.55594781 </v>
   <v>       0.77681113       0.99281584       0.56008889 </v>
   <v>       0.00805775       0.24567003       0.64986265 </v>
   <v>       0.01686792       0.76575776       0.65457807 </v>
   <v>       0.50822733       0.25110601       0.64718499 </v>
   <v>       0.49575937       0.75295981       0.64773875 </v>
   <v>       0.25336587       0.50077665       0.64917879 </v>
   <v>       0.25163891       0.99657339       0.64792171 </v>
   <v>       0.73983334       0.51399525       0.64962072 </v>
   <v>       0.75161516       0.99761221       0.64953720 </v>
   <v>       0.49998898       0.24999498       0.74327702 </v>
   <v>       0.49998903       0.74999496       0.74327702 </v>
   <v>       0.99998898       0.24999498       0.74327702 </v>
   <v>       0.99998903       0.74999496       0.74327702 </v>
   <v>       0.25000050       0.00000100       0.74325596 </v>
   <v>       0.25000052       0.50000100       0.74325596 </v>
   <v>       0.75000050       0.00000100       0.74325596 </v>
   <v>       0.75000049       0.50000100       0.74325596 </v>
   <v>       0.93794584       0.27432253       0.50740285 </v>
   <v>       0.96329110       0.20211718       0.50387303 </v>
   <v>       0.98960714       0.32743324       0.51425642 </v>
   <v>       0.03811246       0.18348693       0.50652584 </v>
   <v>       0.06389553       0.30893760       0.51717571 </v>
   <v>       0.08886359       0.23724159       0.51312845 </v>
   <v>       0.82118484       0.48350426       0.52923800 </v>
   <v>       0.79046724       0.60242369       0.54641953 </v>
   <v>       0.69521906       0.50495813       0.54557610 </v>
   <v>       0.80609508       0.48607286       0.56845952 </v>
   <v>       0.81711225       0.39912730       0.52801992 </v>
   <v>       0.83338672       0.37329871       0.50513115 </v>
   <v>       0.87003510       0.62914086       0.54619744 </v>
   <v>       0.66041515       0.52188903       0.52398475 </v>
   <v>       0.76702239       0.51546234       0.58797338 </v>
   <v>       0.85712862       0.29225469       0.50289477 </v>
   <v>       0.06134408       0.25547330       0.56883466 </v>
   <v>       0.03161457       0.71050824       0.57054191 </v>
   <v>       0.53476477       0.20523842       0.56442301 </v>
   <v>       0.55002904       0.73040184       0.56283956 </v>
   <v>       0.45523347       0.30655143       0.55954893 </v>
   <v>       0.42203514       0.74027997       0.56133872 </v>
   <v>       0.93349817       0.25870684       0.56711032 </v>
   <v>       0.97112064       0.82076547       0.56197874 </v>
   <v>       0.26289953       0.44582913       0.56248970 </v>
   <v>       0.19963149       0.01943512       0.56139054 </v>
   <v>       0.70664567       0.99087388       0.56532175 </v>
   <v>       0.32582153       0.04049000       0.55820955 </v>
   <v>       0.27466344       0.57375818       0.55951285 </v>
   <v>       0.82068819       0.05002484       0.56218459 </v>
   <v>       0.05687619       0.19883734       0.65716629 </v>
   <v>       0.05147170       0.70318948       0.65729980 </v>
   <v>       0.54475678       0.19705935       0.65605254 </v>
   <v>       0.54082640       0.71143394       0.65904912 </v>
   <v>       0.21685130       0.44969630       0.65952412 </v>
   <v>       0.19633711       0.95885679       0.65605865 </v>
   <v>       0.69122878       0.46821948       0.65804830 </v>
   <v>       0.70600557       0.95240527       0.65909295 </v>
   <v>       0.46388964       0.29771991       0.65717472 </v>
   <v>       0.44767664       0.80072426       0.65532846 </v>
   <v>       0.96195677       0.28489696       0.66143021 </v>
   <v>       0.94779433       0.77897710       0.66039545 </v>
   <v>       0.29974254       0.03650971       0.65863253 </v>
   <v>       0.29453308       0.55305509       0.65785942 </v>
   <v>       0.79443044       0.04703060       0.65889143 </v>
   <v>       0.80761850       0.52323025       0.65621914 </v>
   <v>       0.04586250       0.20411950       0.75272599 </v>
   <v>       0.04586250       0.70411946       0.75272599 </v>
   <v>       0.54586251       0.20411950       0.75272599 </v>
   <v>       0.54586250       0.70411946       0.75272599 </v>
   <v>       0.20411900       0.45410100       0.75270499 </v>
   <v>       0.20411899       0.95410095       0.75270499 </v>
   <v>       0.70411898       0.45410100       0.75270499 </v>
   <v>       0.70411896       0.95410095       0.75270499 </v>
   <v>       0.45414002       0.29588849       0.75272697 </v>
   <v>       0.45414001       0.79588852       0.75272697 </v>
   <v>       0.95414002       0.29588849       0.75272697 </v>
[...]
   <v>       0.58897987       0.18837477       0.56488465 </v>
   <v>       0.60071075       0.75276161       0.55885732 </v>
   <v>       0.37776271       0.01982123       0.55475170 </v>
   <v>       0.25333995       0.62295175       0.55452705 </v>
   <v>       0.87531819       0.04512813       0.55786536 </v>
   <v>       0.06350008       0.28738056       0.58254840 </v>
   <v>       0.99348211       0.69480219       0.58191186 </v>
   <v>       0.49501735       0.17254321       0.57132686 </v>
   <v>       0.55006624       0.69054654       0.57444394 </v>
   <v>       0.30741476       0.43899843       0.57265165 </v>
   <v>       0.18862353       0.06775263       0.56962003 </v>
   <v>       0.68023240       0.03356780       0.57313520 </v>
   <v>       0.45186766       0.36293943       0.55717437 </v>
   <v>       0.37554662       0.76657460       0.55585178 </v>
   <v>       0.88512864       0.24122265       0.56016777 </v>
   <v>       0.97801590       0.87295975       0.55587650 </v>
   <v>       0.23479136       0.39881782       0.55868663 </v>
   <v>       0.15477333       0.98612516       0.55905683 </v>
   <v>       0.67825856       0.94210254       0.56403176 </v>
   <v>       0.56884505       0.30905700       0.55477765 </v>
   <v>       0.49400435       0.80923820       0.54519627 </v>
   <v>       0.00003000       0.20244551       0.54557854 </v>
   <v>       0.07377257       0.78950596       0.55033676 </v>
   <v>       0.18989265       0.51244822       0.54616637 </v>
   <v>       0.27333338       0.94395375       0.54913162 </v>
   <v>       0.79992528       0.94214075       0.55353582 </v>
   <v>       0.45313467       0.29446060       0.67306388 </v>
   <v>       0.44085705       0.81193580       0.67122233 </v>
   <v>       0.95990508       0.28263708       0.67774603 </v>
   <v>       0.91482291       0.73956826       0.66749215 </v>
   <v>       0.29834236       0.04226830       0.67488352 </v>
   <v>       0.30283665       0.55878084       0.67380744 </v>
   <v>       0.79696310       0.05436399       0.67494194 </v>
   <v>       0.83011953       0.49537339       0.66878971 </v>
   <v>       0.09083191       0.17117954       0.64669380 </v>
   <v>       0.10592981       0.69868230       0.65281563 </v>
   <v>       0.57762514       0.16350606       0.64686333 </v>
   <v>       0.57574235       0.67644591       0.65122101 </v>
   <v>       0.18670048       0.41207324       0.65098763 </v>
   <v>       0.16265551       0.93079185       0.64583859 </v>
   <v>       0.63917296       0.46561307       0.65188661 </v>
   <v>       0.67485919       0.91732864       0.64992150 </v>
   <v>       0.06467995       0.18825302       0.67307603 </v>
   <v>       0.02814642       0.65728457       0.66399145 </v>
   <v>       0.54384995       0.18628429       0.67213053 </v>
   <v>       0.54379157       0.71296840       0.67527813 </v>
   <v>       0.21669403       0.44540438       0.67578464 </v>
   <v>       0.18628576       0.95487845       0.67209329 </v>
   <v>       0.70141577       0.43535721       0.67108637 </v>
   <v>       0.69873998       0.95093655       0.67529858 </v>
   <v>       0.43852382       0.33894913       0.64870989 </v>
   <v>       0.41501318       0.82941675       0.64489400 </v>
   <v>       0.92594052       0.32005102       0.65386760 </v>
   <v>       0.92591994       0.83047455       0.65815434 </v>
   <v>       0.34122407       0.06226283       0.65084423 </v>
   <v>       0.31994232       0.59043634       0.64804179 </v>
   <v>       0.82808296       0.07933982       0.64960912 </v>
   <v>       0.84085544       0.56069254       0.64875824 </v>
   <v>       0.00512512       0.25261259       0.63255688 </v>
   <v>       0.04671674       0.81135027       0.64681724 </v>
   <v>       0.51418197       0.25920979       0.62988642 </v>
   <v>       0.49821962       0.74665471       0.63036760 </v>
   <v>       0.25767196       0.99475908       0.63061551 </v>
   <v>       0.24869988       0.50056594       0.63174629 </v>
   <v>       0.75450246       0.99410526       0.63214108 </v>
   <v>       0.72114709       0.54649017       0.63597907 </v>
   <v>       0.44874502       0.30128397       0.76888902 </v>
   <v>       0.44874501       0.80128391       0.76888902 </v>
   <v>       0.94874497       0.30128397       0.76888902 </v>
   <v>       0.94874501       0.80128391       0.76888902 </v>
   <v>       0.30127600       0.05129450       0.76887296 </v>
   <v>       0.30127601       0.55129450       0.76887296 </v>
   <v>       0.80127594       0.05129450       0.76887296 </v>
   <v>       0.80127598       0.55129450       0.76887296 </v>
   <v>       0.07877100       0.17118050       0.74344197 </v>
   <v>       0.07877101       0.67118045       0.74344197 </v>
   <v>       0.57877100       0.17118050       0.74344197 </v>
   <v>       0.57877099       0.67118045       0.74344197 </v>
   <v>       0.17119950       0.42117448       0.74342103 </v>
   <v>       0.17119950       0.92117451       0.74342103 </v>
   <v>       0.67119951       0.42117448       0.74342103 </v>
   <v>       0.67119950       0.92117451       0.74342103 </v>
   <v>       0.05125600       0.19871499       0.76888902 </v>
   <v>       0.05125600       0.69871493       0.76888902 </v>
   <v>       0.55125603       0.19871499       0.76888902 </v>
   <v>       0.55125602       0.69871493       0.76888902 </v>
   <v>       0.19872349       0.44870397       0.76887205 </v>
   <v>       0.19872349       0.94870397       0.76887205 </v>
   <v>       0.69872352       0.44870397       0.76887205 </v>
   <v>       0.69872351       0.94870397       0.76887205 </v>
   <v>       0.42123152       0.32881747       0.74344197 </v>
   <v>       0.42123151       0.82881744       0.74344197 </v>
   <v>       0.92123147       0.32881747       0.74344197 </v>
   <v>       0.92123151       0.82881744       0.74344197 </v>
   <v>       0.32880050       0.07882500       0.74342103 </v>
   <v>       0.32880049       0.57882496       0.74342103 </v>
   <v>       0.82880048       0.07882500       0.74342103 </v>
   <v>       0.82880052       0.57882496       0.74342103 </v>
   <v>       0.00000350       0.25000148       0.72582199 </v>
   <v>       0.00000350       0.75000145       0.72582199 </v>
   <v>       0.50000351       0.25000148       0.72582199 </v>
   <v>       0.50000350       0.75000145       0.72582199 </v>
   <v>       0.25000050       0.00000000       0.72580398 </v>
   <v>       0.25000052       0.50000000       0.72580398 </v>
   <v>       0.75000050       0.00000000       0.72580398 </v>
   <v>       0.75000049       0.50000000       0.72580398 </v>
   <v>       0.80009921       0.50845180       0.51453486 </v>
   <v>       0.87879535       0.50072782       0.53119499 </v>
   <v>       0.76165447       0.62166022       0.53197884 </v>
   <v>       0.76015316       0.62476134       0.56008590 </v>
   <v>       0.68647090       0.44702896       0.55050244 </v>
   <v>       0.66969564       0.53954727       0.55800162 </v>
   <v>       0.79677913       0.42622780       0.56676552 </v>
   <v>       0.86607422       0.49619360       0.56915797 </v>
   <v>       0.85743172       0.37527731       0.53929933 </v>
   <v>       0.76283484       0.37698172       0.53283643 </v>
   <v>       0.78296564       0.38229695       0.49549080 </v>
   <v>       0.87570177       0.40832339       0.49795079 </v>
   <v>       0.89813805       0.61887577       0.53089653 </v>
   <v>       0.90383521       0.60559910       0.55905628 </v>
   <v>       0.86770828       0.68932739       0.54857457 </v>
   <v>       0.60016262       0.51359182       0.52604326 </v>
   <v>       0.68024386       0.48572788       0.51110482 </v>
   <v>       0.66698674       0.58018292       0.51904193 </v>
   <v>       0.70781228       0.50611492       0.58760080 </v>
   <v>       0.77795887       0.57430907       0.59085719 </v>
   <v>       0.78897594       0.48426723       0.60163376 </v>
   <v>       0.82169811       0.25631835       0.51295031 </v>
   <v>       0.84517645       0.27449159       0.48634145 </v>
   <v>       0.92467048       0.15982889       0.49858440 </v>
   <v>       0.97294340       0.38407000       0.51785437 </v>
   <v>       0.05590303       0.12650052       0.50384049 </v>
   <v>       0.10181608       0.35159292       0.52289939 </v>
   <v>       0.14673821       0.22260092       0.51576228 </v>
   <v>       0.99829931       0.23733116       0.55979666 </v>
   <v>       0.02717270       0.77436838       0.56066616 </v>
   <v>       0.52157952       0.27505563       0.55947543 </v>
   <v>       0.48943082       0.76190586       0.55605433 </v>
   <v>       0.24064843       0.51085098       0.55563494 </v>
   <v>       0.26673329       0.99914699       0.55594781 </v>
   <v>       0.77681113       0.99281584       0.56008889 </v>
   <v>       0.00805775       0.24567003       0.64986265 </v>
   <v>       0.01686792       0.76575776       0.65457807 </v>
   <v>       0.50822733       0.25110601       0.64718499 </v>
   <v>       0.49575937       0.75295981       0.64773875 </v>
   <v>       0.25336587       0.50077665       0.64917879 </v>
   <v>       0.25163891       0.99657339       0.64792171 </v>
   <v>       0.73983334       0.51399525       0.64962072 </v>
   <v>       0.75161516       0.99761221       0.64953720 </v>
   <v>       0.49998898       0.24999498       0.74327702 </v>
   <v>       0.49998903       0.74999496       0.74327702 </v>
   <v>       0.99998898       0.24999498       0.74327702 </v>
   <v>       0.99998903       0.74999496       0.74327702 </v>
   <v>       0.25000050       0.00000100       0.74325596 </v>
   <v>       0.25000052       0.50000100       0.74325596 </v>
   <v>       0.75000050       0.00000100       0.74325596 </v>
   <v>       0.75000049       0.50000100       0.74325596 </v>
   <v>       0.93794584       0.27432253       0.50740285 </v>
   <v>       0.96329110       0.20211718       0.50387303 </v>
   <v>       0.98960714       0.32743324       0.51425642 </v>
   <v>       0.03811246       0.18348693       0.50652584 </v>
   <v>       0.06389553       0.30893760       0.51717571 </v>
   <v>       0.08886359       0.23724159       0.51312845 </v>
   <v>       0.82118484       0.48350426       0.52923800 </v>
   <v>       0.79046724       0.60242369       0.54641953 </v>
   <v>       0.69521906       0.50495813       0.54557610 </v>
   <v>       0.80609508       0.48607286       0.56845952 </v>
   <v>       0.81711225       0.39912730       0.52801992 </v>
   <v>       0.83338672       0.37329871       0.50513115 </v>
   <v>       0.87003510       0.62914086       0.54619744 </v>
   <v>       0.66041515       0.52188903       0.52398475 </v>
   <v>       0.76702239       0.51546234       0.58797338 </v>
   <v>       0.85712862       0.29225469       0.50289477 </v>
   <v>       0.06134408       0.25547330       0.56883466 </v>
   <v>       0.03161457       0.71050824       0.57054191 </v>
   <v>       0.53476477       0.20523842       0.56442301 </v>
   <v>       0.55002904       0.73040184       0.56283956 </v>
   <v>       0.45523347       0.30655143       0.55954893 </v>
   <v>       0.42203514       0.74027997       0.56133872 </v>
   <v>       0.93349817       0.25870684       0.56711032 </v>
   <v>       0.97112064       0.82076547       0.56197874 </v>
   <v>       0.26289953       0.44582913       0.56248970 </v>
   <v>       0.19963149       0.01943512       0.56139054 </v>
   <v>       0.70664567       0.99087388       0.56532175 </v>
   <v>       0.32582153       0.04049000       0.55820955 </v>
   <v>       0.27466344       0.57375818       0.55951285 </v>
   <v>       0.82068819       0.05002484       0.56218459 </v>
   <v>       0.05687619       0.19883734       0.65716629 </v>
   <v>       0.05147170       0.70318948       0.65729980 </v>
   <v>       0.54475678       0.19705935       0.65605254 </v>
   <v>       0.54082640       0.71143394       0.65904912 </v>
   <v>       0.21685130       0.44969630       0.65952412 </v>
   <v>       0.19633711       0.95885679       0.65605865 </v>
   <v>       0.69122878       0.46821948       0.65804830 </v>
   <v>       0.70600557       0.95240527       0.65909295 </v>
   <v>       0.46388964       0.29771991       0.65717472 </v>
   <v>       0.44767664       0.80072426       0.65532846 </v>
   <v>       0.96195677       0.28489696       0.66143021 </v>
   <v>       0.94779433       0.77897710       0.66039545 </v>
   <v>       0.29974254       0.03650971       0.65863253 </v>
   <v>       0.29453308       0.55305509       0.65785942 </v>
   <v>       0.79443044       0.04703060       0.65889143 </v>
   <v>       0.80761850       0.52323025       0.65621914 </v>
   <v>       0.04586250       0.20411950       0.75272599 </v>
   <v>       0.04586250       0.70411946       0.75272599 </v>
   <v>       0.54586251       0.20411950       0.75272599 </v>
   <v>       0.54586250       0.70411946       0.75272599 </v>
   <v>       0.20411900       0.45410100       0.75270499 </v>
   <v>       0.20411899       0.95410095       0.75270499 </v>
   <v>       0.70411898       0.45410100       0.75270499 </v>
   <v>       0.70411896       0.95410095       0.75270499 </v>
   <v>       0.45414002       0.29588849       0.75272697 </v>
   <v>       0.45414001       0.79588852       0.75272697 </v>
   <v>       0.95414002       0.29588849       0.75272697 </v>
   <v>       0.95414006       0.79588852       0.75272697 </v>
   <v>       0.29588249       0.04590050       0.75270499 </v>
   <v>       0.29588248       0.54590053       0.75270499 </v>
   <v>       0.79588244       0.04590050       0.75270499 </v>
   <v>       0.79588248       0.54590053       0.75270499 </v>
   <v>       0.77891896       0.51909466       0.54733451 </v>
   <v>       0.50968672       0.97737472       0.55267719 </v>
   <v>       0.47021036       0.50589043       0.55336227 </v>
   <v>       0.00838616       0.01254601       0.55119063 </v>
   <v>       0.03292640       0.49176308       0.55452088 </v>
   <v>       0.25552713       0.24235946       0.55483369 </v>
   <v>       0.23128144       0.76667750       0.55116896 </v>
   <v>       0.73579663       0.22631854       0.55498875 </v>
   <v>       0.72716914       0.79610456       0.55432034 </v>
   <v>       0.99573190       0.98368652       0.65419170 </v>
   <v>       0.00649027       0.50283640       0.65542522 </v>
   <v>       0.49717296       0.00138064       0.65455798 </v>
   <v>       0.49694588       0.50054852       0.65418456 </v>
   <v>       0.26383868       0.24005215       0.65547931 </v>
   <v>       0.24564931       0.75319175       0.65373201 </v>
   <v>       0.74364909       0.26081057       0.65522322 </v>
   <v>       0.75034853       0.73737810       0.65479704 </v>
   <v>       0.13673121       0.11660935       0.60905468 </v>
   <v>       0.14671743       0.60857193       0.60621836 </v>
   <v>       0.64049303       0.11017429       0.60890664 </v>
   <v>       0.61746313       0.63055948       0.60833225 </v>
   <v>       0.36799599       0.38466957       0.60885133 </v>
   <v>       0.36474440       0.88634925       0.60555532 </v>
   <v>       0.88765065       0.36417736       0.61231296 </v>
   <v>       0.86300323       0.89081266       0.60549800 </v>
   <v>       0.12634755       0.36974326       0.61112956 </v>
   <v>       0.11650614       0.87241599       0.60592094 </v>
   <v>       0.61771373       0.37012766       0.60184700 </v>
   <v>       0.61560824       0.86453583       0.61202860 </v>
   <v>       0.39748805       0.14071555       0.60406705 </v>
   <v>       0.37886553       0.63238554       0.60768026 </v>
   <v>       0.88191386       0.13268234       0.61283253 </v>
   <v>       0.90263541       0.64865220       0.61067433 </v>
   <v>       0.00000000       0.00000000       0.75492797 </v>
   <v>       0.00000000       0.50000000       0.75492797 </v>
   <v>       0.50000000       0.00000000       0.75492797 </v>
   <v>       0.49999999       0.50000000       0.75492797 </v>
   <v>       0.25000050       0.25000000       0.75493902 </v>
   <v>       0.25000051       0.74999997       0.75493902 </v>
   <v>       0.75000047       0.25000000       0.75493902 </v>
   <v>       0.75000046       0.74999997       0.75493902 </v>
   <v>       0.13579050       0.11421000       0.70478299 </v>
   <v>       0.13579050       0.61420998       0.70478299 </v>
   <v>       0.63579045       0.11421000       0.70478299 </v>
   <v>       0.63579049       0.61420998       0.70478299 </v>
   <v>       0.36420952       0.38578999       0.70478299 </v>
   <v>       0.36420950       0.88578996       0.70478299 </v>
   <v>       0.86420954       0.38578999       0.70478299 </v>
   <v>       0.86420953       0.88578996       0.70478299 </v>
   <v>       0.11421799       0.36421899       0.70478098 </v>
   <v>       0.11421799       0.86421899       0.70478098 </v>
   <v>       0.61421800       0.36421899       0.70478098 </v>
   <v>       0.61421799       0.86421899       0.70478098 </v>
   <v>       0.38578201       0.13578149       0.70478202 </v>
   <v>       0.38578200       0.63578149       0.70478202 </v>
   <v>       0.88578199       0.13578149       0.70478202 </v>
   <v>       0.88578203       0.63578149       0.70478202 </v>
   <v>       0.13466700       0.11533200       0.80125603 </v>
   <v>       0.13466699       0.61533199       0.80125603 </v>
   <v>       0.63466699       0.11533200       0.80125603 </v>
   <v>       0.63466698       0.61533199       0.80125603 </v>
   <v>       0.36533300       0.38466799       0.80125603 </v>
   <v>       0.36533299       0.88466796       0.80125603 </v>
   <v>       0.86533295       0.38466799       0.80125603 </v>
   <v>       0.86533294       0.88466796       0.80125603 </v>
   <v>       0.11532850       0.36533700       0.80126500 </v>
   <v>       0.11532850       0.86533698       0.80126500 </v>
   <v>       0.61532850       0.36533700       0.80126500 </v>
   <v>       0.61532849       0.86533698       0.80126500 </v>
   <v>       0.38467151       0.13466300       0.80126500 </v>
   <v>       0.38467150       0.63466297       0.80126500 </v>
   <v>       0.88467149       0.13466300       0.80126500 </v>
   <v>       0.88467153       0.63466297       0.80126500 </v>
   <v>       0.99874168       0.00641389       0.60411448 </v>
   <v>       0.00887081       0.50295049       0.60406247 </v>
   <v>       0.50192081       0.99407613       0.60290342 </v>
   <v>       0.49881387       0.50062201       0.60300183 </v>
   <v>       0.25560948       0.24925165       0.60607886 </v>
   <v>       0.24483447       0.75677698       0.60323754 </v>
   <v>       0.74845671       0.25117620       0.60584359 </v>
   <v>       0.75055200       0.75838108       0.60472758 </v>
   <v>       0.00000050       0.00000050       0.70482896 </v>
   <v>       0.00000050       0.50000048       0.70482896 </v>
   <v>       0.50000048       0.00000050       0.70482896 </v>
   <v>       0.50000046       0.50000048       0.70482896 </v>
   <v>       0.24999999       0.24999947       0.70482499 </v>
   <v>       0.25000001       0.74999950       0.70482499 </v>
   <v>       0.74999999       0.24999947       0.70482499 </v>
   <v>       0.74999998       0.74999950       0.70482499 </v>
   <v>       0.00000000       0.00000000       0.80731797 </v>
   <v>       0.00000000       0.50000000       0.80731797 </v>
   <v>       0.50000000       0.00000000       0.80731797 </v>
   <v>       0.49999999       0.50000000       0.80731797 </v>
   <v>       0.24999999       0.25000000       0.80731797 </v>
   <v>       0.25000001       0.74999997       0.80731797 </v>
   <v>       0.74999999       0.25000000       0.80731797 </v>
   <v>       0.74999998       0.74999997       0.80731797 </v>
  </varray>
 </structure>
</modeling>
