<?xml version="1.0" encoding="ISO-8859-1"?>
<modeling>
 <generator>
  <i name="program" type="string">vasp </i>
  <i name="version" type="string">6.2.1  </i>
  <i name="subversion" type="string">16May21 (build Nov 15 2021 14:57:28) complex                          parallel </i>
  <i name="platform" type="string">LinuxPGI </i>
  <i name="date" type="string">2023 07 30 </i>
  <i name="time" type="string">20:36:43 </i>
 </generator>
 <incar>
  <i type="string" name="SYSTEM">PSC</i>
  <i type="int" name="ISTART">     1</i>
  <i type="string" name="PREC">Normal</i>
  <i name="BMIX">      0.01000000</i>
  <i name="AMIN">      0.01000000</i>
  <i type="int" name="ICHARG">     1</i>
  <i type="int" name="NELM">   600</i>
  <i type="int" name="ISYM">     0</i>
  <i name="ENCUT">    500.00000000</i>
  <i type="string" name="LREAL">Auto</i>
  <i type="int" name="ISMEAR">     0</i>
  <i name="SIGMA">      0.05000000</i>
  <i type="logical" name="LWAVE"> F  </i>
  <i type="logical" name="LVTOT"> T  </i>
  <i type="logical" name="GGA_COMPAT"> F  </i>
  <i type="logical" name="LDIPOL"> T  </i>
  <i type="int" name="IDIPOL">     3</i>
  <i type="int" name="IVDW">    12</i>
 </incar>
 <primitive_cell>
  <structure name="primitive_cell" >
   <crystal>
    <varray name="basis" >
     <v>      18.06080055       0.00000000       0.00000000 </v>
     <v>      -0.00491865      18.06279945       0.00000000 </v>
     <v>       0.00000000       0.00000000      62.48749924 </v>
    </varray>
    <i name="volume">  20385.21054034 </i>
    <varray name="rec_basis" >
     <v>       0.05536853       0.00001508      -0.00000000 </v>
     <v>       0.00000000       0.05536240       0.00000000 </v>
     <v>       0.00000000      -0.00000000       0.01600320 </v>
    </varray>
   </crystal>
   <varray name="positions" >
    <v>       0.47345655       0.33307117       0.57056261 </v>
    <v>       0.45030619       0.83712880       0.57343488 </v>
    <v>       0.92280843       0.24403484       0.58068102 </v>
    <v>       0.94221350       0.81516902       0.57561397 </v>
    <v>       0.31810675       0.07317598       0.57016592 </v>
    <v>       0.33925009       0.56529238       0.56868033 </v>
    <v>       0.79671935       0.08886688       0.57303252 </v>
    <v>       0.10467759       0.24680907       0.55733999 </v>
    <v>       0.08516932       0.67453738       0.57340265 </v>
    <v>       0.55073981       0.15273342       0.55970875 </v>
    <v>       0.49584380       0.64535377       0.56197660 </v>
    <v>       0.36781362       0.00856163       0.55575795 </v>
    <v>       0.28421964       0.63349603       0.55665510 </v>
    <v>       0.86901395       0.03338351       0.56348789 </v>
    <v>       0.05778572       0.24605253       0.58150126 </v>
    <v>       0.00282898       0.69481772       0.58671934 </v>
    <v>       0.57415520       0.23988351       0.57047641 </v>
    <v>       0.45280896       0.70116875       0.58064281 </v>
    <v>       0.28233453       0.44086961       0.57382949 </v>
    <v>       0.18181517       0.05853145       0.57151604 </v>
    <v>       0.67062478       0.02966031       0.57302794 </v>
    <v>       0.38843286       0.30467044       0.55985404 </v>
    <v>       0.50321189       0.86903894       0.55237953 </v>
    <v>       0.87839177       0.23627030       0.55612692 </v>
    <v>       0.98730216       0.86681489       0.55626080 </v>
    <v>       0.19450147       0.42948468       0.56358727 </v>
    <v>       0.14210967       0.98799177       0.55693177 </v>
    <v>       0.66757620       0.93941726       0.56312557 </v>
    <v>       0.43131193       0.18874506       0.55136058 </v>
    <v>       0.53977371       0.74828415       0.54236275 </v>
    <v>       0.99338564       0.24011125       0.53740088 </v>
    <v>       0.08253459       0.77830303       0.55239027 </v>
    <v>       0.18569573       0.55020238       0.55174665 </v>
    <v>       0.25951141       0.94264722       0.54610514 </v>
    <v>       0.79144883       0.93494365       0.55588554 </v>
    <v>       0.46369834       0.30879718       0.67367802 </v>
    <v>       0.44081875       0.80788864       0.67233308 </v>
    <v>       0.94764310       0.27672617       0.67580747 </v>
    <v>       0.92307432       0.74050531       0.67313494 </v>
    <v>       0.30831580       0.04919228       0.67188329 </v>
    <v>       0.29462931       0.55079942       0.67603414 </v>
    <v>       0.79303258       0.05269487       0.67481002 </v>
    <v>       0.84441093       0.47333088       0.66441213 </v>
    <v>       0.09231641       0.17384899       0.64790327 </v>
    <v>       0.10735300       0.71051738       0.65208379 </v>
    <v>       0.58031397       0.16803885       0.64843615 </v>
    <v>       0.57471154       0.66974541       0.65283022 </v>
    <v>       0.18593573       0.40876876       0.64797653 </v>
    <v>       0.16889296       0.92651153       0.64751794 </v>
    <v>       0.64475698       0.47683073       0.65962693 </v>
    <v>       0.67971298       0.91281491       0.64759877 </v>
    <v>       0.05730207       0.18364265       0.67345141 </v>
    <v>       0.04756825       0.67593013       0.67115743 </v>
    <v>       0.56391897       0.20869200       0.67341106 </v>
    <v>       0.53747468       0.70170581       0.67687391 </v>
    <v>       0.20377050       0.43802249       0.67389724 </v>
    <v>       0.19906437       0.95295063       0.67278038 </v>
    <v>       0.71585172       0.42348660       0.66975298 </v>
    <v>       0.69943702       0.94271131       0.67344811 </v>
    <v>       0.42158000       0.32448336       0.64926341 </v>
    <v>       0.42371631       0.83183467       0.64597619 </v>
    <v>       0.92540438       0.31986863       0.65155580 </v>
    <v>       0.90987710       0.81343504       0.65520844 </v>
    <v>       0.33635571       0.07252058       0.64638185 </v>
    <v>       0.32182811       0.58478218       0.65121356 </v>
    <v>       0.82438913       0.08218586       0.65008803 </v>
    <v>       0.85266044       0.55402314       0.64923361 </v>
    <v>       0.01431202       0.25852266       0.63240713 </v>
    <v>       0.02664794       0.80069923       0.64024109 </v>
    <v>       0.49196465       0.23935123       0.63112550 </v>
    <v>       0.50604845       0.74788263       0.63176088 </v>
    <v>       0.25293916       0.99808056       0.62920007 </v>
    <v>       0.25704226       0.49746159       0.63193737 </v>
    <v>       0.75663559       0.99633318       0.63108100 </v>
    <v>       0.72518811       0.56341363       0.64415887 </v>
    <v>       0.44874502       0.30128397       0.76888902 </v>
    <v>       0.44874501       0.80128391       0.76888902 </v>
    <v>       0.94874497       0.30128397       0.76888902 </v>
    <v>       0.94874501       0.80128391       0.76888902 </v>
    <v>       0.30127600       0.05129450       0.76887296 </v>
    <v>       0.30127601       0.55129450       0.76887296 </v>
    <v>       0.80127594       0.05129450       0.76887296 </v>
    <v>       0.80127598       0.55129450       0.76887296 </v>
    <v>       0.07877100       0.17118050       0.74344197 </v>
    <v>       0.07877101       0.67118045       0.74344197 </v>
    <v>       0.57877100       0.17118050       0.74344197 </v>
    <v>       0.57877099       0.67118045       0.74344197 </v>
    <v>       0.17119950       0.42117448       0.74342103 </v>
    <v>       0.17119950       0.92117451       0.74342103 </v>
    <v>       0.67119951       0.42117448       0.74342103 </v>
    <v>       0.67119950       0.92117451       0.74342103 </v>
    <v>       0.05125600       0.19871499       0.76888902 </v>
    <v>       0.05125600       0.69871493       0.76888902 </v>
    <v>       0.55125603       0.19871499       0.76888902 </v>
    <v>       0.55125602       0.69871493       0.76888902 </v>
    <v>       0.19872349       0.44870397       0.76887205 </v>
    <v>       0.19872349       0.94870397       0.76887205 </v>
    <v>       0.69872352       0.44870397       0.76887205 </v>
    <v>       0.69872351       0.94870397       0.76887205 </v>
    <v>       0.42123152       0.32881747       0.74344197 </v>
    <v>       0.42123151       0.82881744       0.74344197 </v>
    <v>       0.92123147       0.32881747       0.74344197 </v>
    <v>       0.92123151       0.82881744       0.74344197 </v>
    <v>       0.32880050       0.07882500       0.74342103 </v>
    <v>       0.32880049       0.57882496       0.74342103 </v>
    <v>       0.82880048       0.07882500       0.74342103 </v>
    <v>       0.82880052       0.57882496       0.74342103 </v>
    <v>       0.00000350       0.25000148       0.72582199 </v>
    <v>       0.00000350       0.75000145       0.72582199 </v>
    <v>       0.50000351       0.25000148       0.72582199 </v>
    <v>       0.50000350       0.75000145       0.72582199 </v>
    <v>       0.25000050       0.00000000       0.72580398 </v>
    <v>       0.25000052       0.50000000       0.72580398 </v>
    <v>       0.75000050       0.00000000       0.72580398 </v>
    <v>       0.75000049       0.50000000       0.72580398 </v>
    <v>       0.71912512       0.44095152       0.54150900 </v>
    <v>       0.73733759       0.49273525       0.51854231 </v>
    <v>       0.65978149       0.55302589       0.55896599 </v>
    <v>       0.70752281       0.63835865       0.55646561 </v>
    <v>       0.84862373       0.50676407       0.56933690 </v>
    <v>       0.78920605       0.57557057       0.57916858 </v>
    <v>       0.86866719       0.56212959       0.53002990 </v>
    <v>       0.79569064       0.62460110       0.52400911 </v>
    <v>       0.86949126       0.46291151       0.51856252 </v>
    <v>       0.86263347       0.42362870       0.54415077 </v>
    <v>       0.87056092       0.32571798       0.51845318 </v>
    <v>       0.78261985       0.32190744       0.53007801 </v>
    <v>       0.63484858       0.55099434       0.51961345 </v>
    <v>       0.68725786       0.63462744       0.51616867 </v>
    <v>       0.60603503       0.63293458       0.53181218 </v>
    <v>       0.75406650       0.46616850       0.59731655 </v>
    <v>       0.75538352       0.40955355       0.57421831 </v>
    <v>       0.68368146       0.47617314       0.57774745 </v>
    <v>       0.81723365       0.69015626       0.55897246 </v>
    <v>       0.90146189       0.68428294       0.54419649 </v>
    <v>       0.88703854       0.62433500       0.56609119 </v>
    <v>       0.81988104       0.38121908       0.48522950 </v>
    <v>       0.78307506       0.29278269       0.49149409 </v>
    <v>       0.66252939       0.30973197       0.52023705 </v>
    <v>       0.72983059       0.46082601       0.47024777 </v>
    <v>       0.53659059       0.36394568       0.51972077 </v>
    <v>       0.60248342       0.51333216       0.46946365 </v>
    <v>       0.50559616       0.46567611       0.49452155 </v>
    <v>       0.99126817       0.24227728       0.55486989 </v>
    <v>       0.03566017       0.76909437       0.56325182 </v>
    <v>       0.46978929       0.22839077       0.55845710 </v>
    <v>       0.50351666       0.75712138       0.55612625 </v>
    <v>       0.23732898       0.53168390       0.55898564 </v>
    <v>       0.25550052       0.99330839       0.55549935 </v>
    <v>       0.76840588       0.98569522       0.56246315 </v>
    <v>       0.00856328       0.24747028       0.64932952 </v>
    <v>       0.00912117       0.76366581       0.65306940 </v>
    <v>       0.50098305       0.24666720       0.64811199 </v>
    <v>       0.49902014       0.75062066       0.64899132 </v>
    <v>       0.25456367       0.49621562       0.64925364 </v>
    <v>       0.25291124       0.99970373       0.64654777 </v>
    <v>       0.74737619       0.51759901       0.65341408 </v>
    <v>       0.75255388       0.99750145       0.64839604 </v>
    <v>       0.49998898       0.24999498       0.74327702 </v>
    <v>       0.49998903       0.74999496       0.74327702 </v>
    <v>       0.99998898       0.24999498       0.74327702 </v>
    <v>       0.99998903       0.74999496       0.74327702 </v>
    <v>       0.25000050       0.00000100       0.74325596 </v>
    <v>       0.25000052       0.50000100       0.74325596 </v>
    <v>       0.75000050       0.00000100       0.74325596 </v>
    <v>       0.75000049       0.50000100       0.74325596 </v>
    <v>       0.70539214       0.38164371       0.49528861 </v>
    <v>       0.64963063       0.35426456       0.50903983 </v>
    <v>       0.68688410       0.43857061       0.48103960 </v>
    <v>       0.57884754       0.38378217       0.50864486 </v>
    <v>       0.61499931       0.46802972       0.48061297 </v>
    <v>       0.56168611       0.44148763       0.49449417 </v>
    <v>       0.76131918       0.47494110       0.53356387 </v>
    <v>       0.69526039       0.58576469       0.54837580 </v>
    <v>       0.79084414       0.52423610       0.56987002 </v>
    <v>       0.82568986       0.59684910       0.53707654 </v>
    <v>       0.83212238       0.43141732       0.52914154 </v>
    <v>       0.81729423       0.35518778       0.51931316 </v>
    <v>       0.65536390       0.60097038       0.52748056 </v>
    <v>       0.74267551       0.46540631       0.58007714 </v>
    <v>       0.85910178       0.65173643       0.55267445 </v>
    <v>       0.78330910       0.35159659       0.49669465 </v>
    <v>       0.05463129       0.24274224       0.56517188 </v>
    <v>       0.04043849       0.70905768       0.57503005 </v>
    <v>       0.53802964       0.20725655       0.56203496 </v>
    <v>       0.48482573       0.69855321       0.56718125 </v>
    <v>       0.44348631       0.29487134       0.56236895 </v>
    <v>       0.48266658       0.82452763       0.56034352 </v>
    <v>       0.92669611       0.24467870       0.56432253 </v>
    <v>       0.98055294       0.81650195       0.56369490 </v>
    <v>       0.23936814       0.46223528       0.56533176 </v>
    <v>       0.18930061       0.01589329       0.56113824 </v>
    <v>       0.69647300       0.98694826       0.56548731 </v>
    <v>       0.31689660       0.02849205       0.56019444 </v>
    <v>       0.29199842       0.57889450       0.56089862 </v>
    <v>       0.81366869       0.04011313       0.56682761 </v>
    <v>       0.05473574       0.19872288       0.65758953 </v>
    <v>       0.05719745       0.71284322       0.65916633 </v>
    <v>       0.55216240       0.20548803       0.65744528 </v>
    <v>       0.53887851       0.70478724       0.66043880 </v>
    <v>       0.21346370       0.44428285       0.65786681 </v>
    <v>       0.20368400       0.95756164       0.65643946 </v>
    <v>       0.70057294       0.46859909       0.66102931 </v>
    <v>       0.70824070       0.94799584       0.65723912 </v>
    <v>       0.46043882       0.29618653       0.65767799 </v>
    <v>       0.45212580       0.79912940       0.65642432 </v>
    <v>       0.95693805       0.28370949       0.65988894 </v>
    <v>       0.94360863       0.77410329       0.66142245 </v>
    <v>       0.30149212       0.04226108       0.65566337 </v>
    <v>       0.29235208       0.54597782       0.65971410 </v>
    <v>       0.79171321       0.04661768       0.65851422 </v>
    <v>       0.81902504       0.51498853       0.65598619 </v>
    <v>       0.04586250       0.20411950       0.75272599 </v>
    <v>       0.04586250       0.70411946       0.75272599 </v>
    <v>       0.54586251       0.20411950       0.75272599 </v>
    <v>       0.54586250       0.70411946       0.75272599 </v>
    <v>       0.20411900       0.45410100       0.75270499 </v>
    <v>       0.20411899       0.95410095       0.75270499 </v>
    <v>       0.70411898       0.45410100       0.75270499 </v>
    <v>       0.70411896       0.95410095       0.75270499 </v>
    <v>       0.45414002       0.29588849       0.75272697 </v>
    <v>       0.45414001       0.79588852       0.75272697 </v>
    <v>       0.95414002       0.29588849       0.75272697 </v>
    <v>       0.95414006       0.79588852       0.75272697 </v>
    <v>       0.29588249       0.04590050       0.75270499 </v>
    <v>       0.29588248       0.54590053       0.75270499 </v>
    <v>       0.79588244       0.04590050       0.75270499 </v>
    <v>       0.79588248       0.54590053       0.75270499 </v>
    <v>       0.76953263       0.54420361       0.54709606 </v>
    <v>       0.50904679       0.01458623       0.55078216 </v>
    <v>       0.48299374       0.50690040       0.55458053 </v>
    <v>       0.99799121       0.00850903       0.55188809 </v>
    <v>       0.03143645       0.50596746       0.55507983 </v>
    <v>       0.24926552       0.24812711       0.55305447 </v>
    <v>       0.24215466       0.76606732       0.55255369 </v>
    <v>       0.73171949       0.21057292       0.55596240 </v>
    <v>       0.70060400       0.79532374       0.55417859 </v>
    <v>       0.99835290       0.98978941       0.65456403 </v>
    <v>       0.01588293       0.49494404       0.65584614 </v>
    <v>       0.50158264       0.00489648       0.65408944 </v>
    <v>       0.50418449       0.49546214       0.65508036 </v>
    <v>       0.25704757       0.24251598       0.65491255 </v>
    <v>       0.25229509       0.75716367       0.65446543 </v>
    <v>       0.74662706       0.26899437       0.65524275 </v>
    <v>       0.74609637       0.74417222       0.65386735 </v>
    <v>       0.13208175       0.11965439       0.60776707 </v>
    <v>       0.15083525       0.60674017       0.60988120 </v>
    <v>       0.63982169       0.11406677       0.60987772 </v>
    <v>       0.62762183       0.62156935       0.61049186 </v>
    <v>       0.36408297       0.38743282       0.60839128 </v>
    <v>       0.37330638       0.88243536       0.60644729 </v>
    <v>       0.88704618       0.37086545       0.61030853 </v>
    <v>       0.86709877       0.87973655       0.60723956 </v>
    <v>       0.12292639       0.36532103       0.60846093 </v>
    <v>       0.12336574       0.87724360       0.60747477 </v>
    <v>       0.59312152       0.34564322       0.60287260 </v>
    <v>       0.61498677       0.86599320       0.61218171 </v>
    <v>       0.38435277       0.13224373       0.60561857 </v>
    <v>       0.38188570       0.63218538       0.61199301 </v>
    <v>       0.88331964       0.13727846       0.61233182 </v>
    <v>       0.90558354       0.64477600       0.61563034 </v>
    <v>       0.00000000       0.00000000       0.75492797 </v>
    <v>       0.00000000       0.50000000       0.75492797 </v>
    <v>       0.50000000       0.00000000       0.75492797 </v>
    <v>       0.49999999       0.50000000       0.75492797 </v>
    <v>       0.25000050       0.25000000       0.75493902 </v>
    <v>       0.25000051       0.74999997       0.75493902 </v>
    <v>       0.75000047       0.25000000       0.75493902 </v>
    <v>       0.75000046       0.74999997       0.75493902 </v>
    <v>       0.13579050       0.11421000       0.70478299 </v>
    <v>       0.13579050       0.61420998       0.70478299 </v>
    <v>       0.63579045       0.11421000       0.70478299 </v>
    <v>       0.63579049       0.61420998       0.70478299 </v>
    <v>       0.36420952       0.38578999       0.70478299 </v>
    <v>       0.36420950       0.88578996       0.70478299 </v>
    <v>       0.86420954       0.38578999       0.70478299 </v>
    <v>       0.86420953       0.88578996       0.70478299 </v>
    <v>       0.11421799       0.36421899       0.70478098 </v>
    <v>       0.11421799       0.86421899       0.70478098 </v>
    <v>       0.61421800       0.36421899       0.70478098 </v>
    <v>       0.61421799       0.86421899       0.70478098 </v>
    <v>       0.38578201       0.13578149       0.70478202 </v>
    <v>       0.38578200       0.63578149       0.70478202 </v>
    <v>       0.88578199       0.13578149       0.70478202 </v>
    <v>       0.88578203       0.63578149       0.70478202 </v>
    <v>       0.13466700       0.11533200       0.80125603 </v>
    <v>       0.13466699       0.61533199       0.80125603 </v>
    <v>       0.63466699       0.11533200       0.80125603 </v>
    <v>       0.63466698       0.61533199       0.80125603 </v>
    <v>       0.36533300       0.38466799       0.80125603 </v>
    <v>       0.36533299       0.88466796       0.80125603 </v>
    <v>       0.86533295       0.38466799       0.80125603 </v>
    <v>       0.86533294       0.88466796       0.80125603 </v>
    <v>       0.11532850       0.36533700       0.80126500 </v>
    <v>       0.11532850       0.86533698       0.80126500 </v>
    <v>       0.61532850       0.36533700       0.80126500 </v>
    <v>       0.61532849       0.86533698       0.80126500 </v>
    <v>       0.38467151       0.13466300       0.80126500 </v>
    <v>       0.38467150       0.63466297       0.80126500 </v>
    <v>       0.88467149       0.13466300       0.80126500 </v>
    <v>       0.88467153       0.63466297       0.80126500 </v>
    <v>       0.99654252       0.00309910       0.60507109 </v>
    <v>       0.00631072       0.50565036       0.60504594 </v>
    <v>       0.50194167       0.00496828       0.60417962 </v>
    <v>       0.50218479       0.50096910       0.60466849 </v>
    <v>       0.25149166       0.25384512       0.60437497 </v>
    <v>       0.24708091       0.75274482       0.60385998 </v>
    <v>       0.74596715       0.25631057       0.60525454 </v>
    <v>       0.74150717       0.75738658       0.60295043 </v>
    <v>       0.00000050       0.00000050       0.70482896 </v>
    <v>       0.00000050       0.50000048       0.70482896 </v>
    <v>       0.50000048       0.00000050       0.70482896 </v>
    <v>       0.50000046       0.50000048       0.70482896 </v>
    <v>       0.24999999       0.24999947       0.70482499 </v>
    <v>       0.25000001       0.74999950       0.70482499 </v>
    <v>       0.74999999       0.24999947       0.70482499 </v>
    <v>       0.74999998       0.74999950       0.70482499 </v>
    <v>       0.00000000       0.00000000       0.80731797 </v>
    <v>       0.00000000       0.50000000       0.80731797 </v>
    <v>       0.50000000       0.00000000       0.80731797 </v>
    <v>       0.49999999       0.50000000       0.80731797 </v>
    <v>       0.24999999       0.25000000       0.80731797 </v>
    <v>       0.25000001       0.74999997       0.80731797 </v>
    <v>       0.74999999       0.25000000       0.80731797 </v>
    <v>       0.74999998       0.74999997       0.80731797 </v>
   </varray>
  </structure>
  <varray name="primitive_index" >
   <v type="int" >        1 </v>
   <v type="int" >        2 </v>
   <v type="int" >        3 </v>
   <v type="int" >        4 </v>
   <v type="int" >        5 </v>
   <v type="int" >        6 </v>
   <v type="int" >        7 </v>
   <v type="int" >        8 </v>
   <v type="int" >        9 </v>
   <v type="int" >       10 </v>
   <v type="int" >       11 </v>
   <v type="int" >       12 </v>
   <v type="int" >       13 </v>
   <v type="int" >       14 </v>
   <v type="int" >       15 </v>
   <v type="int" >       16 </v>
   <v type="int" >       17 </v>
   <v type="int" >       18 </v>
   <v type="int" >       19 </v>
   <v type="int" >       20 </v>
   <v type="int" >       21 </v>
   <v type="int" >       22 </v>
   <v type="int" >       23 </v>
   <v type="int" >       24 </v>
   <v type="int" >       25 </v>
   <v type="int" >       26 </v>
   <v type="int" >       27 </v>
   <v type="int" >       28 </v>
   <v type="int" >       29 </v>
   <v type="int" >       30 </v>
   <v type="int" >       31 </v>
   <v type="int" >       32 </v>
   <v type="int" >       33 </v>
   <v type="int" >       34 </v>
   <v type="int" >       35 </v>
   <v type="int" >       36 </v>
   <v type="int" >       37 </v>
   <v type="int" >       38 </v>
   <v type="int" >       39 </v>
   <v type="int" >       40 </v>
   <v type="int" >       41 </v>
   <v type="int" >       42 </v>
   <v type="int" >       43 </v>
   <v type="int" >       44 </v>
   <v type="int" >       45 </v>
   <v type="int" >       46 </v>
   <v type="int" >       47 </v>
   <v type="int" >       48 </v>
   <v type="int" >       49 </v>
   <v type="int" >       50 </v>
   <v type="int" >       51 </v>
   <v type="int" >       52 </v>
   <v type="int" >       53 </v>
   <v type="int" >       54 </v>
   <v type="int" >       55 </v>
   <v type="int" >       56 </v>
   <v type="int" >       57 </v>
   <v type="int" >       58 </v>
   <v type="int" >       59 </v>
   <v type="int" >       60 </v>
   <v type="int" >       61 </v>
   <v type="int" >       62 </v>
   <v type="int" >       63 </v>
   <v type="int" >       64 </v>
   <v type="int" >       65 </v>
   <v type="int" >       66 </v>
   <v type="int" >       67 </v>
   <v type="int" >       68 </v>
   <v type="int" >       69 </v>
   <v type="int" >       70 </v>
   <v type="int" >       71 </v>
   <v type="int" >       72 </v>
   <v type="int" >       73 </v>
   <v type="int" >       74 </v>
   <v type="int" >       75 </v>
   <v type="int" >       76 </v>
   <v type="int" >       77 </v>
   <v type="int" >       78 </v>
   <v type="int" >       79 </v>
   <v type="int" >       80 </v>
   <v type="int" >       81 </v>
   <v type="int" >       82 </v>
   <v type="int" >       83 </v>
   <v type="int" >       84 </v>
   <v type="int" >       85 </v>
   <v type="int" >       86 </v>
   <v type="int" >       87 </v>
   <v type="int" >       88 </v>
   <v type="int" >       89 </v>
   <v type="int" >       90 </v>
   <v type="int" >       91 </v>
   <v type="int" >       92 </v>
   <v type="int" >       93 </v>
   <v type="int" >       94 </v>
   <v type="int" >       95 </v>
   <v type="int" >       96 </v>
   <v type="int" >       97 </v>
   <v type="int" >       98 </v>
   <v type="int" >       99 </v>
   <v type="int" >      100 </v>
   <v type="int" >      101 </v>
   <v type="int" >      102 </v>
   <v type="int" >      103 </v>
   <v type="int" >      104 </v>
   <v type="int" >      105 </v>
   <v type="int" >      106 </v>
   <v type="int" >      107 </v>
   <v type="int" >      108 </v>
   <v type="int" >      109 </v>
   <v type="int" >      110 </v>
   <v type="int" >      111 </v>
   <v type="int" >      112 </v>
   <v type="int" >      113 </v>
   <v type="int" >      114 </v>
   <v type="int" >      115 </v>
   <v type="int" >      116 </v>
   <v type="int" >      117 </v>
   <v type="int" >      118 </v>
   <v type="int" >      119 </v>
   <v type="int" >      120 </v>
   <v type="int" >      121 </v>
   <v type="int" >      122 </v>
   <v type="int" >      123 </v>
   <v type="int" >      124 </v>
   <v type="int" >      125 </v>
   <v type="int" >      126 </v>
   <v type="int" >      127 </v>
   <v type="int" >      128 </v>
   <v type="int" >      129 </v>
   <v type="int" >      130 </v>
   <v type="int" >      131 </v>
   <v type="int" >      132 </v>
   <v type="int" >      133 </v>
   <v type="int" >      134 </v>
   <v type="int" >      135 </v>
   <v type="int" >      136 </v>
   <v type="int" >      137 </v>
   <v type="int" >      138 </v>
   <v type="int" >      139 </v>
   <v type="int" >      140 </v>
   <v type="int" >      141 </v>
   <v type="int" >      142 </v>
   <v type="int" >      143 </v>
   <v type="int" >      144 </v>
   <v type="int" >      145 </v>
   <v type="int" >      146 </v>
   <v type="int" >      147 </v>
   <v type="int" >      148 </v>
   <v type="int" >      149 </v>
   <v type="int" >      150 </v>
   <v type="int" >      151 </v>
   <v type="int" >      152 </v>
   <v type="int" >      153 </v>
   <v type="int" >      154 </v>
   <v type="int" >      155 </v>
   <v type="int" >      156 </v>
   <v type="int" >      157 </v>
   <v type="int" >      158 </v>
   <v type="int" >      159 </v>
   <v type="int" >      160 </v>
   <v type="int" >      161 </v>
   <v type="int" >      162 </v>
   <v type="int" >      163 </v>
   <v type="int" >      164 </v>
   <v type="int" >      165 </v>
   <v type="int" >      166 </v>
   <v type="int" >      167 </v>
   <v type="int" >      168 </v>
   <v type="int" >      169 </v>
   <v type="int" >      170 </v>
   <v type="int" >      171 </v>
   <v type="int" >      172 </v>
   <v type="int" >      173 </v>
   <v type="int" >      174 </v>
   <v type="int" >      175 </v>
   <v type="int" >      176 </v>
   <v type="int" >      177 </v>
   <v type="int" >      178 </v>
   <v type="int" >      179 </v>
   <v type="int" >      180 </v>
   <v type="int" >      181 </v>
   <v type="int" >      182 </v>
   <v type="int" >      183 </v>
   <v type="int" >      184 </v>
   <v type="int" >      185 </v>
   <v type="int" >      186 </v>
   <v type="int" >      187 </v>
   <v type="int" >      188 </v>
   <v type="int" >      189 </v>
   <v type="int" >      190 </v>
   <v type="int" >      191 </v>
   <v type="int" >      192 </v>
   <v type="int" >      193 </v>
   <v type="int" >      194 </v>
   <v type="int" >      195 </v>
   <v type="int" >      196 </v>
   <v type="int" >      197 </v>
   <v type="int" >      198 </v>
   <v type="int" >      199 </v>
   <v type="int" >      200 </v>
   <v type="int" >      201 </v>
   <v type="int" >      202 </v>
   <v type="int" >      203 </v>
   <v type="int" >      204 </v>
   <v type="int" >      205 </v>
   <v type="int" >      206 </v>
   <v type="int" >      207 </v>
   <v type="int" >      208 </v>
   <v type="int" >      209 </v>
   <v type="int" >      210 </v>
   <v type="int" >      211 </v>
   <v type="int" >      212 </v>
   <v type="int" >      213 </v>
   <v type="int" >      214 </v>
   <v type="int" >      215 </v>
   <v type="int" >      216 </v>
   <v type="int" >      217 </v>
   <v type="int" >      218 </v>
   <v type="int" >      219 </v>
   <v type="int" >      220 </v>
   <v type="int" >      221 </v>
   <v type="int" >      222 </v>
   <v type="int" >      223 </v>
   <v type="int" >      224 </v>
   <v type="int" >      225 </v>
   <v type="int" >      226 </v>
   <v type="int" >      227 </v>
   <v type="int" >      228 </v>
   <v type="int" >      229 </v>
   <v type="int" >      230 </v>
   <v type="int" >      231 </v>
   <v type="int" >      232 </v>
   <v type="int" >      233 </v>
   <v type="int" >      234 </v>
   <v type="int" >      235 </v>
   <v type="int" >      236 </v>
   <v type="int" >      237 </v>
   <v type="int" >      238 </v>
   <v type="int" >      239 </v>
   <v type="int" >      240 </v>
   <v type="int" >      241 </v>
   <v type="int" >      242 </v>
   <v type="int" >      243 </v>
   <v type="int" >      244 </v>
   <v type="int" >      245 </v>
   <v type="int" >      246 </v>
   <v type="int" >      247 </v>
   <v type="int" >      248 </v>
   <v type="int" >      249 </v>
   <v type="int" >      250 </v>
   <v type="int" >      251 </v>
   <v type="int" >      252 </v>
   <v type="int" >      253 </v>
   <v type="int" >      254 </v>
   <v type="int" >      255 </v>
   <v type="int" >      256 </v>
   <v type="int" >      257 </v>
   <v type="int" >      258 </v>
   <v type="int" >      259 </v>
   <v type="int" >      260 </v>
   <v type="int" >      261 </v>
   <v type="int" >      262 </v>
   <v type="int" >      263 </v>
   <v type="int" >      264 </v>
   <v type="int" >      265 </v>
   <v type="int" >      266 </v>
   <v type="int" >      267 </v>
   <v type="int" >      268 </v>
   <v type="int" >      269 </v>
   <v type="int" >      270 </v>
   <v type="int" >      271 </v>
   <v type="int" >      272 </v>
   <v type="int" >      273 </v>
   <v type="int" >      274 </v>
   <v type="int" >      275 </v>
   <v type="int" >      276 </v>
   <v type="int" >      277 </v>
   <v type="int" >      278 </v>
   <v type="int" >      279 </v>
   <v type="int" >      280 </v>
   <v type="int" >      281 </v>
   <v type="int" >      282 </v>
   <v type="int" >      283 </v>
   <v type="int" >      284 </v>
   <v type="int" >      285 </v>
   <v type="int" >      286 </v>
   <v type="int" >      287 </v>
   <v type="int" >      288 </v>
   <v type="int" >      289 </v>
   <v type="int" >      290 </v>
   <v type="int" >      291 </v>
   <v type="int" >      292 </v>
   <v type="int" >      293 </v>
   <v type="int" >      294 </v>
   <v type="int" >      295 </v>
   <v type="int" >      296 </v>
   <v type="int" >      297 </v>
   <v type="int" >      298 </v>
   <v type="int" >      299 </v>
   <v type="int" >      300 </v>
   <v type="int" >      301 </v>
   <v type="int" >      302 </v>
   <v type="int" >      303 </v>
   <v type="int" >      304 </v>
   <v type="int" >      305 </v>
   <v type="int" >      306 </v>
   <v type="int" >      307 </v>
   <v type="int" >      308 </v>
   <v type="int" >      309 </v>
   <v type="int" >      310 </v>
   <v type="int" >      311 </v>
   <v type="int" >      312 </v>
   <v type="int" >      313 </v>
   <v type="int" >      314 </v>
   <v type="int" >      315 </v>
   <v type="int" >      316 </v>
   <v type="int" >      317 </v>
   <v type="int" >      318 </v>
   <v type="int" >      319 </v>
   <v type="int" >      320 </v>
   <v type="int" >      321 </v>
   <v type="int" >      322 </v>
   <v type="int" >      323 </v>
   <v type="int" >      324 </v>
   <v type="int" >      325 </v>
  </varray>
 </primitive_cell>
 <kpoints>
  <generation param="Gamma">
   <v type="int" name="divisions">       3        3        1 </v>
   <v name="usershift">      0.00000000       0.00000000       0.00000000 </v>
   <v name="genvec1">      0.33333333       0.00000000       0.00000000 </v>
   <v name="genvec2">      0.00000000       0.33333333       0.00000000 </v>
   <v name="genvec3">      0.00000000       0.00000000       1.00000000 </v>
   <v name="shift">      0.00000000       0.00000000       0.00000000 </v>
  </generation>
  <varray name="kpointlist" >
   <v>       0.00000000       0.00000000       0.00000000 </v>
   <v>       0.33333333       0.00000000       0.00000000 </v>
   <v>       0.00000000       0.33333333       0.00000000 </v>
   <v>       0.33333333       0.33333333       0.00000000 </v>
   <v>      -0.33333333       0.33333333       0.00000000 </v>
  </varray>
  <varray name="weights" >
   <v>       0.11111111 </v>
   <v>       0.22222222 </v>
   <v>       0.22222222 </v>
   <v>       0.22222222 </v>
   <v>       0.22222222 </v>
  </varray>
 </kpoints>
 <parameters>
  <separator name="general" >
   <i type="string" name="SYSTEM">PSC</i>
   <i type="logical" name="LCOMPAT"> F  </i>
  </separator>
  <separator name="electronic" >
   <i type="string" name="PREC">normal</i>
   <i name="ENMAX">    500.00000000</i>
   <i name="ENAUG">    644.87300000</i>
   <i name="EDIFF">      0.00010000</i>
   <i type="int" name="IALGO">    38</i>
   <i type="int" name="IWAVPR">    10</i>
   <i type="int" name="NBANDS">   732</i>
   <i type="int" name="NBANDSLOW">    -1</i>
   <i type="int" name="NBANDSHIGH">    -1</i>
   <i name="NELECT">   1134.00000000</i>
   <i type="int" name="TURBO">     0</i>
   <i type="int" name="IRESTART">     0</i>
   <i type="int" name="NREBOOT">     0</i>
   <i type="int" name="NMIN">     0</i>
   <i name="EREF">      0.00000000</i>
   <separator name="electronic smearing" >
    <i type="int" name="ISMEAR">     0</i>
    <i name="SIGMA">      0.05000000</i>
    <i name="KSPACING">      0.50000000</i>
    <i type="logical" name="KGAMMA"> T  </i>
    <i type="logical" name="KBLOWUP"> T  </i>
   </separator>
   <separator name="electronic projectors" >
    <i type="logical" name="LREAL"> T  </i>
    <v name="ROPT">     -0.00050000     -0.00050000     -0.00050000     -0.00050000     -0.00050000</v>
    <i type="int" name="LMAXPAW">  -100</i>
    <i type="int" name="LMAXMIX">     2</i>
    <i type="logical" name="NLSPLINE"> F  </i>
   </separator>
   <separator name="electronic startup" >
    <i type="int" name="ISTART">     0</i>
    <i type="int" name="ICHARG">     1</i>
    <i type="int" name="INIWAV">     1</i>
   </separator>
   <separator name="electronic spin" >
    <i type="int" name="ISPIN">     1</i>
    <i type="logical" name="LNONCOLLINEAR"> F  </i>
    <v name="MAGMOM">      1.00000000      1.00000000      1.00000000      1.00000000      1.00000000      1.00000000      1.00000000      1.00000000      1.00000000      1.00000000      1.00000000      1.00000000      1.00000000      1.00000000      1.00000000      1.00000000      1.00000000      1.00000000      1.00000000      1.00000000
      1.00000000      1.00000000      1.00000000      1.00000000      1.00000000      1.00000000      1.00000000      1.00000000      1.00000000      1.00000000      1.00000000      1.00000000      1.00000000      1.00000000      1.00000000      1.00000000      1.00000000      1.00000000      1.00000000      1.00000000
      1.00000000      1.00000000      1.00000000      1.00000000      1.00000000      1.00000000      1.00000000      1.00000000      1.00000000      1.00000000      1.00000000      1.00000000      1.00000000      1.00000000      1.00000000      1.00000000      1.00000000      1.00000000      1.00000000      1.00000000
      1.00000000      1.00000000      1.00000000      1.00000000      1.00000000      1.00000000      1.00000000      1.00000000      1.00000000      1.00000000      1.00000000      1.00000000      1.00000000      1.00000000      1.00000000      1.00000000      1.00000000      1.00000000      1.00000000      1.00000000
      1.00000000      1.00000000      1.00000000      1.00000000      1.00000000      1.00000000      1.00000000      1.00000000      1.00000000      1.00000000      1.00000000      1.00000000      1.00000000      1.00000000      1.00000000      1.00000000      1.00000000      1.00000000      1.00000000      1.00000000
      1.00000000      1.00000000      1.00000000      1.00000000      1.00000000      1.00000000      1.00000000      1.00000000      1.00000000      1.00000000      1.00000000      1.00000000      1.00000000      1.00000000      1.00000000      1.00000000      1.00000000      1.00000000      1.00000000      1.00000000
      1.00000000      1.00000000      1.00000000      1.00000000      1.00000000      1.00000000      1.00000000      1.00000000      1.00000000      1.00000000      1.00000000      1.00000000      1.00000000      1.00000000      1.00000000      1.00000000      1.00000000      1.00000000      1.00000000      1.00000000
      1.00000000      1.00000000      1.00000000      1.00000000      1.00000000      1.00000000      1.00000000      1.00000000      1.00000000      1.00000000      1.00000000      1.00000000      1.00000000      1.00000000      1.00000000      1.00000000      1.00000000      1.00000000      1.00000000      1.00000000
      1.00000000      1.00000000      1.00000000      1.00000000      1.00000000      1.00000000      1.00000000      1.00000000      1.00000000      1.00000000      1.00000000      1.00000000      1.00000000      1.00000000      1.00000000      1.00000000      1.00000000      1.00000000      1.00000000      1.00000000
      1.00000000      1.00000000      1.00000000      1.00000000      1.00000000      1.00000000      1.00000000      1.00000000      1.00000000      1.00000000      1.00000000      1.00000000      1.00000000      1.00000000      1.00000000      1.00000000      1.00000000      1.00000000      1.00000000      1.00000000
      1.00000000      1.00000000      1.00000000      1.00000000      1.00000000      1.00000000      1.00000000      1.00000000      1.00000000      1.00000000      1.00000000      1.00000000      1.00000000      1.00000000      1.00000000      1.00000000      1.00000000      1.00000000      1.00000000      1.00000000
      1.00000000      1.00000000      1.00000000      1.00000000      1.00000000      1.00000000      1.00000000      1.00000000      1.00000000      1.00000000      1.00000000      1.00000000      1.00000000      1.00000000      1.00000000      1.00000000      1.00000000      1.00000000      1.00000000      1.00000000
      1.00000000      1.00000000      1.00000000      1.00000000      1.00000000      1.00000000      1.00000000      1.00000000      1.00000000      1.00000000      1.00000000      1.00000000      1.00000000      1.00000000      1.00000000      1.00000000      1.00000000      1.00000000      1.00000000      1.00000000
      1.00000000      1.00000000      1.00000000      1.00000000      1.00000000      1.00000000      1.00000000      1.00000000      1.00000000      1.00000000      1.00000000      1.00000000      1.00000000      1.00000000      1.00000000      1.00000000      1.00000000      1.00000000      1.00000000      1.00000000
      1.00000000      1.00000000      1.00000000      1.00000000      1.00000000      1.00000000      1.00000000      1.00000000      1.00000000      1.00000000      1.00000000      1.00000000      1.00000000      1.00000000      1.00000000      1.00000000      1.00000000      1.00000000      1.00000000      1.00000000
      1.00000000      1.00000000      1.00000000      1.00000000      1.00000000      1.00000000      1.00000000      1.00000000      1.00000000      1.00000000      1.00000000      1.00000000      1.00000000      1.00000000      1.00000000      1.00000000      1.00000000      1.00000000      1.00000000      1.00000000
      1.00000000      1.00000000      1.00000000      1.00000000      1.00000000</v>
    <i name="NUPDOWN">     -1.00000000</i>
    <i type="logical" name="LSORBIT"> F  </i>
    <v name="SAXIS">      0.00000000      0.00000000      1.00000000</v>
    <i type="logical" name="LSPIRAL"> F  </i>
    <v name="QSPIRAL">      0.00000000      0.00000000      0.00000000</v>
    <i type="logical" name="LZEROZ"> F  </i>
   </separator>
   <separator name="electronic exchange-correlation" >
    <i type="logical" name="LASPH"> F  </i>
    <i type="logical" name="LMETAGGA"> F  </i>
   </separator>
   <separator name="electronic convergence" >
    <i type="int" name="NELM">   600</i>
    <i type="int" name="NELMDL">     0</i>
    <i type="int" name="NELMIN">     2</i>
    <i name="ENINI">    500.00000000</i>
    <separator name="electronic convergence detail" >
     <i type="logical" name="LDIAG"> T  </i>
     <i type="logical" name="LSUBROT"> F  </i>
     <i name="WEIMIN">      0.00000000</i>
     <i name="EBREAK">      0.00000003</i>
     <i name="DEPER">      0.30000000</i>
     <i type="int" name="NRMM">     4</i>
     <i name="TIME">      0.40000000</i>
    </separator>
   </separator>
   <separator name="electronic mixer" >
    <i name="AMIX">      0.40000000</i>
    <i name="BMIX">      0.01000000</i>
    <i name="AMIN">      0.01000000</i>
    <i name="AMIX_MAG">      1.60000000</i>
    <i name="BMIX_MAG">      0.01000000</i>
    <separator name="electronic mixer details" >
     <i type="int" name="IMIX">     4</i>
     <i type="logical" name="MIXFIRST"> F  </i>
     <i type="int" name="MAXMIX">   -45</i>
     <i name="WC">    100.00000000</i>
     <i type="int" name="INIMIX">     1</i>
     <i type="int" name="MIXPRE">     1</i>
     <i type="int" name="MREMOVE">     5</i>
    </separator>
   </separator>
   <separator name="electronic dipolcorrection" >
    <i type="logical" name="LDIPOL"> T  </i>
    <i type="logical" name="LMONO"> F  </i>
    <i type="int" name="IDIPOL">     3</i>
    <i name="EPSILON">      1.00000000</i>
    <v name="DIPOL">   -100.00000000   -100.00000000   -100.00000000</v>
    <i name="EFIELD">      0.00000000</i>
   </separator>
  </separator>
  <separator name="grids" >
   <i type="int" name="NGX">   100</i>
   <i type="int" name="NGY">   100</i>
   <i type="int" name="NGZ">   350</i>
   <i type="int" name="NGXF">   200</i>
   <i type="int" name="NGYF">   200</i>
   <i type="int" name="NGZF">   700</i>
   <i type="logical" name="ADDGRID"> F  </i>
  </separator>
  <separator name="ionic" >
   <i type="int" name="NSW">     0</i>
   <i type="int" name="IBRION">    -1</i>
   <i type="int" name="MDALGO">     0</i>
   <i type="int" name="ISIF">     2</i>
   <i name="PSTRESS">      0.00000000</i>
   <i name="EDIFFG">      0.00100000</i>
   <i type="int" name="NFREE">     0</i>
   <i name="POTIM">      0.50000000</i>
   <i name="SMASS">     -3.00000000</i>
   <i name="SCALEE">      1.00000000</i>
  </separator>
  <separator name="ionic md" >
   <i name="TEBEG">      0.00010000</i>
   <i name="TEEND">      0.00010000</i>
   <i type="int" name="NBLOCK">     1</i>
   <i type="int" name="KBLOCK">     1</i>
   <i type="int" name="NPACO">   256</i>
   <i name="APACO">     16.00000000</i>
  </separator>
  <separator name="symmetry" >
   <i type="int" name="ISYM">     0</i>
   <i name="SYMPREC">      0.00001000</i>
  </separator>
  <separator name="dos" >
   <i type="int" name="LORBIT">     0</i>
   <v name="RWIGS">     -1.00000000     -1.00000000     -1.00000000     -1.00000000     -1.00000000</v>
   <i type="int" name="NEDOS">   301</i>
   <i name="EMIN">     10.00000000</i>
   <i name="EMAX">    -10.00000000</i>
   <i name="EFERMI">      0.00000000</i>
  </separator>
  <separator name="writing" >
   <i type="int" name="NWRITE">     2</i>
   <i type="logical" name="LWAVE"> F  </i>
   <i type="logical" name="LDOWNSAMPLE"> F  </i>
   <i type="logical" name="LCHARG"> T  </i>
   <i type="logical" name="LPARD"> F  </i>
   <i type="logical" name="LVTOT"> T  </i>
   <i type="logical" name="LVHAR"> F  </i>
   <i type="logical" name="LELF"> F  </i>
   <i type="logical" name="LOPTICS"> F  </i>
   <v name="STM">      0.00000000      0.00000000      0.00000000      0.00000000      0.00000000      0.00000000      0.00000000</v>
  </separator>
  <separator name="performance" >
   <i type="int" name="NPAR">     4</i>
   <i type="int" name="NSIM">     4</i>
   <i type="int" name="NBLK">    -1</i>
   <i type="logical" name="LPLANE"> T  </i>
   <i type="logical" name="LSCALAPACK"> T  </i>
   <i type="logical" name="LSCAAWARE"> F  </i>
   <i type="logical" name="LSCALU"> F  </i>
   <i type="logical" name="LASYNC"> F  </i>
   <i type="logical" name="LORBITALREAL"> F  </i>
  </separator>
  <separator name="miscellaneous" >
   <i type="int" name="IDIOT">     3</i>
   <i type="int" name="PHON_NSTRUCT">    -1</i>
   <i type="logical" name="LMUSIC"> F  </i>
   <v name="POMASS">      1.00000000     12.01100000     14.00100000    126.90400000    207.20000000</v>
   <v name="DARWINR">      0.00000000      0.00000000      0.00000000      0.00000000      0.00000000</v>
   <v name="DARWINV">      1.00000000      1.00000000      1.00000000      1.00000000      1.00000000</v>
   <i type="logical" name="LCORR"> T  </i>
  </separator>
  <i type="logical" name="GGA_COMPAT"> F  </i>
  <i type="logical" name="LBERRY"> F  </i>
  <i type="int" name="ICORELEVEL">     0</i>
  <i type="logical" name="LDAU"> F  </i>
  <i type="int" name="I_CONSTRAINED_M">     0</i>
  <separator name="electronic exchange-correlation" >
   <i type="string" name="GGA">--</i>
   <i type="int" name="VOSKOWN">     0</i>
   <i type="logical" name="LHFCALC"> F  </i>
   <i type="string" name="PRECFOCK"></i>
   <i type="logical" name="LSYMGRAD"> F  </i>
   <i type="logical" name="LHFONE"> F  </i>
   <i type="logical" name="LRHFCALC"> F  </i>
   <i type="logical" name="LTHOMAS"> F  </i>
   <i type="logical" name="LMODELHF"> F  </i>
   <i type="logical" name="LFOCKACE"> F  </i>
   <i name="ENCUT4O">     -1.00000000</i>
   <i type="int" name="EXXOEP">     0</i>
   <i type="int" name="FOURORBIT">     0</i>
   <i name="AEXX">      0.00000000</i>
   <i name="HFALPHA">      0.00000000</i>
   <i name="MCALPHA">      0.00000000</i>
   <i name="ALDAX">      1.00000000</i>
   <i name="AGGAX">      1.00000000</i>
   <i name="ALDAC">      1.00000000</i>
   <i name="AGGAC">      1.00000000</i>
   <i type="int" name="NKREDX">     1</i>
   <i type="int" name="NKREDY">     1</i>
   <i type="int" name="NKREDZ">     1</i>
   <i type="logical" name="SHIFTRED"> F  </i>
   <i type="logical" name="ODDONLY"> F  </i>
   <i type="logical" name="EVENONLY"> F  </i>
   <i type="int" name="LMAXFOCK">     0</i>
   <i type="int" name="NMAXFOCKAE">     0</i>
   <i type="logical" name="LFOCKAEDFT"> F  </i>
   <i name="HFSCREEN">      0.00000000</i>
   <i name="HFSCREENC">      0.00000000</i>
   <i type="int" name="NBANDSGWLOW">     0</i>
  </separator>
  <separator name="vdW DFT" >
   <i type="logical" name="LUSE_VDW"> F  </i>
   <i name="Zab_VDW">     -0.84910000</i>
   <i name="PARAM1">      0.12340000</i>
   <i name="PARAM2">      1.00000000</i>
   <i name="PARAM3">      0.00000000</i>
  </separator>
  <separator name="model GW" >
   <i type="int" name="MODEL_GW">     0</i>
   <i name="MODEL_EPS0">     37.63423484</i>
   <i name="MODEL_ALPHA">      1.00000000</i>
  </separator>
  <separator name="linear response parameters" >
   <i type="logical" name="LEPSILON"> F  </i>
   <i type="logical" name="LRPA"> F  </i>
   <i type="logical" name="LNABLA"> F  </i>
   <i type="logical" name="LVEL"> F  </i>
   <i type="int" name="KINTER">     0</i>
   <i name="CSHIFT">      0.10000000</i>
   <i name="OMEGAMAX">     -1.00000000</i>
   <i name="DEG_THRESHOLD">      0.00200000</i>
   <i name="RTIME">     -0.10000000</i>
   <i name="WPLASMAI">      0.00000000</i>
   <v name="DFIELD">      0.00000000      0.00000000      0.00000000</v>
   <v name="WPLASMA">      0.00000000      0.00000000      0.00000000      0.00000000      0.00000000      0.00000000      0.00000000      0.00000000      0.00000000</v>
  </separator>
  <separator name="orbital magnetization" >
   <i type="logical" name="NUCIND"> F  </i>
   <v name="MAGPOS">      0.00000000      0.00000000      0.00000000</v>
   <i type="logical" name="LNICSALL"> T  </i>
   <i type="logical" name="ORBITALMAG"> F  </i>
   <i type="logical" name="LMAGBLOCH"> F  </i>
   <i type="logical" name="LCHIMAG"> F  </i>
   <i type="logical" name="LGAUGE"> T  </i>
   <i type="int" name="MAGATOM">     0</i>
   <v name="MAGDIPOL">      0.00000000      0.00000000      0.00000000</v>
   <v name="AVECCONST">      0.00000000      0.00000000      0.00000000</v>
  </separator>
  <separator name="response functions" >
   <i type="logical" name="LFINITE_TEMPERATURE"> F  </i>
   <i type="logical" name="LADDER"> F  </i>
   <i type="logical" name="LRPAFORCE"> F  </i>
   <i type="logical" name="LFXC"> F  </i>
   <i type="logical" name="LHARTREE"> T  </i>
   <i type="int" name="IBSE">     0</i>
   <v type="int" name="KPOINT">    -1     0     0     0</v>
   <i type="logical" name="LTCTC"> F  </i>
   <i type="logical" name="LTCTE"> F  </i>
   <i type="logical" name="LTETE"> F  </i>
   <i type="logical" name="LTRIPLET"> F  </i>
   <i type="logical" name="LFXCEPS"> F  </i>
   <i type="logical" name="LFXHEG"> F  </i>
   <i type="int" name="NATURALO">     2</i>
   <i type="logical" name="LHOLEGF"> F  </i>
   <i type="logical" name="L2ORDER"> F  </i>
   <i type="logical" name="LDMP1"> F  </i>
   <i type="logical" name="LMP2LT"> F  </i>
   <i type="logical" name="LSMP2LT"> F  </i>
   <i type="logical" name="LGWLF"> F  </i>
   <i name="ENCUTGW">     -2.00000000</i>
   <i name="ENCUTGWSOFT">     -2.00000000</i>
   <i name="ENCUTLF">     -1.00000000</i>
   <i type="logical" name="LESF_SPLINES"> F  </i>
   <i type="int" name="LMAXMP2">    -1</i>
   <i name="SCISSOR">      0.00000000</i>
   <i type="int" name="NOMEGA">     0</i>
   <i type="int" name="NOMEGAR">     0</i>
   <i type="int" name="NBANDSGW">    -1</i>
   <i type="int" name="NBANDSO">    -1</i>
   <i type="int" name="NBANDSV">    -1</i>
   <i type="int" name="NELM">   600</i>
   <i type="int" name="NELMHF">     1</i>
   <i type="int" name="DIM">     3</i>
   <i type="int" name="IESPILON">     4</i>
   <i type="int" name="ANTIRES">     0</i>
   <i name="OMEGAMAX">    -30.00000000</i>
   <i name="OMEGAMIN">    -30.00000000</i>
   <i name="OMEGATL">   -200.00000000</i>
   <i type="int" name="OMEGAGRID">     0</i>
   <i name="CSHIFT">     -0.10000000</i>
   <i type="logical" name="LSELFENERGY"> F  </i>
   <i type="logical" name="LSPECTRAL"> F  </i>
   <i type="logical" name="LSPECTRALGW"> F  </i>
   <i type="logical" name="LSINGLES"> F  </i>
   <i type="logical" name="LFERMIGW"> F  </i>
   <i type="logical" name="ODDONLYGW"> F  </i>
   <i type="logical" name="EVENONLYGW"> F  </i>
   <i type="int" name="NKREDLFX">     1</i>
   <i type="int" name="NKREDLFY">     1</i>
   <i type="int" name="NKREDLFZ">     1</i>
   <i type="int" name="MAXMEM">  2800</i>
   <i type="int" name="TELESCOPE">     0</i>
   <i type="int" name="NTAUPAR">    -1</i>
   <i type="int" name="NOMEGAPAR">    -1</i>
   <i name="DAMP_NEWTON">      0.80000001</i>
   <i name="LAMBDA">      1.00000000</i>
  </separator>
  <separator name="External order field" >
   <i name="OFIELD_KAPPA">      0.00000000</i>
   <v name="OFIELD_K">      0.00000000      0.00000000      0.00000000</v>
   <i name="OFIELD_Q6_NEAR">      0.00000000</i>
   <i name="OFIELD_Q6_FAR">      0.00000000</i>
   <i name="OFIELD_A">      0.00000000</i>
  </separator>
 </parameters>
 <atominfo>
  <atoms>     325 </atoms>
  <types>       5 </types>
  <array name="atoms" >
   <dimension dim="1">ion</dimension>
   <field type="string">element</field>
   <field type="int">atomtype</field>
   <set>
    <rc><c>H </c><c>   1</c></rc>
    <rc><c>H </c><c>   1</c></rc>
    <rc><c>H </c><c>   1</c></rc>
    <rc><c>H </c><c>   1</c></rc>
    <rc><c>H </c><c>   1</c></rc>
    <rc><c>H </c><c>   1</c></rc>
    <rc><c>H </c><c>   1</c></rc>
    <rc><c>H </c><c>   1</c></rc>
    <rc><c>H </c><c>   1</c></rc>
    <rc><c>H </c><c>   1</c></rc>
    <rc><c>H </c><c>   1</c></rc>
    <rc><c>H </c><c>   1</c></rc>
    <rc><c>H </c><c>   1</c></rc>
    <rc><c>H </c><c>   1</c></rc>
    <rc><c>H </c><c>   1</c></rc>
    <rc><c>H </c><c>   1</c></rc>
    <rc><c>H </c><c>   1</c></rc>
    <rc><c>H </c><c>   1</c></rc>
    <rc><c>H </c><c>   1</c></rc>
    <rc><c>H </c><c>   1</c></rc>
    <rc><c>H </c><c>   1</c></rc>
    <rc><c>H </c><c>   1</c></rc>
    <rc><c>H </c><c>   1</c></rc>
    <rc><c>H </c><c>   1</c></rc>
    <rc><c>H </c><c>   1</c></rc>
    <rc><c>H </c><c>   1</c></rc>
    <rc><c>H </c><c>   1</c></rc>
    <rc><c>H </c><c>   1</c></rc>
    <rc><c>H </c><c>   1</c></rc>
    <rc><c>H </c><c>   1</c></rc>
    <rc><c>H </c><c>   1</c></rc>
    <rc><c>H </c><c>   1</c></rc>
    <rc><c>H </c><c>   1</c></rc>
    <rc><c>H </c><c>   1</c></rc>
    <rc><c>H </c><c>   1</c></rc>
    <rc><c>H </c><c>   1</c></rc>
    <rc><c>H </c><c>   1</c></rc>
    <rc><c>H </c><c>   1</c></rc>
    <rc><c>H </c><c>   1</c></rc>
    <rc><c>H </c><c>   1</c></rc>
    <rc><c>H </c><c>   1</c></rc>
    <rc><c>H </c><c>   1</c></rc>
    <rc><c>H </c><c>   1</c></rc>
    <rc><c>H </c><c>   1</c></rc>
    <rc><c>H </c><c>   1</c></rc>
    <rc><c>H </c><c>   1</c></rc>
    <rc><c>H </c><c>   1</c></rc>
    <rc><c>H </c><c>   1</c></rc>
    <rc><c>H </c><c>   1</c></rc>
    <rc><c>H </c><c>   1</c></rc>
    <rc><c>H </c><c>   1</c></rc>
    <rc><c>H </c><c>   1</c></rc>
    <rc><c>H </c><c>   1</c></rc>
    <rc><c>H </c><c>   1</c></rc>
    <rc><c>H </c><c>   1</c></rc>
    <rc><c>H </c><c>   1</c></rc>
    <rc><c>H </c><c>   1</c></rc>
    <rc><c>H </c><c>   1</c></rc>
    <rc><c>H </c><c>   1</c></rc>
    <rc><c>H </c><c>   1</c></rc>
    <rc><c>H </c><c>   1</c></rc>
    <rc><c>H </c><c>   1</c></rc>
    <rc><c>H </c><c>   1</c></rc>
    <rc><c>H </c><c>   1</c></rc>
    <rc><c>H </c><c>   1</c></rc>
    <rc><c>H </c><c>   1</c></rc>
    <rc><c>H </c><c>   1</c></rc>
    <rc><c>H </c><c>   1</c></rc>
    <rc><c>H </c><c>   1</c></rc>
    <rc><c>H </c><c>   1</c></rc>
    <rc><c>H </c><c>   1</c></rc>
    <rc><c>H </c><c>   1</c></rc>
    <rc><c>H </c><c>   1</c></rc>
    <rc><c>H </c><c>   1</c></rc>
    <rc><c>H </c><c>   1</c></rc>
    <rc><c>H </c><c>   1</c></rc>
    <rc><c>H </c><c>   1</c></rc>
    <rc><c>H </c><c>   1</c></rc>
    <rc><c>H </c><c>   1</c></rc>
    <rc><c>H </c><c>   1</c></rc>
    <rc><c>H </c><c>   1</c></rc>
    <rc><c>H </c><c>   1</c></rc>
    <rc><c>H </c><c>   1</c></rc>
    <rc><c>H </c><c>   1</c></rc>
    <rc><c>H </c><c>   1</c></rc>
    <rc><c>H </c><c>   1</c></rc>
    <rc><c>H </c><c>   1</c></rc>
    <rc><c>H </c><c>   1</c></rc>
    <rc><c>H </c><c>   1</c></rc>
    <rc><c>H </c><c>   1</c></rc>
    <rc><c>H </c><c>   1</c></rc>
    <rc><c>H </c><c>   1</c></rc>
    <rc><c>H </c><c>   1</c></rc>
    <rc><c>H </c><c>   1</c></rc>
    <rc><c>H </c><c>   1</c></rc>
    <rc><c>H </c><c>   1</c></rc>
    <rc><c>H </c><c>   1</c></rc>
    <rc><c>H </c><c>   1</c></rc>
    <rc><c>H </c><c>   1</c></rc>
    <rc><c>H </c><c>   1</c></rc>
    <rc><c>H </c><c>   1</c></rc>
    <rc><c>H </c><c>   1</c></rc>
    <rc><c>H </c><c>   1</c></rc>
    <rc><c>H </c><c>   1</c></rc>
    <rc><c>H </c><c>   1</c></rc>
    <rc><c>H </c><c>   1</c></rc>
    <rc><c>H </c><c>   1</c></rc>
    <rc><c>H </c><c>   1</c></rc>
    <rc><c>H </c><c>   1</c></rc>
    <rc><c>H </c><c>   1</c></rc>
    <rc><c>H </c><c>   1</c></rc>
    <rc><c>H </c><c>   1</c></rc>
    <rc><c>H </c><c>   1</c></rc>
    <rc><c>H </c><c>   1</c></rc>
    <rc><c>H </c><c>   1</c></rc>
    <rc><c>H </c><c>   1</c></rc>
    <rc><c>H </c><c>   1</c></rc>
    <rc><c>H </c><c>   1</c></rc>
    <rc><c>H </c><c>   1</c></rc>
    <rc><c>H </c><c>   1</c></rc>
    <rc><c>H </c><c>   1</c></rc>
    <rc><c>H </c><c>   1</c></rc>
    <rc><c>H </c><c>   1</c></rc>
    <rc><c>H </c><c>   1</c></rc>
    <rc><c>H </c><c>   1</c></rc>
    <rc><c>H </c><c>   1</c></rc>
    <rc><c>H </c><c>   1</c></rc>
    <rc><c>H </c><c>   1</c></rc>
    <rc><c>H </c><c>   1</c></rc>
    <rc><c>H </c><c>   1</c></rc>
    <rc><c>H </c><c>   1</c></rc>
    <rc><c>H </c><c>   1</c></rc>
    <rc><c>H </c><c>   1</c></rc>
    <rc><c>H </c><c>   1</c></rc>
    <rc><c>H </c><c>   1</c></rc>
    <rc><c>H </c><c>   1</c></rc>
    <rc><c>H </c><c>   1</c></rc>
    <rc><c>H </c><c>   1</c></rc>
    <rc><c>H </c><c>   1</c></rc>
    <rc><c>H </c><c>   1</c></rc>
    <rc><c>H </c><c>   1</c></rc>
    <rc><c>H </c><c>   1</c></rc>
    <rc><c>H </c><c>   1</c></rc>
    <rc><c>C </c><c>   2</c></rc>
    <rc><c>C </c><c>   2</c></rc>
    <rc><c>C </c><c>   2</c></rc>
    <rc><c>C </c><c>   2</c></rc>
    <rc><c>C </c><c>   2</c></rc>
    <rc><c>C </c><c>   2</c></rc>
    <rc><c>C </c><c>   2</c></rc>
    <rc><c>C </c><c>   2</c></rc>
    <rc><c>C </c><c>   2</c></rc>
    <rc><c>C </c><c>   2</c></rc>
    <rc><c>C </c><c>   2</c></rc>
    <rc><c>C </c><c>   2</c></rc>
    <rc><c>C </c><c>   2</c></rc>
    <rc><c>C </c><c>   2</c></rc>
    <rc><c>C </c><c>   2</c></rc>
    <rc><c>C </c><c>   2</c></rc>
    <rc><c>C </c><c>   2</c></rc>
    <rc><c>C </c><c>   2</c></rc>
    <rc><c>C </c><c>   2</c></rc>
    <rc><c>C </c><c>   2</c></rc>
    <rc><c>C </c><c>   2</c></rc>
    <rc><c>C </c><c>   2</c></rc>
    <rc><c>C </c><c>   2</c></rc>
    <rc><c>C </c><c>   2</c></rc>
    <rc><c>C </c><c>   2</c></rc>
    <rc><c>C </c><c>   2</c></rc>
    <rc><c>C </c><c>   2</c></rc>
    <rc><c>C </c><c>   2</c></rc>
    <rc><c>C </c><c>   2</c></rc>
    <rc><c>C </c><c>   2</c></rc>
    <rc><c>C </c><c>   2</c></rc>
    <rc><c>C </c><c>   2</c></rc>
    <rc><c>C </c><c>   2</c></rc>
    <rc><c>C </c><c>   2</c></rc>
    <rc><c>C </c><c>   2</c></rc>
    <rc><c>C </c><c>   2</c></rc>
    <rc><c>C </c><c>   2</c></rc>
    <rc><c>C </c><c>   2</c></rc>
    <rc><c>C </c><c>   2</c></rc>
    <rc><c>N </c><c>   3</c></rc>
    <rc><c>N </c><c>   3</c></rc>
    <rc><c>N </c><c>   3</c></rc>
    <rc><c>N </c><c>   3</c></rc>
    <rc><c>N </c><c>   3</c></rc>
    <rc><c>N </c><c>   3</c></rc>
    <rc><c>N </c><c>   3</c></rc>
    <rc><c>N </c><c>   3</c></rc>
    <rc><c>N </c><c>   3</c></rc>
    <rc><c>N </c><c>   3</c></rc>
    <rc><c>N </c><c>   3</c></rc>
    <rc><c>N </c><c>   3</c></rc>
    <rc><c>N </c><c>   3</c></rc>
    <rc><c>N </c><c>   3</c></rc>
    <rc><c>N </c><c>   3</c></rc>
    <rc><c>N </c><c>   3</c></rc>
    <rc><c>N </c><c>   3</c></rc>
    <rc><c>N </c><c>   3</c></rc>
    <rc><c>N </c><c>   3</c></rc>
    <rc><c>N </c><c>   3</c></rc>
    <rc><c>N </c><c>   3</c></rc>
    <rc><c>N </c><c>   3</c></rc>
    <rc><c>N </c><c>   3</c></rc>
    <rc><c>N </c><c>   3</c></rc>
    <rc><c>N </c><c>   3</c></rc>
    <rc><c>N </c><c>   3</c></rc>
    <rc><c>N </c><c>   3</c></rc>
    <rc><c>N </c><c>   3</c></rc>
    <rc><c>N </c><c>   3</c></rc>
    <rc><c>N </c><c>   3</c></rc>
    <rc><c>N </c><c>   3</c></rc>
    <rc><c>N </c><c>   3</c></rc>
    <rc><c>N </c><c>   3</c></rc>
    <rc><c>N </c><c>   3</c></rc>
    <rc><c>N </c><c>   3</c></rc>
    <rc><c>N </c><c>   3</c></rc>
    <rc><c>N </c><c>   3</c></rc>
    <rc><c>N </c><c>   3</c></rc>
    <rc><c>N </c><c>   3</c></rc>
    <rc><c>N </c><c>   3</c></rc>
    <rc><c>N </c><c>   3</c></rc>
    <rc><c>N </c><c>   3</c></rc>
    <rc><c>N </c><c>   3</c></rc>
    <rc><c>N </c><c>   3</c></rc>
    <rc><c>N </c><c>   3</c></rc>
    <rc><c>N </c><c>   3</c></rc>
    <rc><c>N </c><c>   3</c></rc>
    <rc><c>I </c><c>   4</c></rc>
    <rc><c>I </c><c>   4</c></rc>
    <rc><c>I </c><c>   4</c></rc>
    <rc><c>I </c><c>   4</c></rc>
    <rc><c>I </c><c>   4</c></rc>
    <rc><c>I </c><c>   4</c></rc>
    <rc><c>I </c><c>   4</c></rc>
    <rc><c>I </c><c>   4</c></rc>
    <rc><c>I </c><c>   4</c></rc>
    <rc><c>I </c><c>   4</c></rc>
    <rc><c>I </c><c>   4</c></rc>
    <rc><c>I </c><c>   4</c></rc>
    <rc><c>I </c><c>   4</c></rc>
    <rc><c>I </c><c>   4</c></rc>
    <rc><c>I </c><c>   4</c></rc>
    <rc><c>I </c><c>   4</c></rc>
    <rc><c>I </c><c>   4</c></rc>
    <rc><c>I </c><c>   4</c></rc>
    <rc><c>I </c><c>   4</c></rc>
    <rc><c>I </c><c>   4</c></rc>
    <rc><c>I </c><c>   4</c></rc>
    <rc><c>I </c><c>   4</c></rc>
    <rc><c>I </c><c>   4</c></rc>
    <rc><c>I </c><c>   4</c></rc>
    <rc><c>I </c><c>   4</c></rc>
    <rc><c>I </c><c>   4</c></rc>
    <rc><c>I </c><c>   4</c></rc>
    <rc><c>I </c><c>   4</c></rc>
    <rc><c>I </c><c>   4</c></rc>
    <rc><c>I </c><c>   4</c></rc>
    <rc><c>I </c><c>   4</c></rc>
    <rc><c>I </c><c>   4</c></rc>
    <rc><c>I </c><c>   4</c></rc>
    <rc><c>I </c><c>   4</c></rc>
    <rc><c>I </c><c>   4</c></rc>
    <rc><c>I </c><c>   4</c></rc>
    <rc><c>I </c><c>   4</c></rc>
    <rc><c>I </c><c>   4</c></rc>
    <rc><c>I </c><c>   4</c></rc>
    <rc><c>I </c><c>   4</c></rc>
    <rc><c>I </c><c>   4</c></rc>
    <rc><c>I </c><c>   4</c></rc>
    <rc><c>I </c><c>   4</c></rc>
    <rc><c>I </c><c>   4</c></rc>
    <rc><c>I </c><c>   4</c></rc>
    <rc><c>I </c><c>   4</c></rc>
    <rc><c>I </c><c>   4</c></rc>
    <rc><c>I </c><c>   4</c></rc>
    <rc><c>I </c><c>   4</c></rc>
    <rc><c>I </c><c>   4</c></rc>
    <rc><c>I </c><c>   4</c></rc>
    <rc><c>I </c><c>   4</c></rc>
    <rc><c>I </c><c>   4</c></rc>
    <rc><c>I </c><c>   4</c></rc>
    <rc><c>I </c><c>   4</c></rc>
    <rc><c>I </c><c>   4</c></rc>
    <rc><c>I </c><c>   4</c></rc>
    <rc><c>I </c><c>   4</c></rc>
    <rc><c>I </c><c>   4</c></rc>
    <rc><c>I </c><c>   4</c></rc>
    <rc><c>I </c><c>   4</c></rc>
    <rc><c>I </c><c>   4</c></rc>
    <rc><c>I </c><c>   4</c></rc>
    <rc><c>I </c><c>   4</c></rc>
    <rc><c>I </c><c>   4</c></rc>
    <rc><c>I </c><c>   4</c></rc>
    <rc><c>I </c><c>   4</c></rc>
    <rc><c>I </c><c>   4</c></rc>
    <rc><c>I </c><c>   4</c></rc>
    <rc><c>I </c><c>   4</c></rc>
    <rc><c>I </c><c>   4</c></rc>
    <rc><c>I </c><c>   4</c></rc>
    <rc><c>Pb</c><c>   5</c></rc>
    <rc><c>Pb</c><c>   5</c></rc>
    <rc><c>Pb</c><c>   5</c></rc>
    <rc><c>Pb</c><c>   5</c></rc>
    <rc><c>Pb</c><c>   5</c></rc>
    <rc><c>Pb</c><c>   5</c></rc>
    <rc><c>Pb</c><c>   5</c></rc>
    <rc><c>Pb</c><c>   5</c></rc>
    <rc><c>Pb</c><c>   5</c></rc>
    <rc><c>Pb</c><c>   5</c></rc>
    <rc><c>Pb</c><c>   5</c></rc>
    <rc><c>Pb</c><c>   5</c></rc>
    <rc><c>Pb</c><c>   5</c></rc>
    <rc><c>Pb</c><c>   5</c></rc>
    <rc><c>Pb</c><c>   5</c></rc>
    <rc><c>Pb</c><c>   5</c></rc>
    <rc><c>Pb</c><c>   5</c></rc>
    <rc><c>Pb</c><c>   5</c></rc>
    <rc><c>Pb</c><c>   5</c></rc>
    <rc><c>Pb</c><c>   5</c></rc>
    <rc><c>Pb</c><c>   5</c></rc>
    <rc><c>Pb</c><c>   5</c></rc>
    <rc><c>Pb</c><c>   5</c></rc>
    <rc><c>Pb</c><c>   5</c></rc>
   </set>
  </array>
  <array name="atomtypes" >
   <dimension dim="1">type</dimension>
   <field type="int">atomspertype</field>
   <field type="string">element</field>
   <field>mass</field>
   <field>valence</field>
   <field type="string">pseudopotential</field>
   <set>
    <rc><c> 143</c><c>H </c><c>      1.00000000</c><c>      1.00000000</c><c>  PAW_PBE H 15Jun2001                   </c></rc>
    <rc><c>  39</c><c>C </c><c>     12.01100000</c><c>      4.00000000</c><c>  PAW_PBE C 08Apr2002                   </c></rc>
    <rc><c>  47</c><c>N </c><c>     14.00100000</c><c>      5.00000000</c><c>  PAW_PBE N 08Apr2002                   </c></rc>
    <rc><c>  72</c><c>I </c><c>    126.90400000</c><c>      7.00000000</c><c>  PAW_PBE I 08Apr2002                   </c></rc>
    <rc><c>  24</c><c>Pb</c><c>    207.20000000</c><c>      4.00000000</c><c>  PAW_PBE Pb 08Apr2002                  </c></rc>
   </set>
  </array>
 </atominfo>
 <structure name="initialpos" >
  <crystal>
   <varray name="basis" >
    <v>      18.06080055       0.00000000       0.00000000 </v>
    <v>      -0.00491865      18.06279945       0.00000000 </v>
    <v>       0.00000000       0.00000000      62.48749924 </v>
   </varray>
   <i name="volume">  20385.21054034 </i>
   <varray name="rec_basis" >
    <v>       0.05536853       0.00001508      -0.00000000 </v>
    <v>       0.00000000       0.05536240       0.00000000 </v>
    <v>       0.00000000      -0.00000000       0.01600320 </v>
   </varray>
  </crystal>
  <varray name="positions" >
   <v>       0.47345655       0.33307117       0.57056261 </v>
   <v>       0.45030619       0.83712880       0.57343488 </v>
   <v>       0.92280843       0.24403484       0.58068102 </v>
   <v>       0.94221350       0.81516902       0.57561397 </v>
   <v>       0.31810675       0.07317598       0.57016592 </v>
   <v>       0.33925009       0.56529238       0.56868033 </v>
   <v>       0.79671935       0.08886688       0.57303252 </v>
   <v>       0.10467759       0.24680907       0.55733999 </v>
   <v>       0.08516932       0.67453738       0.57340265 </v>
   <v>       0.55073981       0.15273342       0.55970875 </v>
   <v>       0.49584380       0.64535377       0.56197660 </v>
   <v>       0.36781362       0.00856163       0.55575795 </v>
   <v>       0.28421964       0.63349603       0.55665510 </v>
   <v>       0.86901395       0.03338351       0.56348789 </v>
   <v>       0.05778572       0.24605253       0.58150126 </v>
   <v>       0.00282898       0.69481772       0.58671934 </v>
   <v>       0.57415520       0.23988351       0.57047641 </v>
   <v>       0.45280896       0.70116875       0.58064281 </v>
   <v>       0.28233453       0.44086961       0.57382949 </v>
   <v>       0.18181517       0.05853145       0.57151604 </v>
   <v>       0.67062478       0.02966031       0.57302794 </v>
   <v>       0.38843286       0.30467044       0.55985404 </v>
   <v>       0.50321189       0.86903894       0.55237953 </v>
   <v>       0.87839177       0.23627030       0.55612692 </v>
   <v>       0.98730216       0.86681489       0.55626080 </v>
   <v>       0.19450147       0.42948468       0.56358727 </v>
   <v>       0.14210967       0.98799177       0.55693177 </v>
   <v>       0.66757620       0.93941726       0.56312557 </v>
   <v>       0.43131193       0.18874506       0.55136058 </v>
   <v>       0.53977371       0.74828415       0.54236275 </v>
   <v>       0.99338564       0.24011125       0.53740088 </v>
   <v>       0.08253459       0.77830303       0.55239027 </v>
   <v>       0.18569573       0.55020238       0.55174665 </v>
   <v>       0.25951141       0.94264722       0.54610514 </v>
   <v>       0.79144883       0.93494365       0.55588554 </v>
   <v>       0.46369834       0.30879718       0.67367802 </v>
   <v>       0.44081875       0.80788864       0.67233308 </v>
   <v>       0.94764310       0.27672617       0.67580747 </v>
   <v>       0.92307432       0.74050531       0.67313494 </v>
   <v>       0.30831580       0.04919228       0.67188329 </v>
   <v>       0.29462931       0.55079942       0.67603414 </v>
   <v>       0.79303258       0.05269487       0.67481002 </v>
   <v>       0.84441093       0.47333088       0.66441213 </v>
   <v>       0.09231641       0.17384899       0.64790327 </v>
   <v>       0.10735300       0.71051738       0.65208379 </v>
   <v>       0.58031397       0.16803885       0.64843615 </v>
   <v>       0.57471154       0.66974541       0.65283022 </v>
   <v>       0.18593573       0.40876876       0.64797653 </v>
   <v>       0.16889296       0.92651153       0.64751794 </v>
   <v>       0.64475698       0.47683073       0.65962693 </v>
   <v>       0.67971298       0.91281491       0.64759877 </v>
   <v>       0.05730207       0.18364265       0.67345141 </v>
   <v>       0.04756825       0.67593013       0.67115743 </v>
   <v>       0.56391897       0.20869200       0.67341106 </v>
   <v>       0.53747468       0.70170581       0.67687391 </v>
   <v>       0.20377050       0.43802249       0.67389724 </v>
   <v>       0.19906437       0.95295063       0.67278038 </v>
   <v>       0.71585172       0.42348660       0.66975298 </v>
   <v>       0.69943702       0.94271131       0.67344811 </v>
   <v>       0.42158000       0.32448336       0.64926341 </v>
   <v>       0.42371631       0.83183467       0.64597619 </v>
   <v>       0.92540438       0.31986863       0.65155580 </v>
   <v>       0.90987710       0.81343504       0.65520844 </v>
   <v>       0.33635571       0.07252058       0.64638185 </v>
   <v>       0.32182811       0.58478218       0.65121356 </v>
   <v>       0.82438913       0.08218586       0.65008803 </v>
   <v>       0.85266044       0.55402314       0.64923361 </v>
   <v>       0.01431202       0.25852266       0.63240713 </v>
   <v>       0.02664794       0.80069923       0.64024109 </v>
   <v>       0.49196465       0.23935123       0.63112550 </v>
   <v>       0.50604845       0.74788263       0.63176088 </v>
   <v>       0.25293916       0.99808056       0.62920007 </v>
   <v>       0.25704226       0.49746159       0.63193737 </v>
   <v>       0.75663559       0.99633318       0.63108100 </v>
   <v>       0.72518811       0.56341363       0.64415887 </v>
   <v>       0.44874502       0.30128397       0.76888902 </v>
   <v>       0.44874501       0.80128391       0.76888902 </v>
   <v>       0.94874497       0.30128397       0.76888902 </v>
   <v>       0.94874501       0.80128391       0.76888902 </v>
   <v>       0.30127600       0.05129450       0.76887296 </v>
   <v>       0.30127601       0.55129450       0.76887296 </v>
   <v>       0.80127594       0.05129450       0.76887296 </v>
   <v>       0.80127598       0.55129450       0.76887296 </v>
   <v>       0.07877100       0.17118050       0.74344197 </v>
   <v>       0.07877101       0.67118045       0.74344197 </v>
   <v>       0.57877100       0.17118050       0.74344197 </v>
   <v>       0.57877099       0.67118045       0.74344197 </v>
   <v>       0.17119950       0.42117448       0.74342103 </v>
   <v>       0.17119950       0.92117451       0.74342103 </v>
   <v>       0.67119951       0.42117448       0.74342103 </v>
   <v>       0.67119950       0.92117451       0.74342103 </v>
   <v>       0.05125600       0.19871499       0.76888902 </v>
   <v>       0.05125600       0.69871493       0.76888902 </v>
   <v>       0.55125603       0.19871499       0.76888902 </v>
   <v>       0.55125602       0.69871493       0.76888902 </v>
   <v>       0.19872349       0.44870397       0.76887205 </v>
   <v>       0.19872349       0.94870397       0.76887205 </v>
   <v>       0.69872352       0.44870397       0.76887205 </v>
   <v>       0.69872351       0.94870397       0.76887205 </v>
   <v>       0.42123152       0.32881747       0.74344197 </v>
   <v>       0.42123151       0.82881744       0.74344197 </v>
   <v>       0.92123147       0.32881747       0.74344197 </v>
   <v>       0.92123151       0.82881744       0.74344197 </v>
   <v>       0.32880050       0.07882500       0.74342103 </v>
   <v>       0.32880049       0.57882496       0.74342103 </v>
   <v>       0.82880048       0.07882500       0.74342103 </v>
   <v>       0.82880052       0.57882496       0.74342103 </v>
   <v>       0.00000350       0.25000148       0.72582199 </v>
   <v>       0.00000350       0.75000145       0.72582199 </v>
   <v>       0.50000351       0.25000148       0.72582199 </v>
   <v>       0.50000350       0.75000145       0.72582199 </v>
   <v>       0.25000050       0.00000000       0.72580398 </v>
   <v>       0.25000052       0.50000000       0.72580398 </v>
   <v>       0.75000050       0.00000000       0.72580398 </v>
   <v>       0.75000049       0.50000000       0.72580398 </v>
   <v>       0.71912512       0.44095152       0.54150900 </v>
   <v>       0.73733759       0.49273525       0.51854231 </v>
   <v>       0.65978149       0.55302589       0.55896599 </v>
   <v>       0.70752281       0.63835865       0.55646561 </v>
   <v>       0.84862373       0.50676407       0.56933690 </v>
   <v>       0.78920605       0.57557057       0.57916858 </v>
   <v>       0.86866719       0.56212959       0.53002990 </v>
   <v>       0.79569064       0.62460110       0.52400911 </v>
   <v>       0.86949126       0.46291151       0.51856252 </v>
   <v>       0.86263347       0.42362870       0.54415077 </v>
   <v>       0.87056092       0.32571798       0.51845318 </v>
   <v>       0.78261985       0.32190744       0.53007801 </v>
   <v>       0.63484858       0.55099434       0.51961345 </v>
   <v>       0.68725786       0.63462744       0.51616867 </v>
   <v>       0.60603503       0.63293458       0.53181218 </v>
   <v>       0.75406650       0.46616850       0.59731655 </v>
   <v>       0.75538352       0.40955355       0.57421831 </v>
   <v>       0.68368146       0.47617314       0.57774745 </v>
   <v>       0.81723365       0.69015626       0.55897246 </v>
   <v>       0.90146189       0.68428294       0.54419649 </v>
   <v>       0.88703854       0.62433500       0.56609119 </v>
   <v>       0.81988104       0.38121908       0.48522950 </v>
   <v>       0.78307506       0.29278269       0.49149409 </v>
   <v>       0.66252939       0.30973197       0.52023705 </v>
   <v>       0.72983059       0.46082601       0.47024777 </v>
   <v>       0.53659059       0.36394568       0.51972077 </v>
   <v>       0.60248342       0.51333216       0.46946365 </v>
   <v>       0.50559616       0.46567611       0.49452155 </v>
   <v>       0.99126817       0.24227728       0.55486989 </v>
   <v>       0.03566017       0.76909437       0.56325182 </v>
   <v>       0.46978929       0.22839077       0.55845710 </v>
   <v>       0.50351666       0.75712138       0.55612625 </v>
   <v>       0.23732898       0.53168390       0.55898564 </v>
   <v>       0.25550052       0.99330839       0.55549935 </v>
   <v>       0.76840588       0.98569522       0.56246315 </v>
   <v>       0.00856328       0.24747028       0.64932952 </v>
   <v>       0.00912117       0.76366581       0.65306940 </v>
   <v>       0.50098305       0.24666720       0.64811199 </v>
   <v>       0.49902014       0.75062066       0.64899132 </v>
   <v>       0.25456367       0.49621562       0.64925364 </v>
   <v>       0.25291124       0.99970373       0.64654777 </v>
   <v>       0.74737619       0.51759901       0.65341408 </v>
   <v>       0.75255388       0.99750145       0.64839604 </v>
   <v>       0.49998898       0.24999498       0.74327702 </v>
   <v>       0.49998903       0.74999496       0.74327702 </v>
   <v>       0.99998898       0.24999498       0.74327702 </v>
   <v>       0.99998903       0.74999496       0.74327702 </v>
   <v>       0.25000050       0.00000100       0.74325596 </v>
   <v>       0.25000052       0.50000100       0.74325596 </v>
   <v>       0.75000050       0.00000100       0.74325596 </v>
   <v>       0.75000049       0.50000100       0.74325596 </v>
   <v>       0.70539214       0.38164371       0.49528861 </v>
   <v>       0.64963063       0.35426456       0.50903983 </v>
   <v>       0.68688410       0.43857061       0.48103960 </v>
   <v>       0.57884754       0.38378217       0.50864486 </v>
   <v>       0.61499931       0.46802972       0.48061297 </v>
   <v>       0.56168611       0.44148763       0.49449417 </v>
   <v>       0.76131918       0.47494110       0.53356387 </v>
   <v>       0.69526039       0.58576469       0.54837580 </v>
   <v>       0.79084414       0.52423610       0.56987002 </v>
   <v>       0.82568986       0.59684910       0.53707654 </v>
   <v>       0.83212238       0.43141732       0.52914154 </v>
   <v>       0.81729423       0.35518778       0.51931316 </v>
   <v>       0.65536390       0.60097038       0.52748056 </v>
   <v>       0.74267551       0.46540631       0.58007714 </v>
   <v>       0.85910178       0.65173643       0.55267445 </v>
   <v>       0.78330910       0.35159659       0.49669465 </v>
   <v>       0.05463129       0.24274224       0.56517188 </v>
   <v>       0.04043849       0.70905768       0.57503005 </v>
   <v>       0.53802964       0.20725655       0.56203496 </v>
   <v>       0.48482573       0.69855321       0.56718125 </v>
   <v>       0.44348631       0.29487134       0.56236895 </v>
   <v>       0.48266658       0.82452763       0.56034352 </v>
   <v>       0.92669611       0.24467870       0.56432253 </v>
   <v>       0.98055294       0.81650195       0.56369490 </v>
   <v>       0.23936814       0.46223528       0.56533176 </v>
   <v>       0.18930061       0.01589329       0.56113824 </v>
   <v>       0.69647300       0.98694826       0.56548731 </v>
   <v>       0.31689660       0.02849205       0.56019444 </v>
   <v>       0.29199842       0.57889450       0.56089862 </v>
   <v>       0.81366869       0.04011313       0.56682761 </v>
   <v>       0.05473574       0.19872288       0.65758953 </v>
   <v>       0.05719745       0.71284322       0.65916633 </v>
   <v>       0.55216240       0.20548803       0.65744528 </v>
   <v>       0.53887851       0.70478724       0.66043880 </v>
   <v>       0.21346370       0.44428285       0.65786681 </v>
   <v>       0.20368400       0.95756164       0.65643946 </v>
   <v>       0.70057294       0.46859909       0.66102931 </v>
   <v>       0.70824070       0.94799584       0.65723912 </v>
   <v>       0.46043882       0.29618653       0.65767799 </v>
   <v>       0.45212580       0.79912940       0.65642432 </v>
   <v>       0.95693805       0.28370949       0.65988894 </v>
   <v>       0.94360863       0.77410329       0.66142245 </v>
   <v>       0.30149212       0.04226108       0.65566337 </v>
   <v>       0.29235208       0.54597782       0.65971410 </v>
   <v>       0.79171321       0.04661768       0.65851422 </v>
   <v>       0.81902504       0.51498853       0.65598619 </v>
   <v>       0.04586250       0.20411950       0.75272599 </v>
   <v>       0.04586250       0.70411946       0.75272599 </v>
   <v>       0.54586251       0.20411950       0.75272599 </v>
   <v>       0.54586250       0.70411946       0.75272599 </v>
   <v>       0.20411900       0.45410100       0.75270499 </v>
   <v>       0.20411899       0.95410095       0.75270499 </v>
   <v>       0.70411898       0.45410100       0.75270499 </v>
   <v>       0.70411896       0.95410095       0.75270499 </v>
   <v>       0.45414002       0.29588849       0.75272697 </v>
   <v>       0.45414001       0.79588852       0.75272697 </v>
   <v>       0.95414002       0.29588849       0.75272697 </v>
[...]
   <v>       0.55073981       0.15273342       0.55970875 </v>
   <v>       0.49584380       0.64535377       0.56197660 </v>
   <v>       0.36781362       0.00856163       0.55575795 </v>
   <v>       0.28421964       0.63349603       0.55665510 </v>
   <v>       0.86901395       0.03338351       0.56348789 </v>
   <v>       0.05778572       0.24605253       0.58150126 </v>
   <v>       0.00282898       0.69481772       0.58671934 </v>
   <v>       0.57415520       0.23988351       0.57047641 </v>
   <v>       0.45280896       0.70116875       0.58064281 </v>
   <v>       0.28233453       0.44086961       0.57382949 </v>
   <v>       0.18181517       0.05853145       0.57151604 </v>
   <v>       0.67062478       0.02966031       0.57302794 </v>
   <v>       0.38843286       0.30467044       0.55985404 </v>
   <v>       0.50321189       0.86903894       0.55237953 </v>
   <v>       0.87839177       0.23627030       0.55612692 </v>
   <v>       0.98730216       0.86681489       0.55626080 </v>
   <v>       0.19450147       0.42948468       0.56358727 </v>
   <v>       0.14210967       0.98799177       0.55693177 </v>
   <v>       0.66757620       0.93941726       0.56312557 </v>
   <v>       0.43131193       0.18874506       0.55136058 </v>
   <v>       0.53977371       0.74828415       0.54236275 </v>
   <v>       0.99338564       0.24011125       0.53740088 </v>
   <v>       0.08253459       0.77830303       0.55239027 </v>
   <v>       0.18569573       0.55020238       0.55174665 </v>
   <v>       0.25951141       0.94264722       0.54610514 </v>
   <v>       0.79144883       0.93494365       0.55588554 </v>
   <v>       0.46369834       0.30879718       0.67367802 </v>
   <v>       0.44081875       0.80788864       0.67233308 </v>
   <v>       0.94764310       0.27672617       0.67580747 </v>
   <v>       0.92307432       0.74050531       0.67313494 </v>
   <v>       0.30831580       0.04919228       0.67188329 </v>
   <v>       0.29462931       0.55079942       0.67603414 </v>
   <v>       0.79303258       0.05269487       0.67481002 </v>
   <v>       0.84441093       0.47333088       0.66441213 </v>
   <v>       0.09231641       0.17384899       0.64790327 </v>
   <v>       0.10735300       0.71051738       0.65208379 </v>
   <v>       0.58031397       0.16803885       0.64843615 </v>
   <v>       0.57471154       0.66974541       0.65283022 </v>
   <v>       0.18593573       0.40876876       0.64797653 </v>
   <v>       0.16889296       0.92651153       0.64751794 </v>
   <v>       0.64475698       0.47683073       0.65962693 </v>
   <v>       0.67971298       0.91281491       0.64759877 </v>
   <v>       0.05730207       0.18364265       0.67345141 </v>
   <v>       0.04756825       0.67593013       0.67115743 </v>
   <v>       0.56391897       0.20869200       0.67341106 </v>
   <v>       0.53747468       0.70170581       0.67687391 </v>
   <v>       0.20377050       0.43802249       0.67389724 </v>
   <v>       0.19906437       0.95295063       0.67278038 </v>
   <v>       0.71585172       0.42348660       0.66975298 </v>
   <v>       0.69943702       0.94271131       0.67344811 </v>
   <v>       0.42158000       0.32448336       0.64926341 </v>
   <v>       0.42371631       0.83183467       0.64597619 </v>
   <v>       0.92540438       0.31986863       0.65155580 </v>
   <v>       0.90987710       0.81343504       0.65520844 </v>
   <v>       0.33635571       0.07252058       0.64638185 </v>
   <v>       0.32182811       0.58478218       0.65121356 </v>
   <v>       0.82438913       0.08218586       0.65008803 </v>
   <v>       0.85266044       0.55402314       0.64923361 </v>
   <v>       0.01431202       0.25852266       0.63240713 </v>
   <v>       0.02664794       0.80069923       0.64024109 </v>
   <v>       0.49196465       0.23935123       0.63112550 </v>
   <v>       0.50604845       0.74788263       0.63176088 </v>
   <v>       0.25293916       0.99808056       0.62920007 </v>
   <v>       0.25704226       0.49746159       0.63193737 </v>
   <v>       0.75663559       0.99633318       0.63108100 </v>
   <v>       0.72518811       0.56341363       0.64415887 </v>
   <v>       0.44874502       0.30128397       0.76888902 </v>
   <v>       0.44874501       0.80128391       0.76888902 </v>
   <v>       0.94874497       0.30128397       0.76888902 </v>
   <v>       0.94874501       0.80128391       0.76888902 </v>
   <v>       0.30127600       0.05129450       0.76887296 </v>
   <v>       0.30127601       0.55129450       0.76887296 </v>
   <v>       0.80127594       0.05129450       0.76887296 </v>
   <v>       0.80127598       0.55129450       0.76887296 </v>
   <v>       0.07877100       0.17118050       0.74344197 </v>
   <v>       0.07877101       0.67118045       0.74344197 </v>
   <v>       0.57877100       0.17118050       0.74344197 </v>
   <v>       0.57877099       0.67118045       0.74344197 </v>
   <v>       0.17119950       0.42117448       0.74342103 </v>
   <v>       0.17119950       0.92117451       0.74342103 </v>
   <v>       0.67119951       0.42117448       0.74342103 </v>
   <v>       0.67119950       0.92117451       0.74342103 </v>
   <v>       0.05125600       0.19871499       0.76888902 </v>
   <v>       0.05125600       0.69871493       0.76888902 </v>
   <v>       0.55125603       0.19871499       0.76888902 </v>
   <v>       0.55125602       0.69871493       0.76888902 </v>
   <v>       0.19872349       0.44870397       0.76887205 </v>
   <v>       0.19872349       0.94870397       0.76887205 </v>
   <v>       0.69872352       0.44870397       0.76887205 </v>
   <v>       0.69872351       0.94870397       0.76887205 </v>
   <v>       0.42123152       0.32881747       0.74344197 </v>
   <v>       0.42123151       0.82881744       0.74344197 </v>
   <v>       0.92123147       0.32881747       0.74344197 </v>
   <v>       0.92123151       0.82881744       0.74344197 </v>
   <v>       0.32880050       0.07882500       0.74342103 </v>
   <v>       0.32880049       0.57882496       0.74342103 </v>
   <v>       0.82880048       0.07882500       0.74342103 </v>
   <v>       0.82880052       0.57882496       0.74342103 </v>
   <v>       0.00000350       0.25000148       0.72582199 </v>
   <v>       0.00000350       0.75000145       0.72582199 </v>
   <v>       0.50000351       0.25000148       0.72582199 </v>
   <v>       0.50000350       0.75000145       0.72582199 </v>
   <v>       0.25000050       0.00000000       0.72580398 </v>
   <v>       0.25000052       0.50000000       0.72580398 </v>
   <v>       0.75000050       0.00000000       0.72580398 </v>
   <v>       0.75000049       0.50000000       0.72580398 </v>
   <v>       0.71912512       0.44095152       0.54150900 </v>
   <v>       0.73733759       0.49273525       0.51854231 </v>
   <v>       0.65978149       0.55302589       0.55896599 </v>
   <v>       0.70752281       0.63835865       0.55646561 </v>
   <v>       0.84862373       0.50676407       0.56933690 </v>
   <v>       0.78920605       0.57557057       0.57916858 </v>
   <v>       0.86866719       0.56212959       0.53002990 </v>
   <v>       0.79569064       0.62460110       0.52400911 </v>
   <v>       0.86949126       0.46291151       0.51856252 </v>
   <v>       0.86263347       0.42362870       0.54415077 </v>
   <v>       0.87056092       0.32571798       0.51845318 </v>
   <v>       0.78261985       0.32190744       0.53007801 </v>
   <v>       0.63484858       0.55099434       0.51961345 </v>
   <v>       0.68725786       0.63462744       0.51616867 </v>
   <v>       0.60603503       0.63293458       0.53181218 </v>
   <v>       0.75406650       0.46616850       0.59731655 </v>
   <v>       0.75538352       0.40955355       0.57421831 </v>
   <v>       0.68368146       0.47617314       0.57774745 </v>
   <v>       0.81723365       0.69015626       0.55897246 </v>
   <v>       0.90146189       0.68428294       0.54419649 </v>
   <v>       0.88703854       0.62433500       0.56609119 </v>
   <v>       0.81988104       0.38121908       0.48522950 </v>
   <v>       0.78307506       0.29278269       0.49149409 </v>
   <v>       0.66252939       0.30973197       0.52023705 </v>
   <v>       0.72983059       0.46082601       0.47024777 </v>
   <v>       0.53659059       0.36394568       0.51972077 </v>
   <v>       0.60248342       0.51333216       0.46946365 </v>
   <v>       0.50559616       0.46567611       0.49452155 </v>
   <v>       0.99126817       0.24227728       0.55486989 </v>
   <v>       0.03566017       0.76909437       0.56325182 </v>
   <v>       0.46978929       0.22839077       0.55845710 </v>
   <v>       0.50351666       0.75712138       0.55612625 </v>
   <v>       0.23732898       0.53168390       0.55898564 </v>
   <v>       0.25550052       0.99330839       0.55549935 </v>
   <v>       0.76840588       0.98569522       0.56246315 </v>
   <v>       0.00856328       0.24747028       0.64932952 </v>
   <v>       0.00912117       0.76366581       0.65306940 </v>
   <v>       0.50098305       0.24666720       0.64811199 </v>
   <v>       0.49902014       0.75062066       0.64899132 </v>
   <v>       0.25456367       0.49621562       0.64925364 </v>
   <v>       0.25291124       0.99970373       0.64654777 </v>
   <v>       0.74737619       0.51759901       0.65341408 </v>
   <v>       0.75255388       0.99750145       0.64839604 </v>
   <v>       0.49998898       0.24999498       0.74327702 </v>
   <v>       0.49998903       0.74999496       0.74327702 </v>
   <v>       0.99998898       0.24999498       0.74327702 </v>
   <v>       0.99998903       0.74999496       0.74327702 </v>
   <v>       0.25000050       0.00000100       0.74325596 </v>
   <v>       0.25000052       0.50000100       0.74325596 </v>
   <v>       0.75000050       0.00000100       0.74325596 </v>
   <v>       0.75000049       0.50000100       0.74325596 </v>
   <v>       0.70539214       0.38164371       0.49528861 </v>
   <v>       0.64963063       0.35426456       0.50903983 </v>
   <v>       0.68688410       0.43857061       0.48103960 </v>
   <v>       0.57884754       0.38378217       0.50864486 </v>
   <v>       0.61499931       0.46802972       0.48061297 </v>
   <v>       0.56168611       0.44148763       0.49449417 </v>
   <v>       0.76131918       0.47494110       0.53356387 </v>
   <v>       0.69526039       0.58576469       0.54837580 </v>
   <v>       0.79084414       0.52423610       0.56987002 </v>
   <v>       0.82568986       0.59684910       0.53707654 </v>
   <v>       0.83212238       0.43141732       0.52914154 </v>
   <v>       0.81729423       0.35518778       0.51931316 </v>
   <v>       0.65536390       0.60097038       0.52748056 </v>
   <v>       0.74267551       0.46540631       0.58007714 </v>
   <v>       0.85910178       0.65173643       0.55267445 </v>
   <v>       0.78330910       0.35159659       0.49669465 </v>
   <v>       0.05463129       0.24274224       0.56517188 </v>
   <v>       0.04043849       0.70905768       0.57503005 </v>
   <v>       0.53802964       0.20725655       0.56203496 </v>
   <v>       0.48482573       0.69855321       0.56718125 </v>
   <v>       0.44348631       0.29487134       0.56236895 </v>
   <v>       0.48266658       0.82452763       0.56034352 </v>
   <v>       0.92669611       0.24467870       0.56432253 </v>
   <v>       0.98055294       0.81650195       0.56369490 </v>
   <v>       0.23936814       0.46223528       0.56533176 </v>
   <v>       0.18930061       0.01589329       0.56113824 </v>
   <v>       0.69647300       0.98694826       0.56548731 </v>
   <v>       0.31689660       0.02849205       0.56019444 </v>
   <v>       0.29199842       0.57889450       0.56089862 </v>
   <v>       0.81366869       0.04011313       0.56682761 </v>
   <v>       0.05473574       0.19872288       0.65758953 </v>
   <v>       0.05719745       0.71284322       0.65916633 </v>
   <v>       0.55216240       0.20548803       0.65744528 </v>
   <v>       0.53887851       0.70478724       0.66043880 </v>
   <v>       0.21346370       0.44428285       0.65786681 </v>
   <v>       0.20368400       0.95756164       0.65643946 </v>
   <v>       0.70057294       0.46859909       0.66102931 </v>
   <v>       0.70824070       0.94799584       0.65723912 </v>
   <v>       0.46043882       0.29618653       0.65767799 </v>
   <v>       0.45212580       0.79912940       0.65642432 </v>
   <v>       0.95693805       0.28370949       0.65988894 </v>
   <v>       0.94360863       0.77410329       0.66142245 </v>
   <v>       0.30149212       0.04226108       0.65566337 </v>
   <v>       0.29235208       0.54597782       0.65971410 </v>
   <v>       0.79171321       0.04661768       0.65851422 </v>
   <v>       0.81902504       0.51498853       0.65598619 </v>
   <v>       0.04586250       0.20411950       0.75272599 </v>
   <v>       0.04586250       0.70411946       0.75272599 </v>
   <v>       0.54586251       0.20411950       0.75272599 </v>
   <v>       0.54586250       0.70411946       0.75272599 </v>
   <v>       0.20411900       0.45410100       0.75270499 </v>
   <v>       0.20411899       0.95410095       0.75270499 </v>
   <v>       0.70411898       0.45410100       0.75270499 </v>
   <v>       0.70411896       0.95410095       0.75270499 </v>
   <v>       0.45414002       0.29588849       0.75272697 </v>
   <v>       0.45414001       0.79588852       0.75272697 </v>
   <v>       0.95414002       0.29588849       0.75272697 </v>
   <v>       0.95414006       0.79588852       0.75272697 </v>
   <v>       0.29588249       0.04590050       0.75270499 </v>
   <v>       0.29588248       0.54590053       0.75270499 </v>
   <v>       0.79588244       0.04590050       0.75270499 </v>
   <v>       0.79588248       0.54590053       0.75270499 </v>
   <v>       0.76953263       0.54420361       0.54709606 </v>
   <v>       0.50904679       0.01458623       0.55078216 </v>
   <v>       0.48299374       0.50690040       0.55458053 </v>
   <v>       0.99799121       0.00850903       0.55188809 </v>
   <v>       0.03143645       0.50596746       0.55507983 </v>
   <v>       0.24926552       0.24812711       0.55305447 </v>
   <v>       0.24215466       0.76606732       0.55255369 </v>
   <v>       0.73171949       0.21057292       0.55596240 </v>
   <v>       0.70060400       0.79532374       0.55417859 </v>
   <v>       0.99835290       0.98978941       0.65456403 </v>
   <v>       0.01588293       0.49494404       0.65584614 </v>
   <v>       0.50158264       0.00489648       0.65408944 </v>
   <v>       0.50418449       0.49546214       0.65508036 </v>
   <v>       0.25704757       0.24251598       0.65491255 </v>
   <v>       0.25229509       0.75716367       0.65446543 </v>
   <v>       0.74662706       0.26899437       0.65524275 </v>
   <v>       0.74609637       0.74417222       0.65386735 </v>
   <v>       0.13208175       0.11965439       0.60776707 </v>
   <v>       0.15083525       0.60674017       0.60988120 </v>
   <v>       0.63982169       0.11406677       0.60987772 </v>
   <v>       0.62762183       0.62156935       0.61049186 </v>
   <v>       0.36408297       0.38743282       0.60839128 </v>
   <v>       0.37330638       0.88243536       0.60644729 </v>
   <v>       0.88704618       0.37086545       0.61030853 </v>
   <v>       0.86709877       0.87973655       0.60723956 </v>
   <v>       0.12292639       0.36532103       0.60846093 </v>
   <v>       0.12336574       0.87724360       0.60747477 </v>
   <v>       0.59312152       0.34564322       0.60287260 </v>
   <v>       0.61498677       0.86599320       0.61218171 </v>
   <v>       0.38435277       0.13224373       0.60561857 </v>
   <v>       0.38188570       0.63218538       0.61199301 </v>
   <v>       0.88331964       0.13727846       0.61233182 </v>
   <v>       0.90558354       0.64477600       0.61563034 </v>
   <v>       0.00000000       0.00000000       0.75492797 </v>
   <v>       0.00000000       0.50000000       0.75492797 </v>
   <v>       0.50000000       0.00000000       0.75492797 </v>
   <v>       0.49999999       0.50000000       0.75492797 </v>
   <v>       0.25000050       0.25000000       0.75493902 </v>
   <v>       0.25000051       0.74999997       0.75493902 </v>
   <v>       0.75000047       0.25000000       0.75493902 </v>
   <v>       0.75000046       0.74999997       0.75493902 </v>
   <v>       0.13579050       0.11421000       0.70478299 </v>
   <v>       0.13579050       0.61420998       0.70478299 </v>
   <v>       0.63579045       0.11421000       0.70478299 </v>
   <v>       0.63579049       0.61420998       0.70478299 </v>
   <v>       0.36420952       0.38578999       0.70478299 </v>
   <v>       0.36420950       0.88578996       0.70478299 </v>
   <v>       0.86420954       0.38578999       0.70478299 </v>
   <v>       0.86420953       0.88578996       0.70478299 </v>
   <v>       0.11421799       0.36421899       0.70478098 </v>
   <v>       0.11421799       0.86421899       0.70478098 </v>
   <v>       0.61421800       0.36421899       0.70478098 </v>
   <v>       0.61421799       0.86421899       0.70478098 </v>
   <v>       0.38578201       0.13578149       0.70478202 </v>
   <v>       0.38578200       0.63578149       0.70478202 </v>
   <v>       0.88578199       0.13578149       0.70478202 </v>
   <v>       0.88578203       0.63578149       0.70478202 </v>
   <v>       0.13466700       0.11533200       0.80125603 </v>
   <v>       0.13466699       0.61533199       0.80125603 </v>
   <v>       0.63466699       0.11533200       0.80125603 </v>
   <v>       0.63466698       0.61533199       0.80125603 </v>
   <v>       0.36533300       0.38466799       0.80125603 </v>
   <v>       0.36533299       0.88466796       0.80125603 </v>
   <v>       0.86533295       0.38466799       0.80125603 </v>
   <v>       0.86533294       0.88466796       0.80125603 </v>
   <v>       0.11532850       0.36533700       0.80126500 </v>
   <v>       0.11532850       0.86533698       0.80126500 </v>
   <v>       0.61532850       0.36533700       0.80126500 </v>
   <v>       0.61532849       0.86533698       0.80126500 </v>
   <v>       0.38467151       0.13466300       0.80126500 </v>
   <v>       0.38467150       0.63466297       0.80126500 </v>
   <v>       0.88467149       0.13466300       0.80126500 </v>
   <v>       0.88467153       0.63466297       0.80126500 </v>
   <v>       0.99654252       0.00309910       0.60507109 </v>
   <v>       0.00631072       0.50565036       0.60504594 </v>
   <v>       0.50194167       0.00496828       0.60417962 </v>
   <v>       0.50218479       0.50096910       0.60466849 </v>
   <v>       0.25149166       0.25384512       0.60437497 </v>
   <v>       0.24708091       0.75274482       0.60385998 </v>
   <v>       0.74596715       0.25631057       0.60525454 </v>
   <v>       0.74150717       0.75738658       0.60295043 </v>
   <v>       0.00000050       0.00000050       0.70482896 </v>
   <v>       0.00000050       0.50000048       0.70482896 </v>
   <v>       0.50000048       0.00000050       0.70482896 </v>
   <v>       0.50000046       0.50000048       0.70482896 </v>
   <v>       0.24999999       0.24999947       0.70482499 </v>
   <v>       0.25000001       0.74999950       0.70482499 </v>
   <v>       0.74999999       0.24999947       0.70482499 </v>
   <v>       0.74999998       0.74999950       0.70482499 </v>
   <v>       0.00000000       0.00000000       0.80731797 </v>
   <v>       0.00000000       0.50000000       0.80731797 </v>
   <v>       0.50000000       0.00000000       0.80731797 </v>
   <v>       0.49999999       0.50000000       0.80731797 </v>
   <v>       0.24999999       0.25000000       0.80731797 </v>
   <v>       0.25000001       0.74999997       0.80731797 </v>
   <v>       0.74999999       0.25000000       0.80731797 </v>
   <v>       0.74999998       0.74999997       0.80731797 </v>
  </varray>
 </structure>
</modeling>
