 vasp.6.2.1 16May21 (build Nov 15 2021 14:57:28) complex                         
 executed on             LinuxPGI date 2023.07.30  12:06:14
 running on    4 total cores
 distrk:  each k-point on    4 cores,    1 groups
 distr:  one band on NCORE=   1 cores,    4 groups


--------------------------------------------------------------------------------------------------------


 INCAR:
   SYSTEM = PSC
   ISTART = 1
   ICHARG = 1
   PREC = Normal
   ENCUT = 500
   GGA_COMPAT = F
   NELM = 600
   ISYM = 0
   LREAL = Auto
   ISMEAR = 0
   SIGMA = 0.05
   AMIN = 0.01
   BMIX = 0.01
   LVTOT = T
   LWAVE = F
   LDIPOL = T
   IDIPOL = 3
   LVDW = T
   IVDW = 12

 POTCAR:    PAW_PBE H 15Jun2001                   
 POTCAR:    PAW_PBE C 08Apr2002                   
 POTCAR:    PAW_PBE N 08Apr2002                   
 POTCAR:    PAW_PBE I 08Apr2002                   
 POTCAR:    PAW_PBE Pb 08Apr2002                  
 WARNING: For LVTOT=.TRUE., VASP.5.x writes the TOTAL local potential to the
     file LOCPOT. If you want only the Hartree contributions, use LVHAR=.TRUE.
     instead. 

 POTCAR:    PAW_PBE H 15Jun2001                   
   SHA256 =  030f79b5d3ab3cf0e668861823c8fb652ff669f3e15e46930bd03bfd63a607b6 H/POTCAR              
   COPYR  = (c) Copyright 15Jun2001 Georg Kresse                                                    
   COPYR  = This file is part of the software VASP. Any use, copying, and all other rights are regul
   COPYR  = If you do not have a valid VASP license, you may not use, copy or distribute this file. 
   VRHFIN =H: ultrasoft test                                                                        
   LEXCH  = PE                                                                                      
   EATOM  =    12.4884 eV,    0.9179 Ry                                                             
                                                                                                    
   TITEL  = PAW_PBE H 15Jun2001                                                                     
   LULTRA =        F    use ultrasoft PP ?                                                          
   IUNSCR =        0    unscreen: 0-lin 1-nonlin 2-no                                               
   RPACOR =    0.000    partial core radius                                                         
   POMASS =    1.000; ZVAL   =    1.000    mass and valenz                                          
   RCORE  =    1.100    outmost cutoff radius                                                       
   RWIGS  =    0.700; RWIGS  =    0.370    wigner-seitz radius (au A)                               
   ENMAX  =  250.000; ENMIN  =  200.000 eV                                                          
   RCLOC  =    0.701    cutoff for local pot                                                        
   LCOR   =        T    correct aug charges                                                         
   LPAW   =        T    paw PP                                                                      
   EAUG   =  400.000                                                                                
   RMAX   =    1.123    core radius for proj-oper                                                   
   RAUG   =    1.200    factor for augmentation sphere                                              
   RDEP   =    1.112    radius for radial grids                                                     
   RDEPT  =    0.926    core radius for aug-charge                                                  
                                                                                                    
   Atomic configuration                                                                             
    2 entries                                                                                       
     n  l   j            E        occ.                                                              
     1  0  0.50        -6.4927   1.0000                                                             
     2  1  0.50        -3.4015   0.0000                                                             
   Description                                                                                      
     l       E           TYP  RCUT    TYP  RCUT                                                     
     0     -6.4927494     23  1.100                                                                 
     0      6.8029130     23  1.100                                                                 
     1     -4.0817478     23  1.100                                                                 
  local pseudopotential read in
  atomic valenz-charges read in
  non local Contribution for L=            0  read in
    real space projection operators read in
  non local Contribution for L=            0  read in
    real space projection operators read in
  non local Contribution for L=            1  read in
    real space projection operators read in
    PAW grid and wavefunctions read in
 
   number of l-projection  operators is LMAX  =            3
   number of lm-projection operators is LMMAX =            5
 
 POTCAR:    PAW_PBE C 08Apr2002                   
   SHA256 =  253f7b50bb8d59471dbedb8285d89021f4a42ed1a2c5d38a03a736e69125dd95 C/POTCAR              
   COPYR  = (c) Copyright 08Apr2002 Georg Kresse                                                    
   COPYR  = This file is part of the software VASP. Any use, copying, and all other rights are regul
   COPYR  = If you do not have a valid VASP license, you may not use, copy or distribute this file. 
   VRHFIN =C: s2p2                                                                                  
   LEXCH  = PE                                                                                      
   EATOM  =   147.1560 eV,   10.8157 Ry                                                             
                                                                                                    
   TITEL  = PAW_PBE C 08Apr2002                                                                     
   LULTRA =        F    use ultrasoft PP ?                                                          
   IUNSCR =        1    unscreen: 0-lin 1-nonlin 2-no                                               
   RPACOR =    1.200    partial core radius                                                         
   POMASS =   12.011; ZVAL   =    4.000    mass and valenz                                          
   RCORE  =    1.500    outmost cutoff radius                                                       
   RWIGS  =    1.630; RWIGS  =    0.863    wigner-seitz radius (au A)                               
   ENMAX  =  400.000; ENMIN  =  300.000 eV                                                          
   ICORE  =        2    local potential                                                             
   LCOR   =        T    correct aug charges                                                         
   LPAW   =        T    paw PP                                                                      
   EAUG   =  644.873                                                                                
   DEXC   =    0.000                                                                                
   RMAX   =    1.529    core radius for proj-oper                                                   
   RAUG   =    1.300    factor for augmentation sphere                                              
   RDEP   =    1.501    radius for radial grids                                                     
   RDEPT  =    1.300    core radius for aug-charge                                                  
                                                                                                    
   Atomic configuration                                                                             
    4 entries                                                                                       
     n  l   j            E        occ.                                                              
     1  0  0.50      -273.3789   2.0000                                                             
     2  0  0.50       -13.7508   2.0000                                                             
     2  1  0.50        -5.2854   2.0000                                                             
     3  2  1.50        -5.4423   0.0000                                                             
   Description                                                                                      
     l       E           TYP  RCUT    TYP  RCUT                                                     
     0    -13.7508458     23  1.200                                                                 
     0     -8.2022199     23  1.200                                                                 
     1     -5.2854383     23  1.500                                                                 
     1     34.0145650     23  1.500                                                                 
     2     -5.4423304      7  1.500                                                                 
  local pseudopotential read in
  partial core-charges read in
  partial kinetic energy density read in
  atomic valenz-charges read in
  non local Contribution for L=            0  read in
    real space projection operators read in
  non local Contribution for L=            0  read in
    real space projection operators read in
  non local Contribution for L=            1  read in
    real space projection operators read in
  non local Contribution for L=            1  read in
    real space projection operators read in
    PAW grid and wavefunctions read in
 
   number of l-projection  operators is LMAX  =            4
   number of lm-projection operators is LMMAX =            8
 
 POTCAR:    PAW_PBE N 08Apr2002                   
   SHA256 =  e053789ff3a61a86a1b75d8a110fcc91f86041011e7b0817c7c99e4e8a6349d7 N/POTCAR              
   COPYR  = (c) Copyright 08Apr2002 Georg Kresse                                                    
   COPYR  = This file is part of the software VASP. Any use, copying, and all other rights are regul
   COPYR  = If you do not have a valid VASP license, you may not use, copy or distribute this file. 
   VRHFIN =N: s2p3                                                                                  
   LEXCH  = PE                                                                                      
   EATOM  =   264.5486 eV,   19.4438 Ry                                                             
                                                                                                    
   TITEL  = PAW_PBE N 08Apr2002                                                                     
   LULTRA =        F    use ultrasoft PP ?                                                          
   IUNSCR =        1    unscreen: 0-lin 1-nonlin 2-no                                               
   RPACOR =    1.200    partial core radius                                                         
   POMASS =   14.001; ZVAL   =    5.000    mass and valenz                                          
   RCORE  =    1.500    outmost cutoff radius                                                       
   RWIGS  =    1.400; RWIGS  =    0.741    wigner-seitz radius (au A)                               
   ENMAX  =  400.000; ENMIN  =  300.000 eV                                                          
   ICORE  =        2    local potential                                                             
   LCOR   =        T    correct aug charges                                                         
   LPAW   =        T    paw PP                                                                      
   EAUG   =  627.112                                                                                
   DEXC   =    0.000                                                                                
   RMAX   =    1.529    core radius for proj-oper                                                   
   RAUG   =    1.300    factor for augmentation sphere                                              
   RDEP   =    1.514    radius for radial grids                                                     
   RDEPT  =    1.338    core radius for aug-charge                                                  
                                                                                                    
   Atomic configuration                                                                             
    4 entries                                                                                       
     n  l   j            E        occ.                                                              
     1  0  0.50      -384.7179   2.0000                                                             
     2  0  0.50       -18.5828   2.0000                                                             
     2  1  0.50        -7.0898   3.0000                                                             
     3  2  1.50        -6.8029   0.0000                                                             
   Description                                                                                      
     l       E           TYP  RCUT    TYP  RCUT                                                     
     0    -18.5828119     23  1.200                                                                 
     0    -13.5018863     23  1.200                                                                 
     1     -7.0897853     23  1.500                                                                 
     1      9.5240782     23  1.500                                                                 
     2     -6.8029130      7  1.500                                                                 
  local pseudopotential read in
  partial core-charges read in
  partial kinetic energy density read in
  atomic valenz-charges read in
  non local Contribution for L=            0  read in
    real space projection operators read in
  non local Contribution for L=            0  read in
    real space projection operators read in
  non local Contribution for L=            1  read in
    real space projection operators read in
  non local Contribution for L=            1  read in
    real space projection operators read in
    PAW grid and wavefunctions read in
 
   number of l-projection  operators is LMAX  =            4
   number of lm-projection operators is LMMAX =            8
 
 POTCAR:    PAW_PBE I 08Apr2002                   
   SHA256 =  e40f3f59b681c1fc3e3091736183c4589116986673d2b852a5012aec72758799 I/POTCAR              
   COPYR  = (c) Copyright 08Apr2002 Georg Kresse                                                    
   COPYR  = This file is part of the software VASP. Any use, copying, and all other rights are regul
   COPYR  = If you do not have a valid VASP license, you may not use, copy or distribute this file. 
   VRHFIN =I : s2p5                                                                                 
   LEXCH  = PE                                                                                      
   EATOM  =   315.8678 eV,   23.2156 Ry                                                             
                                                                                                    
   TITEL  = PAW_PBE I 08Apr2002                                                                     
   LULTRA =        F    use ultrasoft PP ?                                                          
   IUNSCR =        1    unscreen: 0-lin 1-nonlin 2-no                                               
   RPACOR =    2.200    partial core radius                                                         
   POMASS =  126.904; ZVAL   =    7.000    mass and valenz                                          
   RCORE  =    2.300    outmost cutoff radius                                                       
   RWIGS  =    2.810; RWIGS  =    1.487    wigner-seitz radius (au A)                               
   ENMAX  =  175.647; ENMIN  =  131.735 eV                                                          
   ICORE  =        3    local potential                                                             
   LCOR   =        T    correct aug charges                                                         
   LPAW   =        T    paw PP                                                                      
   EAUG   =  370.139                                                                                
   DEXC   =    0.000                                                                                
   RMAX   =    2.359    core radius for proj-oper                                                   
   RAUG   =    1.300    factor for augmentation sphere                                              
   RDEP   =    2.392    radius for radial grids                                                     
   RDEPT  =    2.170    core radius for aug-charge                                                  
                                                                                                    
   Atomic configuration                                                                             
   13 entries                                                                                       
     n  l   j            E        occ.                                                              
     1  0  0.50    -32976.3739   2.0000                                                             
     2  0  0.50     -5094.5933   2.0000                                                             
     2  1  1.50     -4572.0131   6.0000                                                             
     3  0  0.50     -1028.2813   2.0000                                                             
     3  1  1.50      -859.0250   6.0000                                                             
     3  2  2.50      -605.7620  10.0000                                                             
     4  0  0.50      -180.5540   2.0000                                                             
     4  1  1.50      -127.5306   6.0000                                                             
     4  2  2.50       -50.2720  10.0000                                                             
     5  0  0.50       -17.4058   2.0000                                                             
     5  1  0.50        -7.0851   5.0000                                                             
     5  2  1.50        -7.0750   0.0000                                                             
     4  3  2.50        -7.0750   0.0000                                                             
   Description                                                                                      
     l       E           TYP  RCUT    TYP  RCUT                                                     
     0    -17.4058016     23  2.300                                                                 
     0    -18.7663842     23  2.300                                                                 
     1     -7.0850686     23  2.300                                                                 
     1     -4.2150896     23  2.300                                                                 
     2     -7.0750295     23  2.300                                                                 
     3     -1.3605826     23  2.300                                                                 
  local pseudopotential read in
  partial core-charges read in
  partial kinetic energy density read in
  atomic valenz-charges read in
  non local Contribution for L=            0  read in
    real space projection operators read in
  non local Contribution for L=            0  read in
    real space projection operators read in
  non local Contribution for L=            1  read in
    real space projection operators read in
  non local Contribution for L=            1  read in
    real space projection operators read in
  non local Contribution for L=            2  read in
    real space projection operators read in
    PAW grid and wavefunctions read in
 
   number of l-projection  operators is LMAX  =            5
   number of lm-projection operators is LMMAX =           13
 
 POTCAR:    PAW_PBE Pb 08Apr2002                  
   SHA256 =  797118a27cf1bcd06b9881c67a26cdde129e3cd1a551dd4a281f9681ce847303 Pb/POTCAR             
   COPYR  = (c) Copyright 08Apr2002 Georg Kresse                                                    
   COPYR  = This file is part of the software VASP. Any use, copying, and all other rights are regul
   COPYR  = If you do not have a valid VASP license, you may not use, copy or distribute this file. 
   VRHFIN =Pb:                                                                                      
   LEXCH  = PE                                                                                      
   EATOM  =    96.9868 eV,    7.1283 Ry                                                             
                                                                                                    
   TITEL  = PAW_PBE Pb 08Apr2002                                                                    
   LULTRA =        F    use ultrasoft PP ?                                                          
   IUNSCR =        1    unscreen: 0-lin 1-nonlin 2-no                                               
   RPACOR =    2.200    partial core radius                                                         
   POMASS =  207.200; ZVAL   =    4.000    mass and valenz                                          
   RCORE  =    3.100    outmost cutoff radius                                                       
   RWIGS  =    3.260; RWIGS  =    1.725    wigner-seitz radius (au A)                               
   ENMAX  =   97.973; ENMIN  =   73.480 eV                                                          
   ICORE  =        3    local potential                                                             
   LCOR   =        T    correct aug charges                                                         
   LPAW   =        T    paw PP                                                                      
   EAUG   =  234.873                                                                                
   DEXC   =    0.000                                                                                
   RMAX   =    3.158    core radius for proj-oper                                                   
   RAUG   =    1.300    factor for augmentation sphere                                              
   RDEP   =    3.202    radius for radial grids                                                     
   RDEPT  =    2.659    core radius for aug-charge                                                  
                                                                                                    
   Atomic configuration                                                                             
   17 entries                                                                                       
     n  l   j            E        occ.                                                              
     1  0  0.50    -88091.8466   2.0000                                                             
     2  0  0.50    -15753.4197   2.0000                                                             
     2  1  1.50    -13508.1797   6.0000                                                             
     3  0  0.50     -3781.7194   2.0000                                                             
     3  1  1.50     -3138.2529   6.0000                                                             
     3  2  2.50     -2483.2977  10.0000                                                             
     4  0  0.50      -856.2895   2.0000                                                             
     4  1  1.50      -645.4943   6.0000                                                             
     4  2  2.50      -401.8768  10.0000                                                             
     4  3  3.50      -132.9059  14.0000                                                             
     5  0  0.50      -144.0950   2.0000                                                             
     5  1  1.50       -85.7879   6.0000                                                             
     5  2  2.50       -21.1769  10.0000                                                             
     6  0  0.50       -12.0372   2.0000                                                             
     6  1  1.50        -3.4971   2.0000                                                             
     6  2  2.50        -1.3606   0.0000                                                             
     5  3  2.50        -2.7212   0.0000                                                             
   Description                                                                                      
     l       E           TYP  RCUT    TYP  RCUT                                                     
     0    -12.0371566     23  3.100                                                                 
     0    -13.3977392     23  3.100                                                                 
     1     -3.4971341     23  3.100                                                                 
     1     -5.4423304     23  3.100                                                                 
     2     -1.3605826     23  3.100                                                                 
     3     -1.3605826     23  3.100                                                                 
  local pseudopotential read in
  partial core-charges read in
  partial kinetic energy density read in
  atomic valenz-charges read in
  non local Contribution for L=            0  read in
    real space projection operators read in
  non local Contribution for L=            0  read in
    real space projection operators read in
  non local Contribution for L=            1  read in
    real space projection operators read in
  non local Contribution for L=            1  read in
    real space projection operators read in
  non local Contribution for L=            2  read in
    real space projection operators read in
    PAW grid and wavefunctions read in
 
   number of l-projection  operators is LMAX  =            5
   number of lm-projection operators is LMMAX =           13
 
 Optimization of the real space projectors (new method)

 maximal supplied QI-value         = 34.20
 optimisation between [QCUT,QGAM] = [ 11.29, 22.57] = [ 35.68,142.71] Ry 
 Optimized for a Real-space Cutoff    1.16 Angstroem

   l    n(q)    QCUT    max X(q) W(low)/X(q) W(high)/X(q)  e(spline) 
   0      8    11.287    19.460    0.40E-03    0.73E-03    0.16E-06
   0      8    11.287    12.209    0.38E-03    0.70E-03    0.15E-06
   1      7    11.287     4.655    0.22E-03    0.25E-04    0.22E-06
 Optimization of the real space projectors (new method)

 maximal supplied QI-value         = 25.13
 optimisation between [QCUT,QGAM] = [ 11.31, 22.87] = [ 35.82,146.48] Ry 
 Optimized for a Real-space Cutoff    1.00 Angstroem

   l    n(q)    QCUT    max X(q) W(low)/X(q) W(high)/X(q)  e(spline) 
   0      7    11.310   115.676    0.43E-03    0.13E-02    0.19E-06
   0      7    11.310    87.132    0.43E-03    0.13E-02    0.18E-06
   1      6    11.310     4.429    0.42E-03    0.74E-03    0.11E-06
   1      6    11.310     2.733    0.34E-03    0.55E-03    0.92E-07
 Optimization of the real space projectors (new method)

 maximal supplied QI-value         = 25.13
 optimisation between [QCUT,QGAM] = [ 11.31, 22.87] = [ 35.82,146.48] Ry 
 Optimized for a Real-space Cutoff    1.27 Angstroem

   l    n(q)    QCUT    max X(q) W(low)/X(q) W(high)/X(q)  e(spline) 
   0      9    11.310    79.467    0.75E-04    0.16E-03    0.36E-06
   0      9    11.310    66.151    0.74E-04    0.16E-03    0.36E-06
   1      8    11.310    17.416    0.35E-03    0.12E-03    0.95E-06
   1      8    11.310    12.382    0.37E-03    0.13E-03    0.98E-06
 Optimization of the real space projectors (new method)

 maximal supplied QI-value         = 16.25
 optimisation between [QCUT,QGAM] = [ 11.38, 22.75] = [ 36.24,144.96] Ry 
 Optimized for a Real-space Cutoff    1.31 Angstroem

   l    n(q)    QCUT    max X(q) W(low)/X(q) W(high)/X(q)  e(spline) 
   0      9    11.376   194.483    0.24E-03    0.23E-03    0.67E-07
   0      9    11.376   190.334    0.23E-03    0.22E-03    0.65E-07
   1      8    11.376   116.687    0.25E-03    0.63E-04    0.16E-06
   1      8    11.376    88.696    0.25E-03    0.61E-04    0.16E-06
   2      8    11.376     4.877    0.17E-03    0.14E-03    0.29E-07
 Optimization of the real space projectors (new method)

 maximal supplied QI-value         = 12.09
 optimisation between [QCUT,QGAM] = [ 11.37, 22.86] = [ 36.19,146.31] Ry 
 Optimized for a Real-space Cutoff    1.66 Angstroem

   l    n(q)    QCUT    max X(q) W(low)/X(q) W(high)/X(q)  e(spline) 
   0     11    11.369   135.111    0.12E-03    0.69E-04    0.19E-05
   0     11    11.369   146.850    0.11E-03    0.65E-04    0.18E-05
   1     11    11.369   148.016    0.17E-03    0.32E-03    0.89E-06
   1     11    11.369   122.989    0.17E-03    0.32E-03    0.91E-06
   2     10    11.369     8.916    0.12E-03    0.45E-04    0.33E-06
  PAW_PBE H 15Jun2001                   :
 energy of atom  1       EATOM=  -12.4884
 kinetic energy error for atom=    0.0020 (will be added to EATOM!!)
  PAW_PBE C 08Apr2002                   :
 energy of atom  2       EATOM= -147.1560
 kinetic energy error for atom=    0.0076 (will be added to EATOM!!)
  PAW_PBE N 08Apr2002                   :
 energy of atom  3       EATOM= -264.5486
 kinetic energy error for atom=    0.0138 (will be added to EATOM!!)
  PAW_PBE I 08Apr2002                   :
 energy of atom  4       EATOM= -315.8678
 kinetic energy error for atom=    0.0009 (will be added to EATOM!!)
  PAW_PBE Pb 08Apr2002                  :
 energy of atom  5       EATOM=  -96.9868
 kinetic energy error for atom=    0.0000 (will be added to EATOM!!)
 
 
 POSCAR:  H  C  N  I Pb
  positions in cartesian coordinates
  No initial velocities read in
 exchange correlation table for  LEXCH =        8
   RHO(1)=    0.500       N(1)  =     2000
   RHO(2)=  100.500       N(2)  =     4000
 


--------------------------------------------------------------------------------------------------------


 ion  position               nearest neighbor table
   1  0.420  0.257  0.575- 187 1.03
   2  0.410  0.719  0.574- 188 1.04
   3  0.921  0.281  0.581- 189 1.04
   4  0.938  0.815  0.576- 190 1.02
   5  0.318  0.078  0.572- 194 1.04
   6  0.310  0.581  0.572- 195 1.04
   7  0.799  0.081  0.576- 196 1.04
   8  0.109  0.230  0.565- 183 1.04
   9  0.081  0.674  0.570- 184 1.03
  10  0.609  0.200  0.566- 185 1.03
  11  0.601  0.741  0.561- 186 1.03
  12  0.375  0.013  0.559- 194 1.03
  13  0.253  0.622  0.553- 195 1.01
  14  0.873  0.033  0.564- 196 1.02
  15  0.060  0.280  0.584- 183 1.02
  16  0.998  0.691  0.583- 184 1.03
  17  0.526  0.172  0.578- 185 1.03
  18  0.544  0.688  0.577- 186 1.01
  19  0.295  0.445  0.578- 191 1.04
  20  0.182  0.053  0.571- 192 1.04
  21  0.675  0.023  0.574- 193 1.04
  22  0.437  0.342  0.561- 187 1.03
  23  0.384  0.790  0.557- 188 1.02
  24  0.883  0.229  0.560- 189 1.02
  25  0.985  0.873  0.558- 190 1.03
  26  0.223  0.403  0.564- 191 1.01
  27  0.153  0.980  0.555- 192 1.01
  28  0.673  0.936  0.561- 193 1.01
  29  0.558  0.307  0.552- 146 1.09
  30  0.509  0.811  0.546- 147 1.10
  31  0.000  0.193  0.547- 144 1.10
  32  0.080  0.788  0.552- 145 1.11
  33  0.188  0.510  0.546- 148 1.09
  34  0.274  0.944  0.547- 149 1.10
  35  0.796  0.936  0.552- 150 1.10
  36  0.447  0.283  0.676- 205 1.01
  37  0.431  0.821  0.672- 206 1.03
  38  0.971  0.277  0.681- 207 1.01
  39  0.926  0.766  0.673- 208 1.03
  40  0.295  0.047  0.675- 209 1.03
  41  0.310  0.553  0.672- 210 1.02
  42  0.795  0.061  0.675- 211 1.02
  43  0.816  0.536  0.675- 212 1.01
  44  0.086  0.165  0.645- 197 1.03
  45  0.100  0.688  0.653- 198 1.03
  46  0.580  0.174  0.646- 199 1.04
  47  0.563  0.677  0.656- 200 1.01
  48  0.181  0.408  0.655- 201 1.01
  49  0.165  0.923  0.648- 202 1.01
  50  0.658  0.443  0.650- 203 1.01
  51  0.671  0.920  0.653- 204 1.01
  52  0.071  0.179  0.673- 197 1.02
  53  0.033  0.669  0.672- 198 1.02
  54  0.542  0.179  0.671- 199 1.02
  55  0.526  0.717  0.679- 200 1.03
  56  0.220  0.444  0.678- 201 1.02
  57  0.188  0.954  0.674- 202 1.02
  58  0.706  0.444  0.674- 203 1.03
  59  0.697  0.958  0.677- 204 1.02
  60  0.433  0.339  0.654- 205 1.02
  61  0.416  0.838  0.644- 206 1.03
  62  0.932  0.318  0.659- 207 1.01
  63  0.934  0.838  0.655- 208 1.02
  64  0.336  0.064  0.650- 209 1.00
  65  0.317  0.583  0.646- 210 1.03
  66  0.826  0.079  0.649- 211 1.03
  67  0.830  0.585  0.652- 212 1.01
  68  0.000  0.252  0.635- 151 1.09
  69  0.043  0.793  0.640- 152 1.10
  70  0.515  0.276  0.633- 153 1.10
  71  0.498  0.749  0.633- 154 1.09
  72  0.256  0.988  0.632- 156 1.09
  73  0.237  0.492  0.633- 155 1.09
  74  0.750  0.992  0.633- 158 1.09
  75  0.730  0.532  0.634- 157 1.08
  76  0.449  0.301  0.769- 221 1.02
  77  0.449  0.801  0.769- 222 1.02
  78  0.949  0.301  0.769- 223 1.02
  79  0.949  0.801  0.769- 224 1.02
  80  0.301  0.051  0.769- 225 1.02
  81  0.301  0.551  0.769- 226 1.02
  82  0.801  0.051  0.769- 227 1.02
  83  0.801  0.551  0.769- 228 1.02
  84  0.079  0.171  0.743- 213 1.02
  85  0.079  0.671  0.743- 214 1.02
  86  0.579  0.171  0.743- 215 1.02
  87  0.579  0.671  0.743- 216 1.02
  88  0.171  0.421  0.743- 217 1.02
  89  0.171  0.921  0.743- 218 1.02
  90  0.671  0.421  0.743- 219 1.02
  91  0.671  0.921  0.743- 220 1.02
  92  0.051  0.199  0.769- 213 1.02
  93  0.051  0.699  0.769- 214 1.02
  94  0.551  0.199  0.769- 215 1.02
  95  0.551  0.699  0.769- 216 1.02
  96  0.199  0.449  0.769- 217 1.02
  97  0.199  0.949  0.769- 218 1.02
  98  0.699  0.449  0.769- 219 1.02
  99  0.699  0.949  0.769- 220 1.02
 100  0.421  0.329  0.743- 221 1.02
 101  0.421  0.829  0.743- 222 1.02
 102  0.921  0.329  0.743- 223 1.02
 103  0.921  0.829  0.743- 224 1.02
 104  0.329  0.079  0.743- 225 1.02
 105  0.329  0.579  0.743- 226 1.02
 106  0.829  0.079  0.743- 227 1.02
 107  0.829  0.579  0.743- 228 1.02
 108  0.000  0.250  0.726- 161 1.09
 109  0.000  0.750  0.726- 162 1.09
 110  0.500  0.250  0.726- 159 1.09
 111  0.500  0.750  0.726- 160 1.09
 112  0.250  0.000  0.726- 163 1.09
 113  0.250  0.500  0.726- 164 1.09
 114  0.750  0.000  0.726- 165 1.09
 115  0.750  0.500  0.726- 166 1.09
 116  0.794  0.510  0.517- 173 1.08
 117  0.874  0.505  0.533- 173 1.10
 118  0.757  0.628  0.536- 174 1.10
 119  0.768  0.626  0.564- 174 1.09
 120  0.684  0.453  0.554- 175 1.09
 121  0.670  0.546  0.561- 175 1.10
 122  0.799  0.429  0.569- 176 1.09
 123  0.867  0.501  0.571- 176 1.10
 124  0.861  0.378  0.540- 177 1.10
 125  0.765  0.375  0.535- 177 1.10
 126  0.778  0.380  0.498- 178 1.10
 127  0.869  0.413  0.499- 178 1.09
 128  0.897  0.615  0.531- 179 1.10
 129  0.905  0.609  0.560- 179 1.10
 130  0.871  0.691  0.548- 179 1.10
 131  0.596  0.520  0.529- 180 1.11
 132  0.675  0.487  0.515- 180 1.10
 133  0.666  0.583  0.522- 180 1.10
 134  0.716  0.492  0.594- 181 1.10
 135  0.768  0.577  0.592- 181 1.09
 136  0.806  0.499  0.604- 181 1.09
 137  0.828  0.260  0.515- 182 1.11
 138  0.846  0.277  0.488- 182 1.10
 139  0.932  0.167  0.500- 168 1.09
 140  0.971  0.394  0.516- 169 1.09
 141  0.066  0.140  0.503- 170 1.10
 142  0.106  0.367  0.519- 171 1.09
 143  0.154  0.241  0.512- 172 1.09
 144  0.996  0.227  0.561-  31 1.10 183 1.31 189 1.32
 145  0.033  0.773  0.562-  32 1.11 184 1.31 190 1.31
 146  0.523  0.270  0.561-  29 1.09 185 1.31 187 1.33
 147  0.495  0.766  0.557-  30 1.10 186 1.31 188 1.31
 148  0.234  0.512  0.558-  33 1.09 191 1.32 195 1.33
 149  0.264  0.993  0.556-  34 1.10 194 1.32 192 1.32
 150  0.773  0.984  0.561-  35 1.10 196 1.31 193 1.32
 151  0.009  0.241  0.652-  68 1.09 197 1.30 207 1.32
 152  0.017  0.762  0.653-  69 1.10 198 1.30 208 1.32
 153  0.507  0.257  0.649-  70 1.10 199 1.31 205 1.32
 154  0.491  0.757  0.650-  71 1.09 200 1.31 206 1.32
 155  0.249  0.495  0.650-  73 1.09 201 1.31 210 1.32
 156  0.250  0.994  0.649-  72 1.09 209 1.31 202 1.32
 157  0.744  0.515  0.650-  75 1.08 212 1.30 203 1.32
 158  0.748  0.999  0.650-  74 1.09 204 1.31 211 1.32
 159  0.500  0.250  0.743- 110 1.09 221 1.31 215 1.31
 160  0.500  0.750  0.743- 111 1.09 222 1.31 216 1.31
 161  1.000  0.250  0.743- 108 1.09 223 1.31 213 1.31
 162  1.000  0.750  0.743- 109 1.09 224 1.31 214 1.31
 163  0.250  0.000  0.743- 112 1.09 225 1.31 218 1.31
 164  0.250  0.500  0.743- 113 1.09 226 1.31 217 1.31
 165  0.750  0.000  0.743- 114 1.09 227 1.31 220 1.31
 166  0.750  0.500  0.743- 115 1.09 228 1.31 219 1.31
 167  0.942  0.282  0.508- 169 1.40 168 1.40 182 1.52
 168  0.970  0.211  0.504- 139 1.09 170 1.39 167 1.40
 169  0.992  0.338  0.513- 140 1.09 171 1.40 167 1.40
 170  0.045  0.196  0.505- 141 1.10 168 1.39 172 1.41
 171  0.068  0.323  0.515- 142 1.09 169 1.40 172 1.40
 172  0.095  0.253  0.511- 143 1.09 171 1.40 170 1.41
 173  0.817  0.485  0.531- 116 1.08 117 1.10 229 1.51 177 1.54
 174  0.791  0.605  0.549- 119 1.09 118 1.10 179 1.52 229 1.54
 175  0.693  0.510  0.549- 120 1.09 121 1.10 180 1.52 229 1.53
 176  0.807  0.489  0.571- 122 1.09 123 1.10 181 1.51 229 1.54
 177  0.817  0.400  0.530- 125 1.10 124 1.10 173 1.54 178 1.55
 178  0.831  0.375  0.506- 127 1.09 126 1.10 182 1.53 177 1.55
 179  0.871  0.630  0.547- 129 1.10 130 1.10 128 1.10 174 1.52
 180  0.656  0.526  0.527- 133 1.10 132 1.10 131 1.11 175 1.52
 181  0.771  0.517  0.591- 135 1.09 136 1.09 134 1.10 176 1.51
 182  0.860  0.296  0.504- 138 1.10 137 1.11 167 1.52 178 1.53
 183  0.057  0.245  0.571-  15 1.02   8 1.04 144 1.31
 184  0.036  0.708  0.572-   9 1.03  16 1.03 145 1.31
 185  0.553  0.208  0.568-  17 1.03  10 1.03 146 1.31
 186  0.549  0.724  0.565-  18 1.01  11 1.03 147 1.31
 187  0.454  0.290  0.566-   1 1.03  22 1.03 146 1.33
 188  0.426  0.759  0.563-  23 1.02   2 1.04 147 1.31
 189  0.930  0.251  0.567-  24 1.02   3 1.04 144 1.32
 190  0.978  0.821  0.565-   4 1.02  25 1.03 145 1.31
 191  0.251  0.450  0.568-  26 1.01  19 1.04 148 1.32
 192  0.195  0.010  0.561-  27 1.01  20 1.04 149 1.32
 193  0.701  0.982  0.565-  28 1.01  21 1.04 150 1.32
 194  0.322  0.032  0.562-  12 1.03   5 1.04 149 1.32
 195  0.268  0.576  0.561-  13 1.01   6 1.04 148 1.33
 196  0.818  0.037  0.567-  14 1.02   7 1.04 150 1.31
 197  0.058  0.192  0.657-  52 1.02  44 1.03 151 1.30
 198  0.051  0.703  0.660-  53 1.02  45 1.03 152 1.30
 199  0.544  0.200  0.656-  54 1.02  46 1.04 153 1.31
 200  0.530  0.715  0.663-  47 1.01  55 1.03 154 1.31
 201  0.215  0.446  0.662-  48 1.01  56 1.02 155 1.31
 202  0.197  0.955  0.658-  49 1.01  57 1.02 156 1.32
 203  0.700  0.464  0.659-  50 1.01  58 1.03 157 1.32
 204  0.702  0.956  0.661-  51 1.01  59 1.02 158 1.31
 205  0.459  0.295  0.661-  36 1.01  60 1.02 153 1.32
 206  0.443  0.809  0.656-  61 1.03  37 1.03 154 1.32
 207  0.968  0.281  0.665-  62 1.01  38 1.01 151 1.32
 208  0.955  0.789  0.661-  63 1.02  39 1.03 152 1.32
 209  0.297  0.038  0.659-  64 1.00  40 1.03 156 1.31
 210  0.295  0.547  0.657-  41 1.02  65 1.03 155 1.32
 211  0.792  0.050  0.659-  42 1.02  66 1.03 158 1.32
 212  0.800  0.546  0.659-  67 1.01  43 1.01 157 1.30
 213  0.046  0.204  0.753-  92 1.02  84 1.02 161 1.31
 214  0.046  0.704  0.753-  93 1.02  85 1.02 162 1.31
 215  0.546  0.204  0.753-  94 1.02  86 1.02 159 1.31
 216  0.546  0.704  0.753-  95 1.02  87 1.02 160 1.31
 217  0.204  0.454  0.753-  96 1.02  88 1.02 164 1.31
 218  0.204  0.954  0.753-  97 1.02  89 1.02 163 1.31
 219  0.704  0.454  0.753-  98 1.02  90 1.02 166 1.31
 220  0.704  0.954  0.753-  99 1.02  91 1.02 165 1.31
 221  0.454  0.296  0.753-  76 1.02 100 1.02 159 1.31
 222  0.454  0.796  0.753-  77 1.02 101 1.02 160 1.31
 223  0.954  0.296  0.753-  78 1.02 102 1.02 161 1.31
 224  0.954  0.796  0.753-  79 1.02 103 1.02 162 1.31
 225  0.296  0.046  0.753-  80 1.02 104 1.02 163 1.31
 226  0.296  0.546  0.753-  81 1.02 105 1.02 164 1.31
 227  0.796  0.046  0.753-  82 1.02 106 1.02 165 1.31
 228  0.796  0.546  0.753-  83 1.02 107 1.02 166 1.31
 229  0.777  0.521  0.550- 173 1.51 175 1.53 176 1.54 174 1.54
 230  0.507  0.977  0.555- 304 3.12
 231  0.456  0.486  0.554- 305 3.14
 232  0.005  0.015  0.553- 302 3.25
 233  0.038  0.494  0.556- 303 3.15
 234  0.251  0.245  0.556- 306 3.13
 235  0.235  0.769  0.552- 307 3.24
 236  0.743  0.223  0.555- 308 3.23
 237  0.716  0.795  0.549- 309 3.54
 238  0.997  0.990  0.655- 302 3.12 310 3.14
 239  0.004  0.501  0.656- 311 3.05 303 3.18
 240  0.498  0.007  0.656- 312 3.07 304 3.21
 241  0.498  0.502  0.655- 313 3.14 305 3.20
 242  0.259  0.237  0.656- 314 3.07 306 3.12
 243  0.247  0.750  0.654- 307 3.16 315 3.17
 244  0.741  0.253  0.655- 308 3.08 316 3.09
 245  0.753  0.750  0.654- 309 3.15 317 3.17
 246  0.144  0.111  0.609- 306 3.21 302 3.22
 247  0.143  0.611  0.610- 303 3.14 307 3.20
 248  0.645  0.108  0.609- 308 3.25 304 3.29
 249  0.612  0.637  0.613- 305 3.33 309 3.35
 250  0.365  0.385  0.613- 305 3.17 306 3.18
 251  0.365  0.887  0.607- 304 3.18 307 3.23
 252  0.890  0.360  0.615- 308 3.23 303 3.40
 253  0.866  0.886  0.607- 309 3.16 302 3.26
 254  0.120  0.365  0.613- 306 3.18 303 3.26
 255  0.119  0.876  0.607- 307 3.11 302 3.21
 256  0.616  0.370  0.606- 305 3.21 308 3.22
 257  0.620  0.869  0.612- 304 3.12 309 3.14
 258  0.398  0.144  0.605- 306 3.27 304 3.31
 259  0.377  0.634  0.607- 305 3.24 307 3.30
 260  0.886  0.137  0.614- 302 3.16 308 3.25
 261  0.911  0.660  0.613- 303 3.35 309 3.44
 262  0.000  0.000  0.755- 310 3.13 318 3.27
 263  0.000  0.500  0.755- 311 3.13 319 3.27
 264  0.500  0.000  0.755- 312 3.13 320 3.27
 265  0.500  0.500  0.755- 313 3.13 321 3.27
 266  0.250  0.250  0.755- 314 3.13 322 3.27
 267  0.250  0.750  0.755- 315 3.13 323 3.27
 268  0.750  0.250  0.755- 316 3.13 324 3.27
 269  0.750  0.750  0.755- 317 3.13 325 3.27
 270  0.136  0.114  0.705- 310 3.20 314 3.20
 271  0.136  0.614  0.705- 311 3.20 315 3.20
 272  0.636  0.114  0.705- 312 3.20 316 3.20
 273  0.636  0.614  0.705- 313 3.20 317 3.20
 274  0.364  0.386  0.705- 313 3.20 314 3.20
 275  0.364  0.886  0.705- 312 3.20 315 3.20
 276  0.864  0.386  0.705- 311 3.20 316 3.20
 277  0.864  0.886  0.705- 310 3.20 317 3.20
 278  0.114  0.364  0.705- 314 3.21 311 3.21
 279  0.114  0.864  0.705- 315 3.21 310 3.21
 280  0.614  0.364  0.705- 316 3.21 313 3.21
 281  0.614  0.864  0.705- 317 3.21 312 3.21
 282  0.386  0.136  0.705- 314 3.21 312 3.21
 283  0.386  0.636  0.705- 315 3.21 313 3.21
 284  0.886  0.136  0.705- 316 3.21 310 3.21
 285  0.886  0.636  0.705- 317 3.21 311 3.21
 286  0.135  0.115  0.801- 318 3.22 322 3.22
 287  0.135  0.615  0.801- 319 3.22 323 3.22
 288  0.635  0.115  0.801- 320 3.22 324 3.22
 289  0.635  0.615  0.801- 321 3.22 325 3.22
 290  0.365  0.385  0.801- 321 3.22 322 3.22
 291  0.365  0.885  0.801- 320 3.22 323 3.22
 292  0.865  0.385  0.801- 319 3.22 324 3.22
 293  0.865  0.885  0.801- 318 3.22 325 3.22
 294  0.115  0.365  0.801- 319 3.23 322 3.23
 295  0.115  0.865  0.801- 318 3.23 323 3.23
 296  0.615  0.365  0.801- 321 3.23 324 3.23
 297  0.615  0.865  0.801- 320 3.23 325 3.23
 298  0.385  0.135  0.801- 320 3.23 322 3.23
 299  0.385  0.635  0.801- 321 3.23 323 3.23
 300  0.885  0.135  0.801- 318 3.23 324 3.23
 301  0.885  0.635  0.801- 319 3.23 325 3.23
 302  0.999  0.008  0.605- 238 3.12 260 3.16 255 3.21 246 3.22 232 3.25 253 3.26
 303  0.008  0.503  0.605- 247 3.14 233 3.15 239 3.18 254 3.26 261 3.35 252 3.40
 304  0.504  0.994  0.605- 230 3.12 257 3.12 251 3.18 240 3.21 248 3.29 258 3.31
 305  0.494  0.499  0.603- 231 3.14 250 3.17 241 3.20 256 3.21 259 3.24 249 3.33
 306  0.253  0.251  0.606- 242 3.12 234 3.13 254 3.18 250 3.18 246 3.21 258 3.27
 307  0.242  0.757  0.604- 255 3.11 243 3.16 247 3.20 251 3.23 235 3.24 259 3.30
 308  0.751  0.253  0.606- 244 3.08 256 3.22 236 3.23 252 3.23 260 3.25 248 3.25
 309  0.750  0.756  0.604- 257 3.14 245 3.15 253 3.16 249 3.35 261 3.44 237 3.54
 310  0.000  0.000  0.705- 262 3.13 238 3.14 270 3.20 277 3.20 279 3.21 284 3.21
 311  0.000  0.500  0.705- 239 3.05 263 3.13 271 3.20 276 3.20 278 3.21 285 3.21
 312  0.500  0.000  0.705- 240 3.07 264 3.13 272 3.20 275 3.20 281 3.21 282 3.21
 313  0.500  0.500  0.705- 265 3.13 241 3.14 273 3.20 274 3.20 280 3.21 283 3.21
 314  0.250  0.250  0.705- 242 3.07 266 3.13 270 3.20 274 3.20 282 3.21 278 3.21
 315  0.250  0.750  0.705- 267 3.13 243 3.17 271 3.20 275 3.20 283 3.21 279 3.21
 316  0.750  0.250  0.705- 244 3.09 268 3.13 272 3.20 276 3.20 284 3.21 280 3.21
 317  0.750  0.750  0.705- 269 3.13 245 3.17 273 3.20 277 3.20 285 3.21 281 3.21
 318  0.000  0.000  0.807- 286 3.22 293 3.22 300 3.23 295 3.23 262 3.27
 319  0.000  0.500  0.807- 287 3.22 292 3.22 301 3.23 294 3.23 263 3.27
 320  0.500  0.000  0.807- 288 3.22 291 3.22 298 3.23 297 3.23 264 3.27
 321  0.500  0.500  0.807- 289 3.22 290 3.22 299 3.23 296 3.23 265 3.27
 322  0.250  0.250  0.807- 290 3.22 286 3.22 294 3.23 298 3.23 266 3.27
 323  0.250  0.750  0.807- 291 3.22 287 3.22 299 3.23 295 3.23 267 3.27
 324  0.750  0.250  0.807- 292 3.22 288 3.22 296 3.23 300 3.23 268 3.27
 325  0.750  0.750  0.807- 293 3.22 289 3.22 297 3.23 301 3.23 269 3.27
 

IMPORTANT INFORMATION: All symmetrisations will be switched off!
NOSYMM: (Re-)initialisation of all symmetry stuff for point group C_1.


----------------------------------------------------------------------------------------

                                     Primitive cell                                     

  volume of cell :   20385.2105

  direct lattice vectors                    reciprocal lattice vectors
    18.060800552  0.000000000  0.000000000     0.055368531  0.000015077 -0.000000000
    -0.004918649 18.062799454  0.000000000     0.000000000  0.055362404  0.000000000
     0.000000000  0.000000000 62.487499237     0.000000000 -0.000000000  0.016003201

  length of vectors
    18.060800552 18.062800123 62.487499237     0.055368533  0.055362404  0.016003201

  position of ions in fractional coordinates (direct lattice)
     0.420449212  0.257188117  0.575061003
     0.409885952  0.718683069  0.574307251
     0.920562490  0.280510208  0.581000118
     0.938412082  0.815208568  0.575902358
     0.318085009  0.077500732  0.572489261
     0.309658454  0.580713538  0.572122549
     0.799240527  0.080969844  0.576472113
     0.108665740  0.229766759  0.565113091
     0.081096398  0.674246780  0.569565092
     0.609408860  0.199771222  0.565575585
     0.601412593  0.740667504  0.560554440
     0.374869289  0.013345307  0.559065433
     0.252783094  0.622304189  0.552725542
     0.872596961  0.033486689  0.563770171
     0.059658711  0.280352607  0.584049739
     0.997779460  0.690855776  0.582917250
     0.525771440  0.172303402  0.578037429
     0.543602761  0.687609826  0.576893645
     0.294573609  0.445160293  0.578292240
     0.181761542  0.053077184  0.571255310
     0.675300307  0.023383165  0.573575538
     0.437318147  0.342490409  0.561302331
     0.384109267  0.790325222  0.556827620
     0.882869000  0.228951932  0.560402859
     0.985344049  0.873242642  0.558479012
     0.222952659  0.402833959  0.564195304
     0.152577586  0.979822619  0.555367855
     0.672955442  0.935872874  0.560564634
     0.557865607  0.307105520  0.551923441
     0.508801528  0.810537028  0.546314592
     0.000489630  0.192855898  0.546892710
     0.079890785  0.787855346  0.551732118
     0.187712204  0.510341486  0.546306717
     0.274413955  0.943860995  0.546607436
     0.795833725  0.935857463  0.552475919
     0.446861313  0.283477941  0.676232545
     0.431469249  0.820983053  0.671626399
     0.970928313  0.277012176  0.681137395
     0.926338750  0.765670226  0.673042942
     0.295365621  0.047244830  0.674926314
     0.309506722  0.553178533  0.672433995
     0.794667596  0.061051409  0.674901590
     0.816284767  0.536008244  0.674604839
     0.086328818  0.165134992  0.645304056
     0.100191292  0.687854438  0.652759771
     0.580249040  0.173747908  0.645560272
     0.563466706  0.676718399  0.656319687
     0.180959186  0.408408895  0.654846920
     0.164565363  0.923156976  0.648280787
     0.657907611  0.442764835  0.649848056
     0.670779874  0.920329930  0.652521259
     0.070663783  0.178710232  0.672709318
     0.032728729  0.669288759  0.671779750
     0.541984673  0.178934226  0.671249981
     0.525513612  0.716790377  0.679174051
     0.220235453  0.444081583  0.678262065
     0.187535804  0.954373275  0.674019883
     0.706096223  0.444086177  0.674044912
     0.696534071  0.957966501  0.677202649
     0.432552340  0.339399129  0.653828344
     0.416010220  0.838143890  0.644132374
     0.931800512  0.318152621  0.659043926
     0.933767710  0.837613537  0.654768169
     0.335833172  0.064291723  0.650184610
     0.316788491  0.582655648  0.645741766
     0.825889436  0.079474811  0.648670452
     0.830259875  0.584734294  0.651810241
     0.000015649  0.252439623  0.634749516
     0.043028557  0.792668754  0.639762787
     0.514765206  0.275569083  0.632598268
     0.498218587  0.748682882  0.632655347
     0.256442978  0.987572808  0.631696110
     0.237142083  0.491937104  0.632788492
     0.750212377  0.992152521  0.632995503
     0.730344911  0.532425128  0.634046617
     0.448745018  0.301283966  0.768889017
     0.448745007  0.801283913  0.768889017
     0.948744965  0.301283966  0.768889017
     0.948745007  0.801283913  0.768889017
     0.301275995  0.051294496  0.768872961
     0.301276011  0.551294499  0.768872961
     0.801275943  0.051294496  0.768872961
     0.801275984  0.551294499  0.768872961
     0.078771004  0.171180501  0.743441971
     0.078771006  0.671180448  0.743441971
     0.578771004  0.171180501  0.743441971
     0.578770992  0.671180448  0.743441971
     0.171199499  0.421174482  0.743421032
     0.171199501  0.921174508  0.743421032
     0.671199512  0.421174482  0.743421032
     0.671199501  0.921174508  0.743421032
     0.051256000  0.198714991  0.768889017
     0.051256002  0.698714925  0.768889017
     0.551256027  0.198714991  0.768889017
     0.551256016  0.698714925  0.768889017
     0.198723491  0.448703970  0.768872046
     0.198723493  0.948703970  0.768872046
     0.698723518  0.448703970  0.768872046
     0.698723507  0.948703970  0.768872046
     0.421231519  0.328817467  0.743441971
     0.421231508  0.828817440  0.743441971
     0.921231466  0.328817467  0.743441971
     0.921231508  0.828817440  0.743441971
     0.328800503  0.078824997  0.743421032
     0.328800492  0.578824964  0.743421032
     0.828800477  0.078824997  0.743421032
     0.828800519  0.578824964  0.743421032
     0.000003500  0.250001478  0.725821992
     0.000003500  0.750001452  0.725821992
     0.500003506  0.250001478  0.725821992
     0.500003495  0.750001452  0.725821992
     0.250000502  0.000000000  0.725803983
     0.250000517  0.500000000  0.725803983
     0.750000502  0.000000000  0.725803983
     0.750000490  0.500000000  0.725803983
     0.794132645  0.509912399  0.516720782
     0.874006794  0.504556442  0.532985937
     0.756946766  0.628241185  0.535832271
     0.767717280  0.625584880  0.563775543
     0.684014730  0.452618074  0.553538754
     0.669958802  0.545514260  0.561304101
     0.799381346  0.429360818  0.568993017
     0.866708251  0.500546087  0.570738361
     0.860809956  0.378465021  0.540268278
     0.765372136  0.374573672  0.535068995
     0.777540241  0.380013393  0.497759012
     0.868692817  0.413477844  0.498616514
     0.897370644  0.615161610  0.531359696
     0.904995325  0.608787343  0.559830784
     0.871271086  0.690851446  0.547706655
     0.595628039  0.520102620  0.528883981
     0.675298393  0.487117994  0.514738513
     0.666021738  0.583013353  0.521682529
     0.715873767  0.492233458  0.593816219
     0.768279387  0.576775304  0.591918623
     0.806338701  0.498816751  0.603920657
     0.827771232  0.260118917  0.514937405
     0.846346601  0.277103437  0.487816563
     0.931661388  0.166556372  0.499516474
     0.971459772  0.394308371  0.516424947
     0.066483718  0.140136481  0.502529253
     0.106201798  0.367345640  0.519220122
     0.154478801  0.241272645  0.511779547
     0.996068608  0.227398175  0.561241100
     0.032687231  0.772604096  0.562342273
     0.523388357  0.269808378  0.561394573
     0.495103740  0.765674820  0.557450669
     0.233879399  0.512081487  0.557639550
     0.264359753  0.993359067  0.556301575
     0.773020576  0.983707718  0.561000757
     0.009041103  0.241477764  0.651719097
     0.017490618  0.762123118  0.652987478
     0.506803558  0.256828960  0.649269816
     0.490613281  0.757363775  0.649835175
     0.248754821  0.494834378  0.649928944
     0.250139386  0.993834253  0.648900967
     0.743700609  0.514557541  0.650065934
     0.748310763  0.999133453  0.650334359
     0.499988984  0.249994984  0.743277021
     0.499989025  0.749994958  0.743277021
     0.999988984  0.249994984  0.743277021
     0.999989025  0.749994958  0.743277021
     0.250000502  0.000001000  0.743255960
     0.250000517  0.500001003  0.743255960
     0.750000502  0.000001000  0.743255960
     0.750000491  0.500001003  0.743255960
     0.942067887  0.282414384  0.507586326
     0.969628992  0.210980069  0.503936426
     0.992114730  0.338491273  0.513165200
     0.045203578  0.195998430  0.505442373
     0.067583575  0.323403801  0.515041796
     0.095168638  0.252693184  0.510861944
     0.816835001  0.485091777  0.531053910
     0.790932330  0.605120385  0.548775533
     0.692994681  0.510087371  0.548667846
     0.807033594  0.488925259  0.570630307
     0.817210479  0.399947113  0.529657879
     0.830501579  0.375219599  0.506261476
     0.870963084  0.629975273  0.546661524
     0.656379638  0.525958096  0.527176181
     0.770526052  0.516595691  0.590821174
     0.860108740  0.296117104  0.504084527
     0.057430707  0.244636070  0.571402923
     0.035736473  0.707637367  0.571629531
     0.553411388  0.207535850  0.567895996
     0.548979166  0.724063419  0.564653648
     0.453988952  0.289897191  0.565644386
     0.425534066  0.758895119  0.563266957
     0.929828870  0.250615780  0.567061112
     0.978473479  0.820565106  0.564511774
     0.250534890  0.450273117  0.567672196
     0.195215976  0.009638754  0.561088909
     0.701180331  0.982480785  0.564525388
     0.322330951  0.032161556  0.562364250
     0.267926725  0.576337506  0.560663409
     0.817815786  0.036668397  0.567385701
     0.057773835  0.192497270  0.657286250
     0.051002134  0.702825490  0.659782599
     0.544193475  0.199593598  0.656043387
     0.529633658  0.715418270  0.662745289
     0.214853017  0.445829979  0.661962112
     0.196702749  0.954708260  0.657853442
     0.700146825  0.463780882  0.658634115
     0.702470350  0.956411121  0.660906481
     0.458831709  0.295270836  0.660781151
     0.443394101  0.809020942  0.655867937
     0.968247052  0.281244229  0.665042074
     0.955038862  0.789295984  0.660525851
     0.296978070  0.037793698  0.658723428
     0.294868531  0.546712081  0.656762220
     0.792424321  0.049531921  0.658892162
     0.800281961  0.545684374  0.659346904
     0.045862501  0.204119496  0.752725994
     0.045862500  0.704119456  0.752725994
     0.545862507  0.204119496  0.752725994
     0.545862496  0.704119456  0.752725994
     0.204119002  0.454101003  0.752704994
     0.204118991  0.954100951  0.752704994
     0.704118976  0.454101003  0.752704994
     0.704118964  0.954100951  0.752704994
     0.454140018  0.295888490  0.752726971
     0.454140007  0.795888516  0.752726971
     0.954140018  0.295888490  0.752726971
     0.954140060  0.795888516  0.752726971
     0.295882492  0.045900498  0.752704994
     0.295882481  0.545900528  0.752704994
     0.795882439  0.045900498  0.752704994
     0.795882481  0.545900528  0.752704994
     0.776915902  0.521199650  0.549612859
     0.507420251  0.977045313  0.554918669
     0.455988266  0.486160561  0.554412647
     0.005414688  0.015428871  0.552970281
     0.037502148  0.494274564  0.555681456
     0.250832670  0.245308502  0.556176855
     0.234861465  0.769270871  0.551850428
     0.742703461  0.222535691  0.555376280
     0.716425724  0.795484719  0.549111294
     0.997378110  0.989635873  0.654670737
     0.004340918  0.500864298  0.656070736
     0.497874350  0.007014290  0.655721729
     0.498106652  0.502473995  0.654558471
     0.259463914  0.237175649  0.655973793
     0.247433761  0.749723314  0.654024429
     0.740640081  0.253454184  0.655381634
     0.753264405  0.750391785  0.654077967
     0.144141930  0.110847932  0.608970068
     0.143126296  0.611382245  0.610107136
     0.644845712  0.107755406  0.608936492
     0.611892691  0.636623031  0.612926243
     0.364958422  0.385185139  0.613046445
     0.364511885  0.886666986  0.607072655
     0.890294467  0.360484446  0.615488034
     0.866424027  0.885672699  0.607389002
     0.120293735  0.364933049  0.613182825
     0.118682629  0.876352585  0.606773767
     0.616080396  0.370077393  0.606235695
     0.620369036  0.868525273  0.611726479
     0.398214297  0.143564121  0.605356674
     0.376707250  0.634281242  0.606517856
     0.885881560  0.137479529  0.613986941
     0.911244021  0.659696103  0.613219209
     0.000000000  0.000000000  0.754927972
     0.000000000  0.500000000  0.754927972
     0.500000000  0.000000000  0.754927972
     0.499999989  0.500000000  0.754927972
     0.250000496  0.250000000  0.754939022
     0.250000511  0.749999974  0.754939022
     0.750000470  0.250000000  0.754939022
     0.750000458  0.749999974  0.754939022
     0.135790500  0.114209997  0.704782994
     0.135790502  0.614209984  0.704782994
     0.635790447  0.114209997  0.704782994
     0.635790488  0.614209984  0.704782994
     0.364209516  0.385789989  0.704782994
     0.364209505  0.885789963  0.704782994
     0.864209542  0.385789989  0.704782994
     0.864209531  0.885789963  0.704782994
     0.114217990  0.364218986  0.704780979
     0.114217992  0.864218986  0.704780979
     0.614218004  0.364218986  0.704780979
     0.614217992  0.864218986  0.704780979
     0.385782012  0.135781489  0.704782017
     0.385782001  0.635781489  0.704782017
     0.885781985  0.135781489  0.704782017
     0.885782027  0.635781489  0.704782017
     0.134667000  0.115332001  0.801256025
     0.134666989  0.615331988  0.801256025
     0.634666987  0.115332001  0.801256025
     0.634666976  0.615331988  0.801256025
     0.365333002  0.384667985  0.801256025
     0.365332990  0.884667959  0.801256025
     0.865332949  0.384667985  0.801256025
     0.865332938  0.884667959  0.801256025
     0.115328503  0.365337004  0.801264999
     0.115328505  0.865336978  0.801264999
     0.615328503  0.365337004  0.801264999
     0.615328492  0.865336978  0.801264999
     0.384671513  0.134662996  0.801264999
     0.384671501  0.634662970  0.801264999
     0.884671486  0.134662996  0.801264999
     0.884671528  0.634662970  0.801264999
     0.999317832  0.007665497  0.604958462
     0.007760716  0.503485493  0.605238120
     0.503761162  0.993861155  0.604581373
     0.494068966  0.498948164  0.603335885
     0.252512634  0.251391800  0.606309868
     0.242025879  0.756969534  0.603561271
     0.750789504  0.253068180  0.606205111
     0.750067969  0.755918226  0.603730067
     0.000000500  0.000000500  0.704828963
     0.000000500  0.500000475  0.704828963
     0.500000475  0.000000500  0.704828963
     0.500000464  0.500000475  0.704828963
     0.249999994  0.249999472  0.704824995
     0.250000010  0.749999498  0.704824995
     0.749999994  0.249999472  0.704824995
     0.749999983  0.749999498  0.704824995
     0.000000000  0.000000000  0.807317968
     0.000000000  0.500000000  0.807317968
     0.500000000  0.000000000  0.807317968
     0.499999989  0.500000000  0.807317968
     0.249999994  0.250000000  0.807317968
     0.250000010  0.749999974  0.807317968
     0.749999994  0.250000000  0.807317968
     0.749999983  0.749999974  0.807317968

  ion indices of the primitive-cell ions
   primitive index   ion index
                 1           1
                 2           2
                 3           3
                 4           4
                 5           5
                 6           6
                 7           7
                 8           8
                 9           9
                10          10
                11          11
                12          12
                13          13
                14          14
                15          15
                16          16
                17          17
                18          18
                19          19
                20          20
                21          21
                22          22
                23          23
                24          24
                25          25
                26          26
                27          27
                28          28
                29          29
                30          30
                31          31
                32          32
                33          33
                34          34
                35          35
                36          36
                37          37
                38          38
                39          39
                40          40
                41          41
                42          42
                43          43
                44          44
                45          45
                46          46
                47          47
                48          48
                49          49
                50          50
                51          51
                52          52
                53          53
                54          54
                55          55
                56          56
                57          57
                58          58
                59          59
                60          60
                61          61
                62          62
                63          63
                64          64
                65          65
                66          66
                67          67
                68          68
                69          69
                70          70
                71          71
                72          72
                73          73
                74          74
                75          75
                76          76
                77          77
                78          78
                79          79
                80          80
                81          81
                82          82
                83          83
                84          84
                85          85
                86          86
                87          87
                88          88
                89          89
                90          90
                91          91
                92          92
                93          93
                94          94
                95          95
                96          96
                97          97
                98          98
                99          99
               100         100
               101         101
               102         102
               103         103
               104         104
               105         105
               106         106
               107         107
               108         108
               109         109
               110         110
               111         111
               112         112
               113         113
               114         114
               115         115
               116         116
               117         117
               118         118
               119         119
               120         120
               121         121
               122         122
               123         123
               124         124
               125         125
               126         126
               127         127
               128         128
               129         129
               130         130
               131         131
               132         132
               133         133
               134         134
               135         135
               136         136
               137         137
               138         138
               139         139
               140         140
               141         141
               142         142
               143         143
               144         144
               145         145
               146         146
               147         147
               148         148
               149         149
               150         150
               151         151
               152         152
               153         153
               154         154
               155         155
               156         156
               157         157
               158         158
               159         159
               160         160
               161         161
               162         162
               163         163
               164         164
               165         165
               166         166
               167         167
               168         168
               169         169
               170         170
               171         171
               172         172
               173         173
               174         174
               175         175
               176         176
               177         177
               178         178
               179         179
               180         180
               181         181
               182         182
               183         183
               184         184
               185         185
               186         186
               187         187
               188         188
               189         189
               190         190
               191         191
               192         192
               193         193
               194         194
               195         195
               196         196
               197         197
               198         198
               199         199
               200         200
               201         201
               202         202
               203         203
               204         204
               205         205
               206         206
               207         207
               208         208
               209         209
               210         210
               211         211
               212         212
               213         213
               214         214
               215         215
               216         216
               217         217
               218         218
               219         219
               220         220
               221         221
               222         222
               223         223
               224         224
               225         225
               226         226
               227         227
               228         228
               229         229
               230         230
               231         231
               232         232
               233         233
               234         234
               235         235
               236         236
               237         237
               238         238
               239         239
               240         240
               241         241
               242         242
               243         243
               244         244
               245         245
               246         246
               247         247
               248         248
               249         249
               250         250
               251         251
               252         252
               253         253
               254         254
               255         255
               256         256
               257         257
               258         258
               259         259
               260         260
               261         261
               262         262
               263         263
               264         264
               265         265
               266         266
               267         267
               268         268
               269         269
               270         270
               271         271
               272         272
               273         273
               274         274
               275         275
               276         276
               277         277
               278         278
               279         279
               280         280
               281         281
               282         282
               283         283
               284         284
               285         285
               286         286
               287         287
               288         288
               289         289
               290         290
               291         291
               292         292
               293         293
               294         294
               295         295
               296         296
               297         297
               298         298
               299         299
               300         300
               301         301
               302         302
               303         303
               304         304
               305         305
               306         306
               307         307
               308         308
               309         309
               310         310
               311         311
               312         312
               313         313
               314         314
               315         315
               316         316
               317         317
               318         318
               319         319
               320         320
               321         321
               322         322
               323         323
               324         324
               325         325

----------------------------------------------------------------------------------------

 
 
 KPOINTS: Automatic Mesh                          

Automatic generation of k-mesh.
 Grid dimensions read from file:
 generate k-points for:    3    3    1

 Generating k-lattice:

  Cartesian coordinates                     Fractional coordinates (reciprocal lattice)
     0.018456177  0.000005026 -0.000000000     0.333333333  0.000000000  0.000000000
     0.000000000  0.018454135  0.000000000     0.000000000  0.333333333  0.000000000
     0.000000000 -0.000000000  0.016003201     0.000000000  0.000000000  1.000000000

  Length of vectors
     0.018456178  0.018454135  0.016003201

  Shift w.r.t. Gamma in fractional coordinates (k-lattice)
     0.000000000  0.000000000  0.000000000

 
 Subroutine IBZKPT returns following result:
 ===========================================
 
 Found      5 irreducible k-points:
 
 Following reciprocal coordinates:
            Coordinates               Weight
  0.000000  0.000000  0.000000      1.000000
  0.333333  0.000000  0.000000      2.000000
  0.000000  0.333333  0.000000      2.000000
  0.333333  0.333333  0.000000      2.000000
 -0.333333  0.333333  0.000000      2.000000
 
 Following cartesian coordinates:
            Coordinates               Weight
  0.000000  0.000000  0.000000      1.000000
  0.018456  0.000005  0.000000      2.000000
  0.000000  0.018454  0.000000      2.000000
  0.018456  0.018459  0.000000      2.000000
 -0.018456  0.018449  0.000000      2.000000
 


--------------------------------------------------------------------------------------------------------




 Dimension of arrays:
   k-points           NKPTS =      5   k-points in BZ     NKDIM =      5   number of bands    NBANDS=    732
   number of dos      NEDOS =    301   number of ions     NIONS =    325
   non local maximal  LDIM  =      5   non local SUM 2l+1 LMDIM =     13
   total plane-waves  NPLWV = ******
   max r-space proj   IRMAX =   3336   max aug-charges    IRDMAX=  19845
   dimension x,y,z NGX =   100 NGY =  100 NGZ =  350
   dimension x,y,z NGXF=   200 NGYF=  200 NGZF=  700
   support grid    NGXF=   200 NGYF=  200 NGZF=  700
   ions per type =             143  39  47  72  24
   NGX,Y,Z   is equivalent  to a cutoff of   9.20,  9.20,  9.31 a.u.
   NGXF,Y,Z  is equivalent  to a cutoff of  18.41, 18.41, 18.62 a.u.

 SYSTEM =  PSC                                     
 POSCAR =   H  C  N  I Pb                          

 Startparameter for this run:
   NWRITE =      2    write-flag & timer
   PREC   = normal    normal or accurate (medium, high low for compatibility)
   ISTART =      0    job   : 0-new  1-cont  2-samecut
   ICHARG =      1    charge: 1-file 2-atom 10-const
   ISPIN  =      1    spin polarized calculation?
   LNONCOLLINEAR =      F non collinear calculations
   LSORBIT =      F    spin-orbit coupling
   INIWAV =      1    electr: 0-lowe 1-rand  2-diag
   LASPH  =      F    aspherical Exc in radial PAW
 Electronic Relaxation 1
   ENCUT  =  500.0 eV  36.75 Ry    6.06 a.u.  32.93 32.93113.93*2*pi/ulx,y,z
   ENINI  =  500.0     initial cutoff
   ENAUG  =  644.9 eV  augmentation charge cutoff
   NELM   =    600;   NELMIN=  2; NELMDL=  0     # of ELM steps 
   EDIFF  = 0.1E-03   stopping-criterion for ELM
   LREAL  =      T    real-space projection
   NLSPLINE    = F    spline interpolate recip. space projectors
   LCOMPAT=      F    compatible to vasp.4.4
   GGA_COMPAT  = F    GGA compatible to vasp.4.4-vasp.4.6
   LMAXPAW     = -100 max onsite density
   LMAXMIX     =    2 max onsite mixed and CHGCAR
   VOSKOWN=      0    Vosko Wilk Nusair interpolation
   ROPT   =   -0.00050  -0.00050  -0.00050  -0.00050
   ROPT   =   -0.00050
 Ionic relaxation
   EDIFFG = 0.1E-02   stopping-criterion for IOM
   NSW    =      0    number of steps for IOM
   NBLOCK =      1;   KBLOCK =      1    inner block; outer block 
   IBRION =     -1    ionic relax: 0-MD 1-quasi-New 2-CG
   NFREE  =      0    steps in history (QN), initial steepest desc. (CG)
   ISIF   =      2    stress and relaxation
   IWAVPR =     10    prediction:  0-non 1-charg 2-wave 3-comb
   ISYM   =      0    0-nonsym 1-usesym 2-fastsym
   LCORR  =      T    Harris-Foulkes like correction to forces

   POTIM  = 0.5000    time-step for ionic-motion
   TEIN   =    0.0    initial temperature
   TEBEG  =    0.0;   TEEND  =   0.0 temperature during run
   SMASS  =  -3.00    Nose mass-parameter (am)
   estimated Nose-frequenzy (Omega)   =  0.10E-29 period in steps = 0.13E+47 mass=  -0.745E-26a.u.
   SCALEE = 1.0000    scale energy and forces
   NPACO  =    256;   APACO  = 16.0  distance and # of slots for P.C.
   PSTRESS=    0.0 pullay stress

  Mass of Ions in am
   POMASS =   1.00 12.01 14.00126.90207.20
  Ionic Valenz
   ZVAL   =   1.00  4.00  5.00  7.00  4.00
  Atomic Wigner-Seitz radii
   RWIGS  =  -1.00 -1.00 -1.00 -1.00 -1.00
  virtual crystal weights 
   VCA    =   1.00  1.00  1.00  1.00  1.00
   NELECT =    1134.0000    total number of electrons
   NUPDOWN=      -1.0000    fix difference up-down

 DOS related values:
   EMIN   =  10.00;   EMAX   =-10.00  energy-range for DOS
   EFERMI =   0.00
   ISMEAR =     0;   SIGMA  =   0.05  broadening in eV -4-tet -1-fermi 0-gaus

 Electronic relaxation 2 (details)
   IALGO  =     38    algorithm
   LDIAG  =      T    sub-space diagonalisation (order eigenvalues)
   LSUBROT=      F    optimize rotation matrix (better conditioning)
   TURBO    =      0    0=normal 1=particle mesh
   IRESTART =      0    0=no restart 2=restart with 2 vectors
   NREBOOT  =      0    no. of reboots
   NMIN     =      0    reboot dimension
   EREF     =   0.00    reference energy to select bands
   IMIX   =      4    mixing-type and parameters
     AMIX     =   0.40;   BMIX     =  0.01
     AMIX_MAG =   1.60;   BMIX_MAG =  0.01
     AMIN     =   0.01
     WC   =   100.;   INIMIX=   1;  MIXPRE=   1;  MAXMIX= -45

 Intra band minimization:
   WEIMIN = 0.0000     energy-eigenvalue tresh-hold
   EBREAK =  0.34E-07  absolut break condition
   DEPER  =   0.30     relativ break condition  

   TIME   =   0.40     timestep for ELM

  volume/ion in A,a.u.               =      62.72       423.28
  Fermi-wavevector in a.u.,A,eV,Ry     =   0.624944  1.180972  5.313816  0.390554
  Thomas-Fermi vector in A             =   1.685677
 
 Write flags
   LWAVE        =      F    write WAVECAR
   LDOWNSAMPLE  =      F    k-point downsampling of WAVECAR
   LCHARG       =      T    write CHGCAR
   LVTOT        =      T    write LOCPOT, total local potential
   LVHAR        =      F    write LOCPOT, Hartree potential only
   LELF         =      F    write electronic localiz. function (ELF)
   LORBIT       =      0    0 simple, 1 ext, 2 COOP (PROOUT), +10 PAW based schemes


 Dipole corrections
   LMONO  =      F    monopole corrections only (constant potential shift)
   LDIPOL =      T    correct potential (dipole corrections)
   IDIPOL =      3    1-x, 2-y, 3-z, 4-all directions 
   EPSILON=  1.0000000 bulk dielectric constant

 Exchange correlation treatment:
   GGA     =    --    GGA type
   LEXCH   =     8    internal setting for exchange type
   VOSKOWN=      0    Vosko Wilk Nusair interpolation
   LHFCALC =     F    Hartree Fock is set to
   LHFONE  =     F    Hartree Fock one center treatment
   AEXX    =    0.0000 exact exchange contribution

 Linear response parameters
   LEPSILON=     F    determine dielectric tensor
   LRPA    =     F    only Hartree local field effects (RPA)
   LNABLA  =     F    use nabla operator in PAW spheres
   LVEL    =     F    velocity operator in full k-point grid
   LINTERFAST=   F  fast interpolation
   KINTER  =     0    interpolate to denser k-point grid
   CSHIFT  =0.1000    complex shift for real part using Kramers Kronig
   OMEGAMAX=  -1.0    maximum frequency
   DEG_THRESHOLD= 0.2000000E-02 threshold for treating states as degnerate
   RTIME   =   -0.100 relaxation time in fs
  (WPLASMAI=    0.000 imaginary part of plasma frequency in eV, 0.658/RTIME)
   DFIELD  = 0.0000000 0.0000000 0.0000000 field for delta impulse in time
 
 Orbital magnetization related:
   ORBITALMAG=     F  switch on orbital magnetization
   LCHIMAG   =     F  perturbation theory with respect to B field
   DQ        =  0.001000  dq finite difference perturbation B field
   LLRAUG    =     F  two centre corrections for induced B field



--------------------------------------------------------------------------------------------------------


 Static calculation
 charge density and potential will be updated during run
 non-spin polarized calculation
 Variant of blocked Davidson
 Davidson routine will perform the subspace rotation
 perform sub-space diagonalisation
    after iterative eigenvector-optimisation
 modified Broyden-mixing scheme, WC =      100.0
 initial mixing is a Kerker type mixing with AMIX =  0.4000 and BMIX =      0.0100
 Hartree-type preconditioning will be used
 using additional bands           165
 real space projection scheme for non local part
[...]
     13.54561      0.00000     45.35368         0.004122     -0.004121      0.014196
     13.54315      9.03140     45.35368        -0.009779     -0.001532      0.011891
     14.34016      9.21045     32.28859        -0.190620      0.190148     -0.413601
     15.78278      9.11370     33.30496         0.062387     -0.133122     -0.195260
     13.66797     11.34779     33.48282         0.039908     -0.165305      0.034788
     13.86251     11.29981     35.22892        -0.092450      0.149955      0.031593
     12.35163      8.17555     34.58925        -0.117348     -0.139615      0.031420
     12.09731      9.85351     35.07449         0.020664     -0.012502     -0.019862
     14.43536      7.75546     35.55495         0.053513     -0.255658      0.053743
     15.65098      9.04126     35.66401         0.004570     -0.015999     -0.156732
     15.54506      6.83614     33.76001         0.003565     -0.032398     -0.072229
     13.82139      6.76585     33.43512        -0.121785      0.054912      0.113872
     14.04113      6.86411     31.10372        -0.025185     -0.027535     -0.124681
     15.68725      7.46857     31.15730         0.292385      0.320540     -0.300422
     16.20421     11.11154     33.20334        -0.121516      0.009693      0.157635
     16.34195     10.99640     34.98243         0.100023      0.006799     -0.060353
     15.73246     12.47871     34.22482        -0.108970     -0.071233      0.014524
     10.75496      9.39451     33.04864         0.291881     -0.103559      0.123900
     12.19403      8.79871     32.16472        -0.119508      0.094574      0.045929
     12.02602     10.53085     32.59864         0.032879     -0.071990     -0.013132
     12.92683      8.89111     37.10609        -0.030725      0.098595     -0.138031
     13.87290     10.41818     36.98751        -0.088463      0.148133     -0.012672
     14.56067      9.01003     37.73749         0.112047     -0.119351      0.171889
     14.94893      4.69848     32.17715         0.061801     -0.024972     -0.067445
     15.28433      5.00526     30.48244         0.043285     -0.096579     -0.020748
     16.82573      3.00847     31.21354        -0.069931     -0.027779     -0.000012
     17.54340      7.12231     32.27010         0.168508     -0.082744     -0.013826
      1.20006      2.53126     31.40180        -0.136646      0.087650     -0.019236
      1.91628      6.63529     32.44477        -0.030479      0.124277      0.105067
      2.78882      4.35806     31.97982        -0.089100      0.042166      0.061302
     17.98868      4.10745     35.07055         0.014255      0.321004      0.161608
      0.58656     13.95539     35.13936         0.511919      0.130136     -0.426671
      9.45149      4.87349     35.08014        -0.914661      0.085516      0.446144
      8.93820     13.83023     34.83370        -0.431492      0.191857      0.079327
      4.22153      9.24963     34.84550         0.352799      0.508447      0.071640
      4.76966     17.94285     34.76189         0.085144      0.146374      0.095562
     13.95653     17.76852     35.05553        -0.216431      0.057691      0.258029
      0.16210      4.36176     40.72430        -0.829478      0.902006      0.253321
      0.31215     13.76608     40.80355        -0.509619      0.653321     -0.163871
      9.15201      4.63905     40.57125        -0.607939      0.599767     -0.087659
      8.85714     13.68011     40.60658        -0.357974      0.426358      0.135324
      4.49028      8.93809     40.61243         0.318281      0.318208      0.099507
      4.51283     17.95143     40.54820        -0.269640     -0.299252      0.042889
     13.42930      9.29435     40.62099        -0.620968     -0.649293      0.327624
     13.51018     18.04715     40.63777         0.375905      0.387284      0.217165
      9.02897      4.51561     46.44552         0.014185      0.001546      0.035665
      9.02651     13.54701     46.44552         0.020205     -0.003619      0.054706
     18.05937      4.51561     46.44552         0.004104      0.013176      0.060241
     18.05691     13.54701     46.44552         0.021243     -0.000812      0.030813
      4.51521      0.00002     46.44421        -0.000932     -0.002420      0.068587
      4.51275      9.03142     46.44421        -0.008473     -0.006396      0.047815
     13.54561      0.00002     46.44421        -0.004709     -0.005829      0.045188
     13.54315      9.03142     46.44421        -0.022540     -0.020085      0.038409
     17.01311      5.10119     31.71780        -0.181830      0.276343     -0.146232
     17.51124      3.81089     31.48973         0.126491     -0.144340      0.030235
     17.91672      6.11410     32.06641        -0.294256     -0.034348      0.086228
      0.81545      3.54028     31.58383         0.348845      0.033928      0.114998
      1.21902      5.84158     32.18367         0.297277     -0.018425     -0.159469
      1.71758      4.56435     31.92249        -0.273144     -0.253663     -0.079753
     14.75031      8.76212     33.18423         0.397183     -0.363556      0.412307
     14.28189     10.93017     34.29161         0.081654     -0.057633     -0.070384
     12.51353      9.21361     34.28488         0.008459     -0.120428      0.030558
     14.57327      8.83136     35.65726        -0.192193      0.166384     -0.321413
     14.75751      7.22416     33.09700         0.028291      0.313568     -0.009201
     14.99768      6.77752     31.63501         0.057444     -0.087900      0.598687
     15.72719     11.37912     34.15951         0.000089     -0.008026      0.047021
     11.85215      9.50028     32.94192         0.117351      0.039086     -0.019892
     13.91378      9.33116     36.91894        -0.023101     -0.118806     -0.021849
     15.53280      5.34870     31.49898        -0.325175     -0.067875      0.012107
      1.03604      4.41881     35.70554         0.416319     -0.320502     -0.676732
      0.64195     12.78191     35.71970         0.349109     -0.151668     -0.201542
      9.99403      3.74868     35.48640        -0.038763     -0.090338      0.016541
      9.91144     13.07861     35.28379        -0.033586      0.334413     -0.343770
      8.19798      5.23635     35.34570         0.758596     -0.129401     -0.279857
      7.68175     13.70777     35.19714        -0.113473     -0.440009      0.175270
     16.79222      4.52682     35.43423         0.055740      0.024586      0.321531
     17.66798     14.82170     35.27493         0.118908      0.189205     -0.235893
      4.52265      8.13319     35.47242         0.512416      0.256068      0.239954
      3.52571      0.17410     35.06104         0.636069      0.639628      0.366588
     12.65905     17.74635     35.27578         0.269438      0.761952      0.395287
      5.82140      0.58093     35.14074        -0.488818      0.259998      0.277774
      4.83614     10.41027     35.03445         0.407590     -1.538467      0.692884
     14.77023      0.66233     35.45451        -0.773610      0.381691      0.250182
      1.04249      3.47704     41.07217         0.697173     -0.727385     -0.528333
      0.91768     12.69500     41.22816         0.518175     -0.485497     -0.092666
      9.82759      3.60522     40.99451         0.577007     -0.408837     -0.445306
      9.56209     12.92246     41.41330        -0.151968      0.078166      0.546955
      3.87822      8.05294     41.36436         0.268132      0.307559      0.228445
      3.54791     17.24470     41.10762         0.813653      0.710592      0.276779
     12.64293      8.37718     41.15640         0.597859      0.248836      0.329379
     12.68247     17.27546     41.29839         0.182057      0.235712      0.266288
      8.28542      5.33342     41.29056         0.353657     -0.065139     -0.647061
      8.00407     14.61318     40.98355         0.222365     -0.286218     -0.146752
     17.48593      5.08006     41.55682         0.386517     -0.407152     -0.397701
     17.24488     14.25690     41.27461        -0.189427     -0.325893      0.476979
      5.36348      0.68266     41.16198        -0.690867     -0.383409      0.651919
      5.32287      9.87515     41.03943        -0.419740     -0.368209     -0.455889
     14.31157      0.89469     41.17252        -0.179287     -0.263703     -0.510343
     14.45105      9.85659     41.20094         0.153009     -0.018495      0.247787
      0.82731      3.68697     47.03596         0.023237     -0.030401     -0.105062
      0.82485     12.71837     47.03596         0.015080     -0.017050     -0.079436
      9.85771      3.68697     47.03596         0.020129     -0.021319     -0.089548
      9.85525     12.71837     47.03596         0.013180     -0.013177     -0.086309
      3.68432      8.20234     47.03465        -0.007149     -0.008792     -0.073728
      3.68186     17.23373     47.03465        -0.007563     -0.004741     -0.073472
     12.71472      8.20234     47.03465         0.003329      0.000968     -0.069543
     12.71226     17.23373     47.03465        -0.008783     -0.010245     -0.072403
      8.20068      5.34457     47.03603        -0.023238      0.021229     -0.090832
      8.19822     14.37597     47.03603        -0.026797      0.021171     -0.096471
     17.23108      5.34457     47.03603        -0.015174      0.010697     -0.107735
     17.22862     14.37597     47.03603        -0.025077      0.020048     -0.078057
      5.34365      0.82909     47.03465         0.007132      0.010487     -0.084853
      5.34119      9.86049     47.03465         0.015403      0.015756     -0.069108
     14.37405      0.82909     47.03465         0.014773      0.015404     -0.071743
     14.37159      9.86049     47.03465         0.027403      0.030175     -0.077876
     14.02916      9.41432     34.34393        -0.061465      0.360040     -0.000752
      9.15961     17.64817     34.67548        -0.027984      0.036750     -0.082563
      8.23312      8.78142     34.64386         0.096161      0.009142     -0.000461
      0.09772      0.27869     34.55373        -0.053340     -0.036262     -0.091519
      0.67489      8.92798     34.72314        -0.239548     -0.008662      0.024895
      4.52903      4.43096     34.75410        -0.032414     -0.002138     -0.046932
      4.23800     13.89519     34.48375        -0.024820      0.056524     -0.064090
     13.41272      4.01962     34.70407        -0.051860     -0.011687     -0.054321
     12.93531     14.36868     34.31259         0.220290     -0.150660      0.194511
     18.00858     17.87559     40.90874        -0.017694      0.011086      0.007699
      0.07594      9.04701     40.99622        -0.011378      0.020449     -0.118052
      8.99197      0.12670     40.97441        -0.007738     -0.031316     -0.146548
      8.99373      9.07609     40.90172        -0.019478      0.000110      0.060827
      4.68496      4.28406     40.99016        -0.003783      0.002702      0.002663
      4.46516     13.54210     40.86835         0.002883      0.028266      0.012074
     13.37531      4.57809     40.95316         0.013382      0.029227      0.054558
     13.60087     13.55418     40.87170        -0.001312     -0.003212     -0.092335
      2.60277      2.00222     38.05302        -0.053461     -0.040023      0.025699
      2.58197     11.04327     38.12407         0.028589     -0.058269     -0.017148
     11.64590      1.94636     38.05092        -0.014535     -0.011416      0.023034
     11.04814     11.49919     38.30023         0.127716     -0.105034     -0.213097
      6.58955      6.95752     38.30774         0.011153      0.041474     -0.047170
      6.57902     16.01569     37.93445        -0.047105     -0.016317      0.008867
     16.07766      6.51136     38.46031        -0.053808      0.191230     -0.249616
     15.64396     15.99773     37.95422        -0.027822      0.056477      0.007629
      2.17081      6.59171     38.31626         0.016817      0.079604      0.014038
      2.13919     15.82938     37.91578        -0.010913     -0.014422      0.038794
     11.12508      6.68463     37.88215         0.040344      0.014094     -0.040543
     11.20009     15.68800     38.22526         0.053342     -0.065560      0.073099
      7.19136      2.59317     37.82722         0.014281     -0.011440      0.000106
      6.80051     11.45689     37.89978         0.034064      0.007301      0.013750
     15.99905      2.48327     38.36651        -0.014306     -0.077589     -0.058674
     16.45455     11.91596     38.31853        -0.185051     -0.223477     -0.214812
      0.00000      0.00000     47.17356         0.001515      0.004468      0.387089
     -0.00246      9.03140     47.17356        -0.003483      0.000497      0.514343
      9.03040      0.00000     47.17356        -0.002576     -0.002023      0.509248
      9.02794      9.03140     47.17356        -0.003434      0.002254      0.446523
      4.51398      4.51570     47.17425        -0.001637     -0.006788      0.489654
      4.51152     13.54710     47.17425         0.002905      0.003031      0.372231
     13.54438      4.51570     47.17425         0.002693     -0.002494      0.434561
     13.54192     13.54710     47.17425         0.002227     -0.002065      0.335920
      2.45192      2.06295     44.04013         0.021812     -0.069379      0.019054
      2.44946     11.09435     44.04013         0.053708     -0.036077      0.047993
     11.48232      2.06295     44.04013        -0.007265     -0.016936     -0.042265
     11.47986     11.09435     44.04013         0.005146      0.024352     -0.019401
      6.57602      6.96845     44.04013        -0.060814      0.015411      0.005482
      6.57356     15.99985     44.04013        -0.013346      0.000041     -0.012286
     15.60642      6.96845     44.04013        -0.057857      0.045309     -0.034832
     15.60396     15.99985     44.04013        -0.041405      0.022075      0.015711
      2.06108      6.57881     44.04000        -0.010094     -0.072953      0.049608
      2.05862     15.61021     44.04000         0.031268      0.044541      0.020781
     11.09148      6.57881     44.04000         0.022402      0.021895     -0.008982
     11.08902     15.61021     44.04000        -0.026802     -0.039042      0.024506
      6.96686      2.45259     44.04007         0.021305      0.003670      0.008662
      6.96440     11.48399     44.04007        -0.030641      0.000418     -0.046466
     15.99726      2.45259     44.04007         0.013784     -0.000664     -0.013708
     15.99481     11.48399     44.04007         0.047366      0.061270     -0.048104
      2.43163      2.08322     50.06849        -0.001297     -0.020545      0.021002
      2.42917     11.11462     50.06849         0.018442     -0.000598      0.024120
     11.46203      2.08322     50.06849         0.013572     -0.007391      0.023504
     11.45957     11.11462     50.06849         0.018467     -0.000555      0.023311
      6.59631      6.94818     50.06849        -0.006781      0.013780      0.023921
      6.59385     15.97958     50.06849        -0.018006      0.001999      0.022293
     15.62671      6.94818     50.06849        -0.013582      0.005464      0.022804
     15.62425     15.97958     50.06849        -0.012774      0.008718      0.023333
      2.08113      6.59901     50.06905        -0.011293     -0.009538      0.023472
      2.07867     15.63041     50.06905        -0.011176     -0.007486      0.023005
     11.11153      6.59901     50.06905        -0.009265     -0.009641      0.024464
     11.10907     15.63041     50.06905         0.002376     -0.022513      0.023039
      6.94681      2.43239     50.06905         0.010057      0.007155      0.023054
      6.94435     11.46379     50.06905         0.004885      0.016516      0.023893
     15.97721      2.43239     50.06905         0.016273      0.003717      0.022982
     15.97475     11.46379     50.06905        -0.002895      0.022449      0.022843
     18.04844      0.13846     37.80234        -0.017638     -0.008337      0.026205
      0.13769      9.09436     37.81982         0.016749     -0.000333      0.039314
      9.09344     17.95191     37.77878        -0.043050      0.040178      0.005372
      8.92083      9.01240     37.70095         0.070933      0.038105      0.011326
      4.55934      4.54084     37.88679         0.067763     -0.021453     -0.041833
      4.36746     13.67299     37.71503         0.075404      0.012087      0.037406
     13.55861      4.57112     37.88024        -0.034248      0.023712      0.032329
     13.54311     13.65400     37.72558        -0.059527      0.056865      0.012469
      0.00001      0.00001     44.04300        -0.060641     -0.103278      0.160761
     -0.00245      9.03141     44.04300         0.099786     -0.051960      0.233590
      9.03041      0.00001     44.04300         0.015852     -0.007369      0.186238
      9.02795      9.03141     44.04300         0.068521     -0.014325      0.040915
      4.51397      4.51569     44.04275         0.018652      0.061492      0.224501
      4.51151     13.54709     44.04275        -0.087212     -0.016713      0.080551
     13.54437      4.51569     44.04275        -0.045804      0.031872      0.189742
     13.54191     13.54709     44.04275        -0.083349      0.035163      0.115598
      0.00000      0.00000     50.44728         0.004038      0.008344     -0.619966
     -0.00246      9.03140     50.44728         0.003960     -0.008879     -0.653030
      9.03040      0.00000     50.44728        -0.003568      0.011239     -0.652032
      9.02794      9.03140     50.44728        -0.005264     -0.009558     -0.638698
      4.51397      4.51570     50.44728         0.005005      0.005348     -0.645278
      4.51151     13.54710     50.44728         0.003531     -0.004985     -0.617710
     13.54437      4.51570     50.44728        -0.005577      0.004082     -0.633071
     13.54191     13.54710     50.44728        -0.003381     -0.004363     -0.607558
 -----------------------------------------------------------------------------------
    total drift:                                0.045931     -0.066573      0.636717


--------------------------------------------------------------------------------------------------------



  FREE ENERGIE OF THE ION-ELECTRON SYSTEM (eV)
  ---------------------------------------------------
  free  energy   TOTEN  =     -1575.24947697 eV

  energy  without entropy=    -1575.24947697  energy(sigma->0) =    -1575.24947697
 


--------------------------------------------------------------------------------------------------------


    POTLOK:  cpu time    0.5034: real time    0.5034


--------------------------------------------------------------------------------------------------------


     LOOP+:  cpu time  265.6451: real time  266.2161
 vacuum level on the upper side and lower side of the slab         2.303         1.588
    4ORBIT:  cpu time    0.0000: real time    0.0000

 total amount of memory used by VASP MPI-rank0  8653575. kBytes
=======================================================================

   base      :      30000. kBytes
   nonlr-proj:      53613. kBytes
   fftplans  :     249280. kBytes
   grid      :     701440. kBytes
   one-center:       2636. kBytes
   wavefun   :    7616606. kBytes
 
  
  
 General timing and accounting informations for this job:
 ========================================================
  
                  Total CPU time used (sec):      476.570
                            User time (sec):      389.003
                          System time (sec):       87.567
                         Elapsed time (sec):      479.550
  
                   Maximum memory used (kb):    10309584.
                   Average memory used (kb):          N/A
  
                          Minor page faults:      3542736
                          Major page faults:           13
                 Voluntary context switches:        10630
