<?xml version="1.0" encoding="ISO-8859-1"?>
<modeling>
 <generator>
  <i name="program" type="string">vasp </i>
  <i name="version" type="string">6.2.1  </i>
  <i name="subversion" type="string">16May21 (build Nov 15 2021 14:57:28) complex                          parallel </i>
  <i name="platform" type="string">LinuxPGI </i>
  <i name="date" type="string">2023 07 30 </i>
  <i name="time" type="string">12:06:14 </i>
 </generator>
 <incar>
  <i type="string" name="SYSTEM">PSC</i>
  <i type="int" name="ISTART">     1</i>
  <i type="string" name="PREC">Normal</i>
  <i name="BMIX">      0.01000000</i>
  <i name="AMIN">      0.01000000</i>
  <i type="int" name="ICHARG">     1</i>
  <i type="int" name="NELM">   600</i>
  <i type="int" name="ISYM">     0</i>
  <i name="ENCUT">    500.00000000</i>
  <i type="string" name="LREAL">Auto</i>
  <i type="int" name="ISMEAR">     0</i>
  <i name="SIGMA">      0.05000000</i>
  <i type="logical" name="LWAVE"> F  </i>
  <i type="logical" name="LVTOT"> T  </i>
  <i type="logical" name="GGA_COMPAT"> F  </i>
  <i type="logical" name="LDIPOL"> T  </i>
  <i type="int" name="IDIPOL">     3</i>
  <i type="int" name="IVDW">    12</i>
 </incar>
 <primitive_cell>
  <structure name="primitive_cell" >
   <crystal>
    <varray name="basis" >
     <v>      18.06080055       0.00000000       0.00000000 </v>
     <v>      -0.00491865      18.06279945       0.00000000 </v>
     <v>       0.00000000       0.00000000      62.48749924 </v>
    </varray>
    <i name="volume">  20385.21054034 </i>
    <varray name="rec_basis" >
     <v>       0.05536853       0.00001508      -0.00000000 </v>
     <v>       0.00000000       0.05536240       0.00000000 </v>
     <v>       0.00000000      -0.00000000       0.01600320 </v>
    </varray>
   </crystal>
   <varray name="positions" >
    <v>       0.42044921       0.25718812       0.57506100 </v>
    <v>       0.40988595       0.71868307       0.57430725 </v>
    <v>       0.92056249       0.28051021       0.58100012 </v>
    <v>       0.93841208       0.81520857       0.57590236 </v>
    <v>       0.31808501       0.07750073       0.57248926 </v>
    <v>       0.30965845       0.58071354       0.57212255 </v>
    <v>       0.79924053       0.08096984       0.57647211 </v>
    <v>       0.10866574       0.22976676       0.56511309 </v>
    <v>       0.08109640       0.67424678       0.56956509 </v>
    <v>       0.60940886       0.19977122       0.56557559 </v>
    <v>       0.60141259       0.74066750       0.56055444 </v>
    <v>       0.37486929       0.01334531       0.55906543 </v>
    <v>       0.25278309       0.62230419       0.55272554 </v>
    <v>       0.87259696       0.03348669       0.56377017 </v>
    <v>       0.05965871       0.28035261       0.58404974 </v>
    <v>       0.99777946       0.69085578       0.58291725 </v>
    <v>       0.52577144       0.17230340       0.57803743 </v>
    <v>       0.54360276       0.68760983       0.57689365 </v>
    <v>       0.29457361       0.44516029       0.57829224 </v>
    <v>       0.18176154       0.05307718       0.57125531 </v>
    <v>       0.67530031       0.02338317       0.57357554 </v>
    <v>       0.43731815       0.34249041       0.56130233 </v>
    <v>       0.38410927       0.79032522       0.55682762 </v>
    <v>       0.88286900       0.22895193       0.56040286 </v>
    <v>       0.98534405       0.87324264       0.55847901 </v>
    <v>       0.22295266       0.40283396       0.56419530 </v>
    <v>       0.15257759       0.97982262       0.55536786 </v>
    <v>       0.67295544       0.93587287       0.56056463 </v>
    <v>       0.55786561       0.30710552       0.55192344 </v>
    <v>       0.50880153       0.81053703       0.54631459 </v>
    <v>       0.00048963       0.19285590       0.54689271 </v>
    <v>       0.07989078       0.78785535       0.55173212 </v>
    <v>       0.18771220       0.51034149       0.54630672 </v>
    <v>       0.27441396       0.94386099       0.54660744 </v>
    <v>       0.79583373       0.93585746       0.55247592 </v>
    <v>       0.44686131       0.28347794       0.67623254 </v>
    <v>       0.43146925       0.82098305       0.67162640 </v>
    <v>       0.97092831       0.27701218       0.68113740 </v>
    <v>       0.92633875       0.76567023       0.67304294 </v>
    <v>       0.29536562       0.04724483       0.67492631 </v>
    <v>       0.30950672       0.55317853       0.67243399 </v>
    <v>       0.79466760       0.06105141       0.67490159 </v>
    <v>       0.81628477       0.53600824       0.67460484 </v>
    <v>       0.08632882       0.16513499       0.64530406 </v>
    <v>       0.10019129       0.68785444       0.65275977 </v>
    <v>       0.58024904       0.17374791       0.64556027 </v>
    <v>       0.56346671       0.67671840       0.65631969 </v>
    <v>       0.18095919       0.40840889       0.65484692 </v>
    <v>       0.16456536       0.92315698       0.64828079 </v>
    <v>       0.65790761       0.44276484       0.64984806 </v>
    <v>       0.67077987       0.92032993       0.65252126 </v>
    <v>       0.07066378       0.17871023       0.67270932 </v>
    <v>       0.03272873       0.66928876       0.67177975 </v>
    <v>       0.54198467       0.17893423       0.67124998 </v>
    <v>       0.52551361       0.71679038       0.67917405 </v>
    <v>       0.22023545       0.44408158       0.67826206 </v>
    <v>       0.18753580       0.95437327       0.67401988 </v>
    <v>       0.70609622       0.44408618       0.67404491 </v>
    <v>       0.69653407       0.95796650       0.67720265 </v>
    <v>       0.43255234       0.33939913       0.65382834 </v>
    <v>       0.41601022       0.83814389       0.64413237 </v>
    <v>       0.93180051       0.31815262       0.65904393 </v>
    <v>       0.93376771       0.83761354       0.65476817 </v>
    <v>       0.33583317       0.06429172       0.65018461 </v>
    <v>       0.31678849       0.58265565       0.64574177 </v>
    <v>       0.82588944       0.07947481       0.64867045 </v>
    <v>       0.83025988       0.58473429       0.65181024 </v>
    <v>       0.00001565       0.25243962       0.63474952 </v>
    <v>       0.04302856       0.79266875       0.63976279 </v>
    <v>       0.51476521       0.27556908       0.63259827 </v>
    <v>       0.49821859       0.74868288       0.63265535 </v>
    <v>       0.25644298       0.98757281       0.63169611 </v>
    <v>       0.23714208       0.49193710       0.63278849 </v>
    <v>       0.75021238       0.99215252       0.63299550 </v>
    <v>       0.73034491       0.53242513       0.63404662 </v>
    <v>       0.44874502       0.30128397       0.76888902 </v>
    <v>       0.44874501       0.80128391       0.76888902 </v>
    <v>       0.94874497       0.30128397       0.76888902 </v>
    <v>       0.94874501       0.80128391       0.76888902 </v>
    <v>       0.30127600       0.05129450       0.76887296 </v>
    <v>       0.30127601       0.55129450       0.76887296 </v>
    <v>       0.80127594       0.05129450       0.76887296 </v>
    <v>       0.80127598       0.55129450       0.76887296 </v>
    <v>       0.07877100       0.17118050       0.74344197 </v>
    <v>       0.07877101       0.67118045       0.74344197 </v>
    <v>       0.57877100       0.17118050       0.74344197 </v>
    <v>       0.57877099       0.67118045       0.74344197 </v>
    <v>       0.17119950       0.42117448       0.74342103 </v>
    <v>       0.17119950       0.92117451       0.74342103 </v>
    <v>       0.67119951       0.42117448       0.74342103 </v>
    <v>       0.67119950       0.92117451       0.74342103 </v>
    <v>       0.05125600       0.19871499       0.76888902 </v>
    <v>       0.05125600       0.69871493       0.76888902 </v>
    <v>       0.55125603       0.19871499       0.76888902 </v>
    <v>       0.55125602       0.69871493       0.76888902 </v>
    <v>       0.19872349       0.44870397       0.76887205 </v>
    <v>       0.19872349       0.94870397       0.76887205 </v>
    <v>       0.69872352       0.44870397       0.76887205 </v>
    <v>       0.69872351       0.94870397       0.76887205 </v>
    <v>       0.42123152       0.32881747       0.74344197 </v>
    <v>       0.42123151       0.82881744       0.74344197 </v>
    <v>       0.92123147       0.32881747       0.74344197 </v>
    <v>       0.92123151       0.82881744       0.74344197 </v>
    <v>       0.32880050       0.07882500       0.74342103 </v>
    <v>       0.32880049       0.57882496       0.74342103 </v>
    <v>       0.82880048       0.07882500       0.74342103 </v>
    <v>       0.82880052       0.57882496       0.74342103 </v>
    <v>       0.00000350       0.25000148       0.72582199 </v>
    <v>       0.00000350       0.75000145       0.72582199 </v>
    <v>       0.50000351       0.25000148       0.72582199 </v>
    <v>       0.50000350       0.75000145       0.72582199 </v>
    <v>       0.25000050       0.00000000       0.72580398 </v>
    <v>       0.25000052       0.50000000       0.72580398 </v>
    <v>       0.75000050       0.00000000       0.72580398 </v>
    <v>       0.75000049       0.50000000       0.72580398 </v>
    <v>       0.79413264       0.50991240       0.51672078 </v>
    <v>       0.87400679       0.50455644       0.53298594 </v>
    <v>       0.75694677       0.62824118       0.53583227 </v>
    <v>       0.76771728       0.62558488       0.56377554 </v>
    <v>       0.68401473       0.45261807       0.55353875 </v>
    <v>       0.66995880       0.54551426       0.56130410 </v>
    <v>       0.79938135       0.42936082       0.56899302 </v>
    <v>       0.86670825       0.50054609       0.57073836 </v>
    <v>       0.86080996       0.37846502       0.54026828 </v>
    <v>       0.76537214       0.37457367       0.53506900 </v>
    <v>       0.77754024       0.38001339       0.49775901 </v>
    <v>       0.86869282       0.41347784       0.49861651 </v>
    <v>       0.89737064       0.61516161       0.53135970 </v>
    <v>       0.90499532       0.60878734       0.55983078 </v>
    <v>       0.87127109       0.69085145       0.54770665 </v>
    <v>       0.59562804       0.52010262       0.52888398 </v>
    <v>       0.67529839       0.48711799       0.51473851 </v>
    <v>       0.66602174       0.58301335       0.52168253 </v>
    <v>       0.71587377       0.49223346       0.59381622 </v>
    <v>       0.76827939       0.57677530       0.59191862 </v>
    <v>       0.80633870       0.49881675       0.60392066 </v>
    <v>       0.82777123       0.26011892       0.51493741 </v>
    <v>       0.84634660       0.27710344       0.48781656 </v>
    <v>       0.93166139       0.16655637       0.49951647 </v>
    <v>       0.97145977       0.39430837       0.51642495 </v>
    <v>       0.06648372       0.14013648       0.50252925 </v>
    <v>       0.10620180       0.36734564       0.51922012 </v>
    <v>       0.15447880       0.24127265       0.51177955 </v>
    <v>       0.99606861       0.22739817       0.56124110 </v>
    <v>       0.03268723       0.77260410       0.56234227 </v>
    <v>       0.52338836       0.26980838       0.56139457 </v>
    <v>       0.49510374       0.76567482       0.55745067 </v>
    <v>       0.23387940       0.51208149       0.55763955 </v>
    <v>       0.26435975       0.99335907       0.55630157 </v>
    <v>       0.77302058       0.98370772       0.56100076 </v>
    <v>       0.00904110       0.24147776       0.65171910 </v>
    <v>       0.01749062       0.76212312       0.65298748 </v>
    <v>       0.50680356       0.25682896       0.64926982 </v>
    <v>       0.49061328       0.75736377       0.64983518 </v>
    <v>       0.24875482       0.49483438       0.64992894 </v>
    <v>       0.25013939       0.99383425       0.64890097 </v>
    <v>       0.74370061       0.51455754       0.65006593 </v>
    <v>       0.74831076       0.99913345       0.65033436 </v>
    <v>       0.49998898       0.24999498       0.74327702 </v>
    <v>       0.49998903       0.74999496       0.74327702 </v>
    <v>       0.99998898       0.24999498       0.74327702 </v>
    <v>       0.99998903       0.74999496       0.74327702 </v>
    <v>       0.25000050       0.00000100       0.74325596 </v>
    <v>       0.25000052       0.50000100       0.74325596 </v>
    <v>       0.75000050       0.00000100       0.74325596 </v>
    <v>       0.75000049       0.50000100       0.74325596 </v>
    <v>       0.94206789       0.28241438       0.50758633 </v>
    <v>       0.96962899       0.21098007       0.50393643 </v>
    <v>       0.99211473       0.33849127       0.51316520 </v>
    <v>       0.04520358       0.19599843       0.50544237 </v>
    <v>       0.06758357       0.32340380       0.51504180 </v>
    <v>       0.09516864       0.25269318       0.51086194 </v>
    <v>       0.81683500       0.48509178       0.53105391 </v>
    <v>       0.79093233       0.60512038       0.54877553 </v>
    <v>       0.69299468       0.51008737       0.54866785 </v>
    <v>       0.80703359       0.48892526       0.57063031 </v>
    <v>       0.81721048       0.39994711       0.52965788 </v>
    <v>       0.83050158       0.37521960       0.50626148 </v>
    <v>       0.87096308       0.62997527       0.54666152 </v>
    <v>       0.65637964       0.52595810       0.52717618 </v>
    <v>       0.77052605       0.51659569       0.59082117 </v>
    <v>       0.86010874       0.29611710       0.50408453 </v>
    <v>       0.05743071       0.24463607       0.57140292 </v>
    <v>       0.03573647       0.70763737       0.57162953 </v>
    <v>       0.55341139       0.20753585       0.56789600 </v>
    <v>       0.54897917       0.72406342       0.56465365 </v>
    <v>       0.45398895       0.28989719       0.56564439 </v>
    <v>       0.42553407       0.75889512       0.56326696 </v>
    <v>       0.92982887       0.25061578       0.56706111 </v>
    <v>       0.97847348       0.82056511       0.56451177 </v>
    <v>       0.25053489       0.45027312       0.56767220 </v>
    <v>       0.19521598       0.00963875       0.56108891 </v>
    <v>       0.70118033       0.98248079       0.56452539 </v>
    <v>       0.32233095       0.03216156       0.56236425 </v>
    <v>       0.26792673       0.57633751       0.56066341 </v>
    <v>       0.81781579       0.03666840       0.56738570 </v>
    <v>       0.05777384       0.19249727       0.65728625 </v>
    <v>       0.05100213       0.70282549       0.65978260 </v>
    <v>       0.54419347       0.19959360       0.65604339 </v>
    <v>       0.52963366       0.71541827       0.66274529 </v>
    <v>       0.21485302       0.44582998       0.66196211 </v>
    <v>       0.19670275       0.95470826       0.65785344 </v>
    <v>       0.70014682       0.46378088       0.65863412 </v>
    <v>       0.70247035       0.95641112       0.66090648 </v>
    <v>       0.45883171       0.29527084       0.66078115 </v>
    <v>       0.44339410       0.80902094       0.65586794 </v>
    <v>       0.96824705       0.28124423       0.66504207 </v>
    <v>       0.95503886       0.78929598       0.66052585 </v>
    <v>       0.29697807       0.03779370       0.65872343 </v>
    <v>       0.29486853       0.54671208       0.65676222 </v>
    <v>       0.79242432       0.04953192       0.65889216 </v>
    <v>       0.80028196       0.54568437       0.65934690 </v>
    <v>       0.04586250       0.20411950       0.75272599 </v>
    <v>       0.04586250       0.70411946       0.75272599 </v>
    <v>       0.54586251       0.20411950       0.75272599 </v>
    <v>       0.54586250       0.70411946       0.75272599 </v>
    <v>       0.20411900       0.45410100       0.75270499 </v>
    <v>       0.20411899       0.95410095       0.75270499 </v>
    <v>       0.70411898       0.45410100       0.75270499 </v>
    <v>       0.70411896       0.95410095       0.75270499 </v>
    <v>       0.45414002       0.29588849       0.75272697 </v>
    <v>       0.45414001       0.79588852       0.75272697 </v>
    <v>       0.95414002       0.29588849       0.75272697 </v>
    <v>       0.95414006       0.79588852       0.75272697 </v>
    <v>       0.29588249       0.04590050       0.75270499 </v>
    <v>       0.29588248       0.54590053       0.75270499 </v>
    <v>       0.79588244       0.04590050       0.75270499 </v>
    <v>       0.79588248       0.54590053       0.75270499 </v>
    <v>       0.77691590       0.52119965       0.54961286 </v>
    <v>       0.50742025       0.97704531       0.55491867 </v>
    <v>       0.45598827       0.48616056       0.55441265 </v>
    <v>       0.00541469       0.01542887       0.55297028 </v>
    <v>       0.03750215       0.49427456       0.55568146 </v>
    <v>       0.25083267       0.24530850       0.55617685 </v>
    <v>       0.23486146       0.76927087       0.55185043 </v>
    <v>       0.74270346       0.22253569       0.55537628 </v>
    <v>       0.71642572       0.79548472       0.54911129 </v>
    <v>       0.99737811       0.98963587       0.65467074 </v>
    <v>       0.00434092       0.50086430       0.65607074 </v>
    <v>       0.49787435       0.00701429       0.65572173 </v>
    <v>       0.49810665       0.50247399       0.65455847 </v>
    <v>       0.25946391       0.23717565       0.65597379 </v>
    <v>       0.24743376       0.74972331       0.65402443 </v>
    <v>       0.74064008       0.25345418       0.65538163 </v>
    <v>       0.75326441       0.75039179       0.65407797 </v>
    <v>       0.14414193       0.11084793       0.60897007 </v>
    <v>       0.14312630       0.61138224       0.61010714 </v>
    <v>       0.64484571       0.10775541       0.60893649 </v>
    <v>       0.61189269       0.63662303       0.61292624 </v>
    <v>       0.36495842       0.38518514       0.61304644 </v>
    <v>       0.36451189       0.88666699       0.60707265 </v>
    <v>       0.89029447       0.36048445       0.61548803 </v>
    <v>       0.86642403       0.88567270       0.60738900 </v>
    <v>       0.12029373       0.36493305       0.61318282 </v>
    <v>       0.11868263       0.87635258       0.60677377 </v>
    <v>       0.61608040       0.37007739       0.60623570 </v>
    <v>       0.62036904       0.86852527       0.61172648 </v>
    <v>       0.39821430       0.14356412       0.60535667 </v>
    <v>       0.37670725       0.63428124       0.60651786 </v>
    <v>       0.88588156       0.13747953       0.61398694 </v>
    <v>       0.91124402       0.65969610       0.61321921 </v>
    <v>       0.00000000       0.00000000       0.75492797 </v>
    <v>       0.00000000       0.50000000       0.75492797 </v>
    <v>       0.50000000       0.00000000       0.75492797 </v>
    <v>       0.49999999       0.50000000       0.75492797 </v>
    <v>       0.25000050       0.25000000       0.75493902 </v>
    <v>       0.25000051       0.74999997       0.75493902 </v>
    <v>       0.75000047       0.25000000       0.75493902 </v>
    <v>       0.75000046       0.74999997       0.75493902 </v>
    <v>       0.13579050       0.11421000       0.70478299 </v>
    <v>       0.13579050       0.61420998       0.70478299 </v>
    <v>       0.63579045       0.11421000       0.70478299 </v>
    <v>       0.63579049       0.61420998       0.70478299 </v>
    <v>       0.36420952       0.38578999       0.70478299 </v>
    <v>       0.36420950       0.88578996       0.70478299 </v>
    <v>       0.86420954       0.38578999       0.70478299 </v>
    <v>       0.86420953       0.88578996       0.70478299 </v>
    <v>       0.11421799       0.36421899       0.70478098 </v>
    <v>       0.11421799       0.86421899       0.70478098 </v>
    <v>       0.61421800       0.36421899       0.70478098 </v>
    <v>       0.61421799       0.86421899       0.70478098 </v>
    <v>       0.38578201       0.13578149       0.70478202 </v>
    <v>       0.38578200       0.63578149       0.70478202 </v>
    <v>       0.88578199       0.13578149       0.70478202 </v>
    <v>       0.88578203       0.63578149       0.70478202 </v>
    <v>       0.13466700       0.11533200       0.80125603 </v>
    <v>       0.13466699       0.61533199       0.80125603 </v>
    <v>       0.63466699       0.11533200       0.80125603 </v>
    <v>       0.63466698       0.61533199       0.80125603 </v>
    <v>       0.36533300       0.38466799       0.80125603 </v>
    <v>       0.36533299       0.88466796       0.80125603 </v>
    <v>       0.86533295       0.38466799       0.80125603 </v>
    <v>       0.86533294       0.88466796       0.80125603 </v>
    <v>       0.11532850       0.36533700       0.80126500 </v>
    <v>       0.11532850       0.86533698       0.80126500 </v>
    <v>       0.61532850       0.36533700       0.80126500 </v>
    <v>       0.61532849       0.86533698       0.80126500 </v>
    <v>       0.38467151       0.13466300       0.80126500 </v>
    <v>       0.38467150       0.63466297       0.80126500 </v>
    <v>       0.88467149       0.13466300       0.80126500 </v>
    <v>       0.88467153       0.63466297       0.80126500 </v>
    <v>       0.99931783       0.00766550       0.60495846 </v>
    <v>       0.00776072       0.50348549       0.60523812 </v>
    <v>       0.50376116       0.99386116       0.60458137 </v>
    <v>       0.49406897       0.49894816       0.60333588 </v>
    <v>       0.25251263       0.25139180       0.60630987 </v>
    <v>       0.24202588       0.75696953       0.60356127 </v>
    <v>       0.75078950       0.25306818       0.60620511 </v>
    <v>       0.75006797       0.75591823       0.60373007 </v>
    <v>       0.00000050       0.00000050       0.70482896 </v>
    <v>       0.00000050       0.50000048       0.70482896 </v>
    <v>       0.50000048       0.00000050       0.70482896 </v>
    <v>       0.50000046       0.50000048       0.70482896 </v>
    <v>       0.24999999       0.24999947       0.70482499 </v>
    <v>       0.25000001       0.74999950       0.70482499 </v>
    <v>       0.74999999       0.24999947       0.70482499 </v>
    <v>       0.74999998       0.74999950       0.70482499 </v>
    <v>       0.00000000       0.00000000       0.80731797 </v>
    <v>       0.00000000       0.50000000       0.80731797 </v>
    <v>       0.50000000       0.00000000       0.80731797 </v>
    <v>       0.49999999       0.50000000       0.80731797 </v>
    <v>       0.24999999       0.25000000       0.80731797 </v>
    <v>       0.25000001       0.74999997       0.80731797 </v>
    <v>       0.74999999       0.25000000       0.80731797 </v>
    <v>       0.74999998       0.74999997       0.80731797 </v>
   </varray>
  </structure>
  <varray name="primitive_index" >
   <v type="int" >        1 </v>
   <v type="int" >        2 </v>
   <v type="int" >        3 </v>
   <v type="int" >        4 </v>
   <v type="int" >        5 </v>
   <v type="int" >        6 </v>
   <v type="int" >        7 </v>
   <v type="int" >        8 </v>
   <v type="int" >        9 </v>
   <v type="int" >       10 </v>
   <v type="int" >       11 </v>
   <v type="int" >       12 </v>
   <v type="int" >       13 </v>
   <v type="int" >       14 </v>
   <v type="int" >       15 </v>
   <v type="int" >       16 </v>
   <v type="int" >       17 </v>
   <v type="int" >       18 </v>
   <v type="int" >       19 </v>
   <v type="int" >       20 </v>
   <v type="int" >       21 </v>
   <v type="int" >       22 </v>
   <v type="int" >       23 </v>
   <v type="int" >       24 </v>
   <v type="int" >       25 </v>
   <v type="int" >       26 </v>
   <v type="int" >       27 </v>
   <v type="int" >       28 </v>
   <v type="int" >       29 </v>
   <v type="int" >       30 </v>
   <v type="int" >       31 </v>
   <v type="int" >       32 </v>
   <v type="int" >       33 </v>
   <v type="int" >       34 </v>
   <v type="int" >       35 </v>
   <v type="int" >       36 </v>
   <v type="int" >       37 </v>
   <v type="int" >       38 </v>
   <v type="int" >       39 </v>
   <v type="int" >       40 </v>
   <v type="int" >       41 </v>
   <v type="int" >       42 </v>
   <v type="int" >       43 </v>
   <v type="int" >       44 </v>
   <v type="int" >       45 </v>
   <v type="int" >       46 </v>
   <v type="int" >       47 </v>
   <v type="int" >       48 </v>
   <v type="int" >       49 </v>
   <v type="int" >       50 </v>
   <v type="int" >       51 </v>
   <v type="int" >       52 </v>
   <v type="int" >       53 </v>
   <v type="int" >       54 </v>
   <v type="int" >       55 </v>
   <v type="int" >       56 </v>
   <v type="int" >       57 </v>
   <v type="int" >       58 </v>
   <v type="int" >       59 </v>
   <v type="int" >       60 </v>
   <v type="int" >       61 </v>
   <v type="int" >       62 </v>
   <v type="int" >       63 </v>
   <v type="int" >       64 </v>
   <v type="int" >       65 </v>
   <v type="int" >       66 </v>
   <v type="int" >       67 </v>
   <v type="int" >       68 </v>
   <v type="int" >       69 </v>
   <v type="int" >       70 </v>
   <v type="int" >       71 </v>
   <v type="int" >       72 </v>
   <v type="int" >       73 </v>
   <v type="int" >       74 </v>
   <v type="int" >       75 </v>
   <v type="int" >       76 </v>
   <v type="int" >       77 </v>
   <v type="int" >       78 </v>
   <v type="int" >       79 </v>
   <v type="int" >       80 </v>
   <v type="int" >       81 </v>
   <v type="int" >       82 </v>
   <v type="int" >       83 </v>
   <v type="int" >       84 </v>
   <v type="int" >       85 </v>
   <v type="int" >       86 </v>
   <v type="int" >       87 </v>
   <v type="int" >       88 </v>
   <v type="int" >       89 </v>
   <v type="int" >       90 </v>
   <v type="int" >       91 </v>
   <v type="int" >       92 </v>
   <v type="int" >       93 </v>
   <v type="int" >       94 </v>
   <v type="int" >       95 </v>
   <v type="int" >       96 </v>
   <v type="int" >       97 </v>
   <v type="int" >       98 </v>
   <v type="int" >       99 </v>
   <v type="int" >      100 </v>
   <v type="int" >      101 </v>
   <v type="int" >      102 </v>
   <v type="int" >      103 </v>
   <v type="int" >      104 </v>
   <v type="int" >      105 </v>
   <v type="int" >      106 </v>
   <v type="int" >      107 </v>
   <v type="int" >      108 </v>
   <v type="int" >      109 </v>
   <v type="int" >      110 </v>
   <v type="int" >      111 </v>
   <v type="int" >      112 </v>
   <v type="int" >      113 </v>
   <v type="int" >      114 </v>
   <v type="int" >      115 </v>
   <v type="int" >      116 </v>
   <v type="int" >      117 </v>
   <v type="int" >      118 </v>
   <v type="int" >      119 </v>
   <v type="int" >      120 </v>
   <v type="int" >      121 </v>
   <v type="int" >      122 </v>
   <v type="int" >      123 </v>
   <v type="int" >      124 </v>
   <v type="int" >      125 </v>
   <v type="int" >      126 </v>
   <v type="int" >      127 </v>
   <v type="int" >      128 </v>
   <v type="int" >      129 </v>
   <v type="int" >      130 </v>
   <v type="int" >      131 </v>
   <v type="int" >      132 </v>
   <v type="int" >      133 </v>
   <v type="int" >      134 </v>
   <v type="int" >      135 </v>
   <v type="int" >      136 </v>
   <v type="int" >      137 </v>
   <v type="int" >      138 </v>
   <v type="int" >      139 </v>
   <v type="int" >      140 </v>
   <v type="int" >      141 </v>
   <v type="int" >      142 </v>
   <v type="int" >      143 </v>
   <v type="int" >      144 </v>
   <v type="int" >      145 </v>
   <v type="int" >      146 </v>
   <v type="int" >      147 </v>
   <v type="int" >      148 </v>
   <v type="int" >      149 </v>
   <v type="int" >      150 </v>
   <v type="int" >      151 </v>
   <v type="int" >      152 </v>
   <v type="int" >      153 </v>
   <v type="int" >      154 </v>
   <v type="int" >      155 </v>
   <v type="int" >      156 </v>
   <v type="int" >      157 </v>
   <v type="int" >      158 </v>
   <v type="int" >      159 </v>
   <v type="int" >      160 </v>
   <v type="int" >      161 </v>
   <v type="int" >      162 </v>
   <v type="int" >      163 </v>
   <v type="int" >      164 </v>
   <v type="int" >      165 </v>
   <v type="int" >      166 </v>
   <v type="int" >      167 </v>
   <v type="int" >      168 </v>
   <v type="int" >      169 </v>
   <v type="int" >      170 </v>
   <v type="int" >      171 </v>
   <v type="int" >      172 </v>
   <v type="int" >      173 </v>
   <v type="int" >      174 </v>
   <v type="int" >      175 </v>
   <v type="int" >      176 </v>
   <v type="int" >      177 </v>
   <v type="int" >      178 </v>
   <v type="int" >      179 </v>
   <v type="int" >      180 </v>
   <v type="int" >      181 </v>
   <v type="int" >      182 </v>
   <v type="int" >      183 </v>
   <v type="int" >      184 </v>
   <v type="int" >      185 </v>
   <v type="int" >      186 </v>
   <v type="int" >      187 </v>
   <v type="int" >      188 </v>
   <v type="int" >      189 </v>
   <v type="int" >      190 </v>
   <v type="int" >      191 </v>
   <v type="int" >      192 </v>
   <v type="int" >      193 </v>
   <v type="int" >      194 </v>
   <v type="int" >      195 </v>
   <v type="int" >      196 </v>
   <v type="int" >      197 </v>
   <v type="int" >      198 </v>
   <v type="int" >      199 </v>
   <v type="int" >      200 </v>
   <v type="int" >      201 </v>
   <v type="int" >      202 </v>
   <v type="int" >      203 </v>
   <v type="int" >      204 </v>
   <v type="int" >      205 </v>
   <v type="int" >      206 </v>
   <v type="int" >      207 </v>
   <v type="int" >      208 </v>
   <v type="int" >      209 </v>
   <v type="int" >      210 </v>
   <v type="int" >      211 </v>
   <v type="int" >      212 </v>
   <v type="int" >      213 </v>
   <v type="int" >      214 </v>
   <v type="int" >      215 </v>
   <v type="int" >      216 </v>
   <v type="int" >      217 </v>
   <v type="int" >      218 </v>
   <v type="int" >      219 </v>
   <v type="int" >      220 </v>
   <v type="int" >      221 </v>
   <v type="int" >      222 </v>
   <v type="int" >      223 </v>
   <v type="int" >      224 </v>
   <v type="int" >      225 </v>
   <v type="int" >      226 </v>
   <v type="int" >      227 </v>
   <v type="int" >      228 </v>
   <v type="int" >      229 </v>
   <v type="int" >      230 </v>
   <v type="int" >      231 </v>
   <v type="int" >      232 </v>
   <v type="int" >      233 </v>
   <v type="int" >      234 </v>
   <v type="int" >      235 </v>
   <v type="int" >      236 </v>
   <v type="int" >      237 </v>
   <v type="int" >      238 </v>
   <v type="int" >      239 </v>
   <v type="int" >      240 </v>
   <v type="int" >      241 </v>
   <v type="int" >      242 </v>
   <v type="int" >      243 </v>
   <v type="int" >      244 </v>
   <v type="int" >      245 </v>
   <v type="int" >      246 </v>
   <v type="int" >      247 </v>
   <v type="int" >      248 </v>
   <v type="int" >      249 </v>
   <v type="int" >      250 </v>
   <v type="int" >      251 </v>
   <v type="int" >      252 </v>
   <v type="int" >      253 </v>
   <v type="int" >      254 </v>
   <v type="int" >      255 </v>
   <v type="int" >      256 </v>
   <v type="int" >      257 </v>
   <v type="int" >      258 </v>
   <v type="int" >      259 </v>
   <v type="int" >      260 </v>
   <v type="int" >      261 </v>
   <v type="int" >      262 </v>
   <v type="int" >      263 </v>
   <v type="int" >      264 </v>
   <v type="int" >      265 </v>
   <v type="int" >      266 </v>
   <v type="int" >      267 </v>
   <v type="int" >      268 </v>
   <v type="int" >      269 </v>
   <v type="int" >      270 </v>
   <v type="int" >      271 </v>
   <v type="int" >      272 </v>
   <v type="int" >      273 </v>
   <v type="int" >      274 </v>
   <v type="int" >      275 </v>
   <v type="int" >      276 </v>
   <v type="int" >      277 </v>
   <v type="int" >      278 </v>
   <v type="int" >      279 </v>
   <v type="int" >      280 </v>
   <v type="int" >      281 </v>
   <v type="int" >      282 </v>
   <v type="int" >      283 </v>
   <v type="int" >      284 </v>
   <v type="int" >      285 </v>
   <v type="int" >      286 </v>
   <v type="int" >      287 </v>
   <v type="int" >      288 </v>
   <v type="int" >      289 </v>
   <v type="int" >      290 </v>
   <v type="int" >      291 </v>
   <v type="int" >      292 </v>
   <v type="int" >      293 </v>
   <v type="int" >      294 </v>
   <v type="int" >      295 </v>
   <v type="int" >      296 </v>
   <v type="int" >      297 </v>
   <v type="int" >      298 </v>
   <v type="int" >      299 </v>
   <v type="int" >      300 </v>
   <v type="int" >      301 </v>
   <v type="int" >      302 </v>
   <v type="int" >      303 </v>
   <v type="int" >      304 </v>
   <v type="int" >      305 </v>
   <v type="int" >      306 </v>
   <v type="int" >      307 </v>
   <v type="int" >      308 </v>
   <v type="int" >      309 </v>
   <v type="int" >      310 </v>
   <v type="int" >      311 </v>
   <v type="int" >      312 </v>
   <v type="int" >      313 </v>
   <v type="int" >      314 </v>
   <v type="int" >      315 </v>
   <v type="int" >      316 </v>
   <v type="int" >      317 </v>
   <v type="int" >      318 </v>
   <v type="int" >      319 </v>
   <v type="int" >      320 </v>
   <v type="int" >      321 </v>
   <v type="int" >      322 </v>
   <v type="int" >      323 </v>
   <v type="int" >      324 </v>
   <v type="int" >      325 </v>
  </varray>
 </primitive_cell>
 <kpoints>
  <generation param="Gamma">
   <v type="int" name="divisions">       3        3        1 </v>
   <v name="usershift">      0.00000000       0.00000000       0.00000000 </v>
   <v name="genvec1">      0.33333333       0.00000000       0.00000000 </v>
   <v name="genvec2">      0.00000000       0.33333333       0.00000000 </v>
   <v name="genvec3">      0.00000000       0.00000000       1.00000000 </v>
   <v name="shift">      0.00000000       0.00000000       0.00000000 </v>
  </generation>
  <varray name="kpointlist" >
   <v>       0.00000000       0.00000000       0.00000000 </v>
   <v>       0.33333333       0.00000000       0.00000000 </v>
   <v>       0.00000000       0.33333333       0.00000000 </v>
   <v>       0.33333333       0.33333333       0.00000000 </v>
   <v>      -0.33333333       0.33333333       0.00000000 </v>
  </varray>
  <varray name="weights" >
   <v>       0.11111111 </v>
   <v>       0.22222222 </v>
   <v>       0.22222222 </v>
   <v>       0.22222222 </v>
   <v>       0.22222222 </v>
  </varray>
 </kpoints>
 <parameters>
  <separator name="general" >
   <i type="string" name="SYSTEM">PSC</i>
   <i type="logical" name="LCOMPAT"> F  </i>
  </separator>
  <separator name="electronic" >
   <i type="string" name="PREC">normal</i>
   <i name="ENMAX">    500.00000000</i>
   <i name="ENAUG">    644.87300000</i>
   <i name="EDIFF">      0.00010000</i>
   <i type="int" name="IALGO">    38</i>
   <i type="int" name="IWAVPR">    10</i>
   <i type="int" name="NBANDS">   732</i>
   <i type="int" name="NBANDSLOW">    -1</i>
   <i type="int" name="NBANDSHIGH">    -1</i>
   <i name="NELECT">   1134.00000000</i>
   <i type="int" name="TURBO">     0</i>
   <i type="int" name="IRESTART">     0</i>
   <i type="int" name="NREBOOT">     0</i>
   <i type="int" name="NMIN">     0</i>
   <i name="EREF">      0.00000000</i>
   <separator name="electronic smearing" >
    <i type="int" name="ISMEAR">     0</i>
    <i name="SIGMA">      0.05000000</i>
    <i name="KSPACING">      0.50000000</i>
    <i type="logical" name="KGAMMA"> T  </i>
    <i type="logical" name="KBLOWUP"> T  </i>
   </separator>
   <separator name="electronic projectors" >
    <i type="logical" name="LREAL"> T  </i>
    <v name="ROPT">     -0.00050000     -0.00050000     -0.00050000     -0.00050000     -0.00050000</v>
    <i type="int" name="LMAXPAW">  -100</i>
    <i type="int" name="LMAXMIX">     2</i>
    <i type="logical" name="NLSPLINE"> F  </i>
   </separator>
   <separator name="electronic startup" >
    <i type="int" name="ISTART">     0</i>
    <i type="int" name="ICHARG">     1</i>
    <i type="int" name="INIWAV">     1</i>
   </separator>
   <separator name="electronic spin" >
    <i type="int" name="ISPIN">     1</i>
    <i type="logical" name="LNONCOLLINEAR"> F  </i>
    <v name="MAGMOM">      1.00000000      1.00000000      1.00000000      1.00000000      1.00000000      1.00000000      1.00000000      1.00000000      1.00000000      1.00000000      1.00000000      1.00000000      1.00000000      1.00000000      1.00000000      1.00000000      1.00000000      1.00000000      1.00000000      1.00000000
      1.00000000      1.00000000      1.00000000      1.00000000      1.00000000      1.00000000      1.00000000      1.00000000      1.00000000      1.00000000      1.00000000      1.00000000      1.00000000      1.00000000      1.00000000      1.00000000      1.00000000      1.00000000      1.00000000      1.00000000
      1.00000000      1.00000000      1.00000000      1.00000000      1.00000000      1.00000000      1.00000000      1.00000000      1.00000000      1.00000000      1.00000000      1.00000000      1.00000000      1.00000000      1.00000000      1.00000000      1.00000000      1.00000000      1.00000000      1.00000000
      1.00000000      1.00000000      1.00000000      1.00000000      1.00000000      1.00000000      1.00000000      1.00000000      1.00000000      1.00000000      1.00000000      1.00000000      1.00000000      1.00000000      1.00000000      1.00000000      1.00000000      1.00000000      1.00000000      1.00000000
      1.00000000      1.00000000      1.00000000      1.00000000      1.00000000      1.00000000      1.00000000      1.00000000      1.00000000      1.00000000      1.00000000      1.00000000      1.00000000      1.00000000      1.00000000      1.00000000      1.00000000      1.00000000      1.00000000      1.00000000
      1.00000000      1.00000000      1.00000000      1.00000000      1.00000000      1.00000000      1.00000000      1.00000000      1.00000000      1.00000000      1.00000000      1.00000000      1.00000000      1.00000000      1.00000000      1.00000000      1.00000000      1.00000000      1.00000000      1.00000000
      1.00000000      1.00000000      1.00000000      1.00000000      1.00000000      1.00000000      1.00000000      1.00000000      1.00000000      1.00000000      1.00000000      1.00000000      1.00000000      1.00000000      1.00000000      1.00000000      1.00000000      1.00000000      1.00000000      1.00000000
      1.00000000      1.00000000      1.00000000      1.00000000      1.00000000      1.00000000      1.00000000      1.00000000      1.00000000      1.00000000      1.00000000      1.00000000      1.00000000      1.00000000      1.00000000      1.00000000      1.00000000      1.00000000      1.00000000      1.00000000
      1.00000000      1.00000000      1.00000000      1.00000000      1.00000000      1.00000000      1.00000000      1.00000000      1.00000000      1.00000000      1.00000000      1.00000000      1.00000000      1.00000000      1.00000000      1.00000000      1.00000000      1.00000000      1.00000000      1.00000000
      1.00000000      1.00000000      1.00000000      1.00000000      1.00000000      1.00000000      1.00000000      1.00000000      1.00000000      1.00000000      1.00000000      1.00000000      1.00000000      1.00000000      1.00000000      1.00000000      1.00000000      1.00000000      1.00000000      1.00000000
      1.00000000      1.00000000      1.00000000      1.00000000      1.00000000      1.00000000      1.00000000      1.00000000      1.00000000      1.00000000      1.00000000      1.00000000      1.00000000      1.00000000      1.00000000      1.00000000      1.00000000      1.00000000      1.00000000      1.00000000
      1.00000000      1.00000000      1.00000000      1.00000000      1.00000000      1.00000000      1.00000000      1.00000000      1.00000000      1.00000000      1.00000000      1.00000000      1.00000000      1.00000000      1.00000000      1.00000000      1.00000000      1.00000000      1.00000000      1.00000000
      1.00000000      1.00000000      1.00000000      1.00000000      1.00000000      1.00000000      1.00000000      1.00000000      1.00000000      1.00000000      1.00000000      1.00000000      1.00000000      1.00000000      1.00000000      1.00000000      1.00000000      1.00000000      1.00000000      1.00000000
      1.00000000      1.00000000      1.00000000      1.00000000      1.00000000      1.00000000      1.00000000      1.00000000      1.00000000      1.00000000      1.00000000      1.00000000      1.00000000      1.00000000      1.00000000      1.00000000      1.00000000      1.00000000      1.00000000      1.00000000
      1.00000000      1.00000000      1.00000000      1.00000000      1.00000000      1.00000000      1.00000000      1.00000000      1.00000000      1.00000000      1.00000000      1.00000000      1.00000000      1.00000000      1.00000000      1.00000000      1.00000000      1.00000000      1.00000000      1.00000000
      1.00000000      1.00000000      1.00000000      1.00000000      1.00000000      1.00000000      1.00000000      1.00000000      1.00000000      1.00000000      1.00000000      1.00000000      1.00000000      1.00000000      1.00000000      1.00000000      1.00000000      1.00000000      1.00000000      1.00000000
      1.00000000      1.00000000      1.00000000      1.00000000      1.00000000</v>
    <i name="NUPDOWN">     -1.00000000</i>
    <i type="logical" name="LSORBIT"> F  </i>
    <v name="SAXIS">      0.00000000      0.00000000      1.00000000</v>
    <i type="logical" name="LSPIRAL"> F  </i>
    <v name="QSPIRAL">      0.00000000      0.00000000      0.00000000</v>
    <i type="logical" name="LZEROZ"> F  </i>
   </separator>
   <separator name="electronic exchange-correlation" >
    <i type="logical" name="LASPH"> F  </i>
    <i type="logical" name="LMETAGGA"> F  </i>
   </separator>
   <separator name="electronic convergence" >
    <i type="int" name="NELM">   600</i>
    <i type="int" name="NELMDL">     0</i>
    <i type="int" name="NELMIN">     2</i>
    <i name="ENINI">    500.00000000</i>
    <separator name="electronic convergence detail" >
     <i type="logical" name="LDIAG"> T  </i>
     <i type="logical" name="LSUBROT"> F  </i>
     <i name="WEIMIN">      0.00000000</i>
     <i name="EBREAK">      0.00000003</i>
     <i name="DEPER">      0.30000000</i>
     <i type="int" name="NRMM">     4</i>
     <i name="TIME">      0.40000000</i>
    </separator>
   </separator>
   <separator name="electronic mixer" >
    <i name="AMIX">      0.40000000</i>
    <i name="BMIX">      0.01000000</i>
    <i name="AMIN">      0.01000000</i>
    <i name="AMIX_MAG">      1.60000000</i>
    <i name="BMIX_MAG">      0.01000000</i>
    <separator name="electronic mixer details" >
     <i type="int" name="IMIX">     4</i>
     <i type="logical" name="MIXFIRST"> F  </i>
     <i type="int" name="MAXMIX">   -45</i>
     <i name="WC">    100.00000000</i>
     <i type="int" name="INIMIX">     1</i>
     <i type="int" name="MIXPRE">     1</i>
     <i type="int" name="MREMOVE">     5</i>
    </separator>
   </separator>
   <separator name="electronic dipolcorrection" >
    <i type="logical" name="LDIPOL"> T  </i>
    <i type="logical" name="LMONO"> F  </i>
    <i type="int" name="IDIPOL">     3</i>
    <i name="EPSILON">      1.00000000</i>
    <v name="DIPOL">   -100.00000000   -100.00000000   -100.00000000</v>
    <i name="EFIELD">      0.00000000</i>
   </separator>
  </separator>
  <separator name="grids" >
   <i type="int" name="NGX">   100</i>
   <i type="int" name="NGY">   100</i>
   <i type="int" name="NGZ">   350</i>
   <i type="int" name="NGXF">   200</i>
   <i type="int" name="NGYF">   200</i>
   <i type="int" name="NGZF">   700</i>
   <i type="logical" name="ADDGRID"> F  </i>
  </separator>
  <separator name="ionic" >
   <i type="int" name="NSW">     0</i>
   <i type="int" name="IBRION">    -1</i>
   <i type="int" name="MDALGO">     0</i>
   <i type="int" name="ISIF">     2</i>
   <i name="PSTRESS">      0.00000000</i>
   <i name="EDIFFG">      0.00100000</i>
   <i type="int" name="NFREE">     0</i>
   <i name="POTIM">      0.50000000</i>
   <i name="SMASS">     -3.00000000</i>
   <i name="SCALEE">      1.00000000</i>
  </separator>
  <separator name="ionic md" >
   <i name="TEBEG">      0.00010000</i>
   <i name="TEEND">      0.00010000</i>
   <i type="int" name="NBLOCK">     1</i>
   <i type="int" name="KBLOCK">     1</i>
   <i type="int" name="NPACO">   256</i>
   <i name="APACO">     16.00000000</i>
  </separator>
  <separator name="symmetry" >
   <i type="int" name="ISYM">     0</i>
   <i name="SYMPREC">      0.00001000</i>
  </separator>
  <separator name="dos" >
   <i type="int" name="LORBIT">     0</i>
   <v name="RWIGS">     -1.00000000     -1.00000000     -1.00000000     -1.00000000     -1.00000000</v>
   <i type="int" name="NEDOS">   301</i>
   <i name="EMIN">     10.00000000</i>
   <i name="EMAX">    -10.00000000</i>
   <i name="EFERMI">      0.00000000</i>
  </separator>
  <separator name="writing" >
   <i type="int" name="NWRITE">     2</i>
   <i type="logical" name="LWAVE"> F  </i>
   <i type="logical" name="LDOWNSAMPLE"> F  </i>
   <i type="logical" name="LCHARG"> T  </i>
   <i type="logical" name="LPARD"> F  </i>
   <i type="logical" name="LVTOT"> T  </i>
   <i type="logical" name="LVHAR"> F  </i>
   <i type="logical" name="LELF"> F  </i>
   <i type="logical" name="LOPTICS"> F  </i>
   <v name="STM">      0.00000000      0.00000000      0.00000000      0.00000000      0.00000000      0.00000000      0.00000000</v>
  </separator>
  <separator name="performance" >
   <i type="int" name="NPAR">     4</i>
   <i type="int" name="NSIM">     4</i>
   <i type="int" name="NBLK">    -1</i>
   <i type="logical" name="LPLANE"> T  </i>
   <i type="logical" name="LSCALAPACK"> T  </i>
   <i type="logical" name="LSCAAWARE"> F  </i>
   <i type="logical" name="LSCALU"> F  </i>
   <i type="logical" name="LASYNC"> F  </i>
   <i type="logical" name="LORBITALREAL"> F  </i>
  </separator>
  <separator name="miscellaneous" >
   <i type="int" name="IDIOT">     3</i>
   <i type="int" name="PHON_NSTRUCT">    -1</i>
   <i type="logical" name="LMUSIC"> F  </i>
   <v name="POMASS">      1.00000000     12.01100000     14.00100000    126.90400000    207.20000000</v>
   <v name="DARWINR">      0.00000000      0.00000000      0.00000000      0.00000000      0.00000000</v>
   <v name="DARWINV">      1.00000000      1.00000000      1.00000000      1.00000000      1.00000000</v>
   <i type="logical" name="LCORR"> T  </i>
  </separator>
  <i type="logical" name="GGA_COMPAT"> F  </i>
  <i type="logical" name="LBERRY"> F  </i>
  <i type="int" name="ICORELEVEL">     0</i>
  <i type="logical" name="LDAU"> F  </i>
  <i type="int" name="I_CONSTRAINED_M">     0</i>
  <separator name="electronic exchange-correlation" >
   <i type="string" name="GGA">--</i>
   <i type="int" name="VOSKOWN">     0</i>
   <i type="logical" name="LHFCALC"> F  </i>
   <i type="string" name="PRECFOCK"></i>
   <i type="logical" name="LSYMGRAD"> F  </i>
   <i type="logical" name="LHFONE"> F  </i>
   <i type="logical" name="LRHFCALC"> F  </i>
   <i type="logical" name="LTHOMAS"> F  </i>
   <i type="logical" name="LMODELHF"> F  </i>
   <i type="logical" name="LFOCKACE"> F  </i>
   <i name="ENCUT4O">     -1.00000000</i>
   <i type="int" name="EXXOEP">     0</i>
   <i type="int" name="FOURORBIT">     0</i>
   <i name="AEXX">      0.00000000</i>
   <i name="HFALPHA">      0.00000000</i>
   <i name="MCALPHA">      0.00000000</i>
   <i name="ALDAX">      1.00000000</i>
   <i name="AGGAX">      1.00000000</i>
   <i name="ALDAC">      1.00000000</i>
   <i name="AGGAC">      1.00000000</i>
   <i type="int" name="NKREDX">     1</i>
   <i type="int" name="NKREDY">     1</i>
   <i type="int" name="NKREDZ">     1</i>
   <i type="logical" name="SHIFTRED"> F  </i>
   <i type="logical" name="ODDONLY"> F  </i>
   <i type="logical" name="EVENONLY"> F  </i>
   <i type="int" name="LMAXFOCK">     0</i>
   <i type="int" name="NMAXFOCKAE">     0</i>
   <i type="logical" name="LFOCKAEDFT"> F  </i>
   <i name="HFSCREEN">      0.00000000</i>
   <i name="HFSCREENC">      0.00000000</i>
   <i type="int" name="NBANDSGWLOW">     0</i>
  </separator>
  <separator name="vdW DFT" >
   <i type="logical" name="LUSE_VDW"> F  </i>
   <i name="Zab_VDW">     -0.84910000</i>
   <i name="PARAM1">      0.12340000</i>
   <i name="PARAM2">      1.00000000</i>
   <i name="PARAM3">      0.00000000</i>
  </separator>
  <separator name="model GW" >
   <i type="int" name="MODEL_GW">     0</i>
   <i name="MODEL_EPS0">     37.63423484</i>
   <i name="MODEL_ALPHA">      1.00000000</i>
  </separator>
  <separator name="linear response parameters" >
   <i type="logical" name="LEPSILON"> F  </i>
   <i type="logical" name="LRPA"> F  </i>
   <i type="logical" name="LNABLA"> F  </i>
   <i type="logical" name="LVEL"> F  </i>
   <i type="int" name="KINTER">     0</i>
   <i name="CSHIFT">      0.10000000</i>
   <i name="OMEGAMAX">     -1.00000000</i>
   <i name="DEG_THRESHOLD">      0.00200000</i>
   <i name="RTIME">     -0.10000000</i>
   <i name="WPLASMAI">      0.00000000</i>
   <v name="DFIELD">      0.00000000      0.00000000      0.00000000</v>
   <v name="WPLASMA">      0.00000000      0.00000000      0.00000000      0.00000000      0.00000000      0.00000000      0.00000000      0.00000000      0.00000000</v>
  </separator>
  <separator name="orbital magnetization" >
   <i type="logical" name="NUCIND"> F  </i>
   <v name="MAGPOS">      0.00000000      0.00000000      0.00000000</v>
   <i type="logical" name="LNICSALL"> T  </i>
   <i type="logical" name="ORBITALMAG"> F  </i>
   <i type="logical" name="LMAGBLOCH"> F  </i>
   <i type="logical" name="LCHIMAG"> F  </i>
   <i type="logical" name="LGAUGE"> T  </i>
   <i type="int" name="MAGATOM">     0</i>
   <v name="MAGDIPOL">      0.00000000      0.00000000      0.00000000</v>
   <v name="AVECCONST">      0.00000000      0.00000000      0.00000000</v>
  </separator>
  <separator name="response functions" >
   <i type="logical" name="LFINITE_TEMPERATURE"> F  </i>
   <i type="logical" name="LADDER"> F  </i>
   <i type="logical" name="LRPAFORCE"> F  </i>
   <i type="logical" name="LFXC"> F  </i>
   <i type="logical" name="LHARTREE"> T  </i>
   <i type="int" name="IBSE">     0</i>
   <v type="int" name="KPOINT">    -1     0     0     0</v>
   <i type="logical" name="LTCTC"> F  </i>
   <i type="logical" name="LTCTE"> F  </i>
   <i type="logical" name="LTETE"> F  </i>
   <i type="logical" name="LTRIPLET"> F  </i>
   <i type="logical" name="LFXCEPS"> F  </i>
   <i type="logical" name="LFXHEG"> F  </i>
   <i type="int" name="NATURALO">     2</i>
   <i type="logical" name="LHOLEGF"> F  </i>
   <i type="logical" name="L2ORDER"> F  </i>
   <i type="logical" name="LDMP1"> F  </i>
   <i type="logical" name="LMP2LT"> F  </i>
   <i type="logical" name="LSMP2LT"> F  </i>
   <i type="logical" name="LGWLF"> F  </i>
   <i name="ENCUTGW">     -2.00000000</i>
   <i name="ENCUTGWSOFT">     -2.00000000</i>
   <i name="ENCUTLF">     -1.00000000</i>
   <i type="logical" name="LESF_SPLINES"> F  </i>
   <i type="int" name="LMAXMP2">    -1</i>
   <i name="SCISSOR">      0.00000000</i>
   <i type="int" name="NOMEGA">     0</i>
   <i type="int" name="NOMEGAR">     0</i>
   <i type="int" name="NBANDSGW">    -1</i>
   <i type="int" name="NBANDSO">    -1</i>
   <i type="int" name="NBANDSV">    -1</i>
   <i type="int" name="NELM">   600</i>
   <i type="int" name="NELMHF">     1</i>
   <i type="int" name="DIM">     3</i>
   <i type="int" name="IESPILON">     4</i>
   <i type="int" name="ANTIRES">     0</i>
   <i name="OMEGAMAX">    -30.00000000</i>
   <i name="OMEGAMIN">    -30.00000000</i>
   <i name="OMEGATL">   -200.00000000</i>
   <i type="int" name="OMEGAGRID">     0</i>
   <i name="CSHIFT">     -0.10000000</i>
   <i type="logical" name="LSELFENERGY"> F  </i>
   <i type="logical" name="LSPECTRAL"> F  </i>
   <i type="logical" name="LSPECTRALGW"> F  </i>
   <i type="logical" name="LSINGLES"> F  </i>
   <i type="logical" name="LFERMIGW"> F  </i>
   <i type="logical" name="ODDONLYGW"> F  </i>
   <i type="logical" name="EVENONLYGW"> F  </i>
   <i type="int" name="NKREDLFX">     1</i>
   <i type="int" name="NKREDLFY">     1</i>
   <i type="int" name="NKREDLFZ">     1</i>
   <i type="int" name="MAXMEM">  2800</i>
   <i type="int" name="TELESCOPE">     0</i>
   <i type="int" name="NTAUPAR">    -1</i>
   <i type="int" name="NOMEGAPAR">    -1</i>
   <i name="DAMP_NEWTON">      0.80000001</i>
   <i name="LAMBDA">      1.00000000</i>
  </separator>
  <separator name="External order field" >
   <i name="OFIELD_KAPPA">      0.00000000</i>
   <v name="OFIELD_K">      0.00000000      0.00000000      0.00000000</v>
   <i name="OFIELD_Q6_NEAR">      0.00000000</i>
   <i name="OFIELD_Q6_FAR">      0.00000000</i>
   <i name="OFIELD_A">      0.00000000</i>
  </separator>
 </parameters>
 <atominfo>
  <atoms>     325 </atoms>
  <types>       5 </types>
  <array name="atoms" >
   <dimension dim="1">ion</dimension>
   <field type="string">element</field>
   <field type="int">atomtype</field>
   <set>
    <rc><c>H </c><c>   1</c></rc>
    <rc><c>H </c><c>   1</c></rc>
    <rc><c>H </c><c>   1</c></rc>
    <rc><c>H </c><c>   1</c></rc>
    <rc><c>H </c><c>   1</c></rc>
    <rc><c>H </c><c>   1</c></rc>
    <rc><c>H </c><c>   1</c></rc>
    <rc><c>H </c><c>   1</c></rc>
    <rc><c>H </c><c>   1</c></rc>
    <rc><c>H </c><c>   1</c></rc>
    <rc><c>H </c><c>   1</c></rc>
    <rc><c>H </c><c>   1</c></rc>
    <rc><c>H </c><c>   1</c></rc>
    <rc><c>H </c><c>   1</c></rc>
    <rc><c>H </c><c>   1</c></rc>
    <rc><c>H </c><c>   1</c></rc>
    <rc><c>H </c><c>   1</c></rc>
    <rc><c>H </c><c>   1</c></rc>
    <rc><c>H </c><c>   1</c></rc>
    <rc><c>H </c><c>   1</c></rc>
    <rc><c>H </c><c>   1</c></rc>
    <rc><c>H </c><c>   1</c></rc>
    <rc><c>H </c><c>   1</c></rc>
    <rc><c>H </c><c>   1</c></rc>
    <rc><c>H </c><c>   1</c></rc>
    <rc><c>H </c><c>   1</c></rc>
    <rc><c>H </c><c>   1</c></rc>
    <rc><c>H </c><c>   1</c></rc>
    <rc><c>H </c><c>   1</c></rc>
    <rc><c>H </c><c>   1</c></rc>
    <rc><c>H </c><c>   1</c></rc>
    <rc><c>H </c><c>   1</c></rc>
    <rc><c>H </c><c>   1</c></rc>
    <rc><c>H </c><c>   1</c></rc>
    <rc><c>H </c><c>   1</c></rc>
    <rc><c>H </c><c>   1</c></rc>
    <rc><c>H </c><c>   1</c></rc>
    <rc><c>H </c><c>   1</c></rc>
    <rc><c>H </c><c>   1</c></rc>
    <rc><c>H </c><c>   1</c></rc>
    <rc><c>H </c><c>   1</c></rc>
    <rc><c>H </c><c>   1</c></rc>
    <rc><c>H </c><c>   1</c></rc>
    <rc><c>H </c><c>   1</c></rc>
    <rc><c>H </c><c>   1</c></rc>
    <rc><c>H </c><c>   1</c></rc>
    <rc><c>H </c><c>   1</c></rc>
    <rc><c>H </c><c>   1</c></rc>
    <rc><c>H </c><c>   1</c></rc>
    <rc><c>H </c><c>   1</c></rc>
    <rc><c>H </c><c>   1</c></rc>
    <rc><c>H </c><c>   1</c></rc>
    <rc><c>H </c><c>   1</c></rc>
    <rc><c>H </c><c>   1</c></rc>
    <rc><c>H </c><c>   1</c></rc>
    <rc><c>H </c><c>   1</c></rc>
    <rc><c>H </c><c>   1</c></rc>
    <rc><c>H </c><c>   1</c></rc>
    <rc><c>H </c><c>   1</c></rc>
    <rc><c>H </c><c>   1</c></rc>
    <rc><c>H </c><c>   1</c></rc>
    <rc><c>H </c><c>   1</c></rc>
    <rc><c>H </c><c>   1</c></rc>
    <rc><c>H </c><c>   1</c></rc>
    <rc><c>H </c><c>   1</c></rc>
    <rc><c>H </c><c>   1</c></rc>
    <rc><c>H </c><c>   1</c></rc>
    <rc><c>H </c><c>   1</c></rc>
    <rc><c>H </c><c>   1</c></rc>
    <rc><c>H </c><c>   1</c></rc>
    <rc><c>H </c><c>   1</c></rc>
    <rc><c>H </c><c>   1</c></rc>
    <rc><c>H </c><c>   1</c></rc>
    <rc><c>H </c><c>   1</c></rc>
    <rc><c>H </c><c>   1</c></rc>
    <rc><c>H </c><c>   1</c></rc>
    <rc><c>H </c><c>   1</c></rc>
    <rc><c>H </c><c>   1</c></rc>
    <rc><c>H </c><c>   1</c></rc>
    <rc><c>H </c><c>   1</c></rc>
    <rc><c>H </c><c>   1</c></rc>
    <rc><c>H </c><c>   1</c></rc>
    <rc><c>H </c><c>   1</c></rc>
    <rc><c>H </c><c>   1</c></rc>
    <rc><c>H </c><c>   1</c></rc>
    <rc><c>H </c><c>   1</c></rc>
    <rc><c>H </c><c>   1</c></rc>
    <rc><c>H </c><c>   1</c></rc>
    <rc><c>H </c><c>   1</c></rc>
    <rc><c>H </c><c>   1</c></rc>
    <rc><c>H </c><c>   1</c></rc>
    <rc><c>H </c><c>   1</c></rc>
    <rc><c>H </c><c>   1</c></rc>
    <rc><c>H </c><c>   1</c></rc>
    <rc><c>H </c><c>   1</c></rc>
    <rc><c>H </c><c>   1</c></rc>
    <rc><c>H </c><c>   1</c></rc>
    <rc><c>H </c><c>   1</c></rc>
    <rc><c>H </c><c>   1</c></rc>
    <rc><c>H </c><c>   1</c></rc>
    <rc><c>H </c><c>   1</c></rc>
    <rc><c>H </c><c>   1</c></rc>
    <rc><c>H </c><c>   1</c></rc>
    <rc><c>H </c><c>   1</c></rc>
    <rc><c>H </c><c>   1</c></rc>
    <rc><c>H </c><c>   1</c></rc>
    <rc><c>H </c><c>   1</c></rc>
    <rc><c>H </c><c>   1</c></rc>
    <rc><c>H </c><c>   1</c></rc>
    <rc><c>H </c><c>   1</c></rc>
    <rc><c>H </c><c>   1</c></rc>
    <rc><c>H </c><c>   1</c></rc>
    <rc><c>H </c><c>   1</c></rc>
    <rc><c>H </c><c>   1</c></rc>
    <rc><c>H </c><c>   1</c></rc>
    <rc><c>H </c><c>   1</c></rc>
    <rc><c>H </c><c>   1</c></rc>
    <rc><c>H </c><c>   1</c></rc>
    <rc><c>H </c><c>   1</c></rc>
    <rc><c>H </c><c>   1</c></rc>
    <rc><c>H </c><c>   1</c></rc>
    <rc><c>H </c><c>   1</c></rc>
    <rc><c>H </c><c>   1</c></rc>
    <rc><c>H </c><c>   1</c></rc>
    <rc><c>H </c><c>   1</c></rc>
    <rc><c>H </c><c>   1</c></rc>
    <rc><c>H </c><c>   1</c></rc>
    <rc><c>H </c><c>   1</c></rc>
    <rc><c>H </c><c>   1</c></rc>
    <rc><c>H </c><c>   1</c></rc>
    <rc><c>H </c><c>   1</c></rc>
    <rc><c>H </c><c>   1</c></rc>
    <rc><c>H </c><c>   1</c></rc>
    <rc><c>H </c><c>   1</c></rc>
    <rc><c>H </c><c>   1</c></rc>
    <rc><c>H </c><c>   1</c></rc>
    <rc><c>H </c><c>   1</c></rc>
    <rc><c>H </c><c>   1</c></rc>
    <rc><c>H </c><c>   1</c></rc>
    <rc><c>H </c><c>   1</c></rc>
    <rc><c>H </c><c>   1</c></rc>
    <rc><c>H </c><c>   1</c></rc>
    <rc><c>H </c><c>   1</c></rc>
    <rc><c>C </c><c>   2</c></rc>
    <rc><c>C </c><c>   2</c></rc>
    <rc><c>C </c><c>   2</c></rc>
    <rc><c>C </c><c>   2</c></rc>
    <rc><c>C </c><c>   2</c></rc>
    <rc><c>C </c><c>   2</c></rc>
    <rc><c>C </c><c>   2</c></rc>
    <rc><c>C </c><c>   2</c></rc>
    <rc><c>C </c><c>   2</c></rc>
    <rc><c>C </c><c>   2</c></rc>
    <rc><c>C </c><c>   2</c></rc>
    <rc><c>C </c><c>   2</c></rc>
    <rc><c>C </c><c>   2</c></rc>
    <rc><c>C </c><c>   2</c></rc>
    <rc><c>C </c><c>   2</c></rc>
    <rc><c>C </c><c>   2</c></rc>
    <rc><c>C </c><c>   2</c></rc>
    <rc><c>C </c><c>   2</c></rc>
    <rc><c>C </c><c>   2</c></rc>
    <rc><c>C </c><c>   2</c></rc>
    <rc><c>C </c><c>   2</c></rc>
    <rc><c>C </c><c>   2</c></rc>
    <rc><c>C </c><c>   2</c></rc>
    <rc><c>C </c><c>   2</c></rc>
    <rc><c>C </c><c>   2</c></rc>
    <rc><c>C </c><c>   2</c></rc>
    <rc><c>C </c><c>   2</c></rc>
    <rc><c>C </c><c>   2</c></rc>
    <rc><c>C </c><c>   2</c></rc>
    <rc><c>C </c><c>   2</c></rc>
    <rc><c>C </c><c>   2</c></rc>
    <rc><c>C </c><c>   2</c></rc>
    <rc><c>C </c><c>   2</c></rc>
    <rc><c>C </c><c>   2</c></rc>
    <rc><c>C </c><c>   2</c></rc>
    <rc><c>C </c><c>   2</c></rc>
    <rc><c>C </c><c>   2</c></rc>
    <rc><c>C </c><c>   2</c></rc>
    <rc><c>C </c><c>   2</c></rc>
    <rc><c>N </c><c>   3</c></rc>
    <rc><c>N </c><c>   3</c></rc>
    <rc><c>N </c><c>   3</c></rc>
    <rc><c>N </c><c>   3</c></rc>
    <rc><c>N </c><c>   3</c></rc>
    <rc><c>N </c><c>   3</c></rc>
    <rc><c>N </c><c>   3</c></rc>
    <rc><c>N </c><c>   3</c></rc>
    <rc><c>N </c><c>   3</c></rc>
    <rc><c>N </c><c>   3</c></rc>
    <rc><c>N </c><c>   3</c></rc>
    <rc><c>N </c><c>   3</c></rc>
    <rc><c>N </c><c>   3</c></rc>
    <rc><c>N </c><c>   3</c></rc>
    <rc><c>N </c><c>   3</c></rc>
    <rc><c>N </c><c>   3</c></rc>
    <rc><c>N </c><c>   3</c></rc>
    <rc><c>N </c><c>   3</c></rc>
    <rc><c>N </c><c>   3</c></rc>
    <rc><c>N </c><c>   3</c></rc>
    <rc><c>N </c><c>   3</c></rc>
    <rc><c>N </c><c>   3</c></rc>
    <rc><c>N </c><c>   3</c></rc>
    <rc><c>N </c><c>   3</c></rc>
    <rc><c>N </c><c>   3</c></rc>
    <rc><c>N </c><c>   3</c></rc>
    <rc><c>N </c><c>   3</c></rc>
    <rc><c>N </c><c>   3</c></rc>
    <rc><c>N </c><c>   3</c></rc>
    <rc><c>N </c><c>   3</c></rc>
    <rc><c>N </c><c>   3</c></rc>
    <rc><c>N </c><c>   3</c></rc>
    <rc><c>N </c><c>   3</c></rc>
    <rc><c>N </c><c>   3</c></rc>
    <rc><c>N </c><c>   3</c></rc>
    <rc><c>N </c><c>   3</c></rc>
    <rc><c>N </c><c>   3</c></rc>
    <rc><c>N </c><c>   3</c></rc>
    <rc><c>N </c><c>   3</c></rc>
    <rc><c>N </c><c>   3</c></rc>
    <rc><c>N </c><c>   3</c></rc>
    <rc><c>N </c><c>   3</c></rc>
    <rc><c>N </c><c>   3</c></rc>
    <rc><c>N </c><c>   3</c></rc>
    <rc><c>N </c><c>   3</c></rc>
    <rc><c>N </c><c>   3</c></rc>
    <rc><c>N </c><c>   3</c></rc>
    <rc><c>I </c><c>   4</c></rc>
    <rc><c>I </c><c>   4</c></rc>
    <rc><c>I </c><c>   4</c></rc>
    <rc><c>I </c><c>   4</c></rc>
    <rc><c>I </c><c>   4</c></rc>
    <rc><c>I </c><c>   4</c></rc>
    <rc><c>I </c><c>   4</c></rc>
    <rc><c>I </c><c>   4</c></rc>
    <rc><c>I </c><c>   4</c></rc>
    <rc><c>I </c><c>   4</c></rc>
    <rc><c>I </c><c>   4</c></rc>
    <rc><c>I </c><c>   4</c></rc>
    <rc><c>I </c><c>   4</c></rc>
    <rc><c>I </c><c>   4</c></rc>
    <rc><c>I </c><c>   4</c></rc>
    <rc><c>I </c><c>   4</c></rc>
    <rc><c>I </c><c>   4</c></rc>
    <rc><c>I </c><c>   4</c></rc>
    <rc><c>I </c><c>   4</c></rc>
    <rc><c>I </c><c>   4</c></rc>
    <rc><c>I </c><c>   4</c></rc>
    <rc><c>I </c><c>   4</c></rc>
    <rc><c>I </c><c>   4</c></rc>
    <rc><c>I </c><c>   4</c></rc>
    <rc><c>I </c><c>   4</c></rc>
    <rc><c>I </c><c>   4</c></rc>
    <rc><c>I </c><c>   4</c></rc>
    <rc><c>I </c><c>   4</c></rc>
    <rc><c>I </c><c>   4</c></rc>
    <rc><c>I </c><c>   4</c></rc>
    <rc><c>I </c><c>   4</c></rc>
    <rc><c>I </c><c>   4</c></rc>
    <rc><c>I </c><c>   4</c></rc>
    <rc><c>I </c><c>   4</c></rc>
    <rc><c>I </c><c>   4</c></rc>
    <rc><c>I </c><c>   4</c></rc>
    <rc><c>I </c><c>   4</c></rc>
    <rc><c>I </c><c>   4</c></rc>
    <rc><c>I </c><c>   4</c></rc>
    <rc><c>I </c><c>   4</c></rc>
    <rc><c>I </c><c>   4</c></rc>
    <rc><c>I </c><c>   4</c></rc>
    <rc><c>I </c><c>   4</c></rc>
    <rc><c>I </c><c>   4</c></rc>
    <rc><c>I </c><c>   4</c></rc>
    <rc><c>I </c><c>   4</c></rc>
    <rc><c>I </c><c>   4</c></rc>
    <rc><c>I </c><c>   4</c></rc>
    <rc><c>I </c><c>   4</c></rc>
    <rc><c>I </c><c>   4</c></rc>
    <rc><c>I </c><c>   4</c></rc>
    <rc><c>I </c><c>   4</c></rc>
    <rc><c>I </c><c>   4</c></rc>
    <rc><c>I </c><c>   4</c></rc>
    <rc><c>I </c><c>   4</c></rc>
    <rc><c>I </c><c>   4</c></rc>
    <rc><c>I </c><c>   4</c></rc>
    <rc><c>I </c><c>   4</c></rc>
    <rc><c>I </c><c>   4</c></rc>
    <rc><c>I </c><c>   4</c></rc>
    <rc><c>I </c><c>   4</c></rc>
    <rc><c>I </c><c>   4</c></rc>
    <rc><c>I </c><c>   4</c></rc>
    <rc><c>I </c><c>   4</c></rc>
    <rc><c>I </c><c>   4</c></rc>
    <rc><c>I </c><c>   4</c></rc>
    <rc><c>I </c><c>   4</c></rc>
    <rc><c>I </c><c>   4</c></rc>
    <rc><c>I </c><c>   4</c></rc>
    <rc><c>I </c><c>   4</c></rc>
    <rc><c>I </c><c>   4</c></rc>
    <rc><c>I </c><c>   4</c></rc>
    <rc><c>Pb</c><c>   5</c></rc>
    <rc><c>Pb</c><c>   5</c></rc>
    <rc><c>Pb</c><c>   5</c></rc>
    <rc><c>Pb</c><c>   5</c></rc>
    <rc><c>Pb</c><c>   5</c></rc>
    <rc><c>Pb</c><c>   5</c></rc>
    <rc><c>Pb</c><c>   5</c></rc>
    <rc><c>Pb</c><c>   5</c></rc>
    <rc><c>Pb</c><c>   5</c></rc>
    <rc><c>Pb</c><c>   5</c></rc>
    <rc><c>Pb</c><c>   5</c></rc>
    <rc><c>Pb</c><c>   5</c></rc>
    <rc><c>Pb</c><c>   5</c></rc>
    <rc><c>Pb</c><c>   5</c></rc>
    <rc><c>Pb</c><c>   5</c></rc>
    <rc><c>Pb</c><c>   5</c></rc>
    <rc><c>Pb</c><c>   5</c></rc>
    <rc><c>Pb</c><c>   5</c></rc>
    <rc><c>Pb</c><c>   5</c></rc>
    <rc><c>Pb</c><c>   5</c></rc>
    <rc><c>Pb</c><c>   5</c></rc>
    <rc><c>Pb</c><c>   5</c></rc>
    <rc><c>Pb</c><c>   5</c></rc>
    <rc><c>Pb</c><c>   5</c></rc>
   </set>
  </array>
  <array name="atomtypes" >
   <dimension dim="1">type</dimension>
   <field type="int">atomspertype</field>
   <field type="string">element</field>
   <field>mass</field>
   <field>valence</field>
   <field type="string">pseudopotential</field>
   <set>
    <rc><c> 143</c><c>H </c><c>      1.00000000</c><c>      1.00000000</c><c>  PAW_PBE H 15Jun2001                   </c></rc>
    <rc><c>  39</c><c>C </c><c>     12.01100000</c><c>      4.00000000</c><c>  PAW_PBE C 08Apr2002                   </c></rc>
    <rc><c>  47</c><c>N </c><c>     14.00100000</c><c>      5.00000000</c><c>  PAW_PBE N 08Apr2002                   </c></rc>
    <rc><c>  72</c><c>I </c><c>    126.90400000</c><c>      7.00000000</c><c>  PAW_PBE I 08Apr2002                   </c></rc>
    <rc><c>  24</c><c>Pb</c><c>    207.20000000</c><c>      4.00000000</c><c>  PAW_PBE Pb 08Apr2002                  </c></rc>
   </set>
  </array>
 </atominfo>
 <structure name="initialpos" >
  <crystal>
   <varray name="basis" >
    <v>      18.06080055       0.00000000       0.00000000 </v>
    <v>      -0.00491865      18.06279945       0.00000000 </v>
    <v>       0.00000000       0.00000000      62.48749924 </v>
   </varray>
   <i name="volume">  20385.21054034 </i>
   <varray name="rec_basis" >
    <v>       0.05536853       0.00001508      -0.00000000 </v>
    <v>       0.00000000       0.05536240       0.00000000 </v>
    <v>       0.00000000      -0.00000000       0.01600320 </v>
   </varray>
  </crystal>
  <varray name="positions" >
   <v>       0.42044921       0.25718812       0.57506100 </v>
   <v>       0.40988595       0.71868307       0.57430725 </v>
   <v>       0.92056249       0.28051021       0.58100012 </v>
   <v>       0.93841208       0.81520857       0.57590236 </v>
   <v>       0.31808501       0.07750073       0.57248926 </v>
   <v>       0.30965845       0.58071354       0.57212255 </v>
   <v>       0.79924053       0.08096984       0.57647211 </v>
   <v>       0.10866574       0.22976676       0.56511309 </v>
   <v>       0.08109640       0.67424678       0.56956509 </v>
   <v>       0.60940886       0.19977122       0.56557559 </v>
   <v>       0.60141259       0.74066750       0.56055444 </v>
   <v>       0.37486929       0.01334531       0.55906543 </v>
   <v>       0.25278309       0.62230419       0.55272554 </v>
   <v>       0.87259696       0.03348669       0.56377017 </v>
   <v>       0.05965871       0.28035261       0.58404974 </v>
   <v>       0.99777946       0.69085578       0.58291725 </v>
   <v>       0.52577144       0.17230340       0.57803743 </v>
   <v>       0.54360276       0.68760983       0.57689365 </v>
   <v>       0.29457361       0.44516029       0.57829224 </v>
   <v>       0.18176154       0.05307718       0.57125531 </v>
   <v>       0.67530031       0.02338317       0.57357554 </v>
   <v>       0.43731815       0.34249041       0.56130233 </v>
   <v>       0.38410927       0.79032522       0.55682762 </v>
   <v>       0.88286900       0.22895193       0.56040286 </v>
   <v>       0.98534405       0.87324264       0.55847901 </v>
   <v>       0.22295266       0.40283396       0.56419530 </v>
   <v>       0.15257759       0.97982262       0.55536786 </v>
   <v>       0.67295544       0.93587287       0.56056463 </v>
   <v>       0.55786561       0.30710552       0.55192344 </v>
   <v>       0.50880153       0.81053703       0.54631459 </v>
   <v>       0.00048963       0.19285590       0.54689271 </v>
   <v>       0.07989078       0.78785535       0.55173212 </v>
   <v>       0.18771220       0.51034149       0.54630672 </v>
   <v>       0.27441396       0.94386099       0.54660744 </v>
   <v>       0.79583373       0.93585746       0.55247592 </v>
   <v>       0.44686131       0.28347794       0.67623254 </v>
   <v>       0.43146925       0.82098305       0.67162640 </v>
   <v>       0.97092831       0.27701218       0.68113740 </v>
   <v>       0.92633875       0.76567023       0.67304294 </v>
   <v>       0.29536562       0.04724483       0.67492631 </v>
   <v>       0.30950672       0.55317853       0.67243399 </v>
   <v>       0.79466760       0.06105141       0.67490159 </v>
   <v>       0.81628477       0.53600824       0.67460484 </v>
   <v>       0.08632882       0.16513499       0.64530406 </v>
   <v>       0.10019129       0.68785444       0.65275977 </v>
   <v>       0.58024904       0.17374791       0.64556027 </v>
   <v>       0.56346671       0.67671840       0.65631969 </v>
   <v>       0.18095919       0.40840889       0.65484692 </v>
   <v>       0.16456536       0.92315698       0.64828079 </v>
   <v>       0.65790761       0.44276484       0.64984806 </v>
   <v>       0.67077987       0.92032993       0.65252126 </v>
   <v>       0.07066378       0.17871023       0.67270932 </v>
   <v>       0.03272873       0.66928876       0.67177975 </v>
   <v>       0.54198467       0.17893423       0.67124998 </v>
   <v>       0.52551361       0.71679038       0.67917405 </v>
   <v>       0.22023545       0.44408158       0.67826206 </v>
   <v>       0.18753580       0.95437327       0.67401988 </v>
   <v>       0.70609622       0.44408618       0.67404491 </v>
   <v>       0.69653407       0.95796650       0.67720265 </v>
   <v>       0.43255234       0.33939913       0.65382834 </v>
   <v>       0.41601022       0.83814389       0.64413237 </v>
   <v>       0.93180051       0.31815262       0.65904393 </v>
   <v>       0.93376771       0.83761354       0.65476817 </v>
   <v>       0.33583317       0.06429172       0.65018461 </v>
   <v>       0.31678849       0.58265565       0.64574177 </v>
   <v>       0.82588944       0.07947481       0.64867045 </v>
   <v>       0.83025988       0.58473429       0.65181024 </v>
   <v>       0.00001565       0.25243962       0.63474952 </v>
   <v>       0.04302856       0.79266875       0.63976279 </v>
   <v>       0.51476521       0.27556908       0.63259827 </v>
   <v>       0.49821859       0.74868288       0.63265535 </v>
   <v>       0.25644298       0.98757281       0.63169611 </v>
   <v>       0.23714208       0.49193710       0.63278849 </v>
   <v>       0.75021238       0.99215252       0.63299550 </v>
   <v>       0.73034491       0.53242513       0.63404662 </v>
   <v>       0.44874502       0.30128397       0.76888902 </v>
   <v>       0.44874501       0.80128391       0.76888902 </v>
   <v>       0.94874497       0.30128397       0.76888902 </v>
   <v>       0.94874501       0.80128391       0.76888902 </v>
   <v>       0.30127600       0.05129450       0.76887296 </v>
   <v>       0.30127601       0.55129450       0.76887296 </v>
   <v>       0.80127594       0.05129450       0.76887296 </v>
   <v>       0.80127598       0.55129450       0.76887296 </v>
   <v>       0.07877100       0.17118050       0.74344197 </v>
   <v>       0.07877101       0.67118045       0.74344197 </v>
   <v>       0.57877100       0.17118050       0.74344197 </v>
   <v>       0.57877099       0.67118045       0.74344197 </v>
   <v>       0.17119950       0.42117448       0.74342103 </v>
   <v>       0.17119950       0.92117451       0.74342103 </v>
   <v>       0.67119951       0.42117448       0.74342103 </v>
   <v>       0.67119950       0.92117451       0.74342103 </v>
   <v>       0.05125600       0.19871499       0.76888902 </v>
   <v>       0.05125600       0.69871493       0.76888902 </v>
   <v>       0.55125603       0.19871499       0.76888902 </v>
   <v>       0.55125602       0.69871493       0.76888902 </v>
   <v>       0.19872349       0.44870397       0.76887205 </v>
   <v>       0.19872349       0.94870397       0.76887205 </v>
   <v>       0.69872352       0.44870397       0.76887205 </v>
   <v>       0.69872351       0.94870397       0.76887205 </v>
   <v>       0.42123152       0.32881747       0.74344197 </v>
   <v>       0.42123151       0.82881744       0.74344197 </v>
   <v>       0.92123147       0.32881747       0.74344197 </v>
   <v>       0.92123151       0.82881744       0.74344197 </v>
   <v>       0.32880050       0.07882500       0.74342103 </v>
   <v>       0.32880049       0.57882496       0.74342103 </v>
   <v>       0.82880048       0.07882500       0.74342103 </v>
   <v>       0.82880052       0.57882496       0.74342103 </v>
   <v>       0.00000350       0.25000148       0.72582199 </v>
   <v>       0.00000350       0.75000145       0.72582199 </v>
   <v>       0.50000351       0.25000148       0.72582199 </v>
   <v>       0.50000350       0.75000145       0.72582199 </v>
   <v>       0.25000050       0.00000000       0.72580398 </v>
   <v>       0.25000052       0.50000000       0.72580398 </v>
   <v>       0.75000050       0.00000000       0.72580398 </v>
   <v>       0.75000049       0.50000000       0.72580398 </v>
   <v>       0.79413264       0.50991240       0.51672078 </v>
   <v>       0.87400679       0.50455644       0.53298594 </v>
   <v>       0.75694677       0.62824118       0.53583227 </v>
   <v>       0.76771728       0.62558488       0.56377554 </v>
   <v>       0.68401473       0.45261807       0.55353875 </v>
   <v>       0.66995880       0.54551426       0.56130410 </v>
   <v>       0.79938135       0.42936082       0.56899302 </v>
   <v>       0.86670825       0.50054609       0.57073836 </v>
   <v>       0.86080996       0.37846502       0.54026828 </v>
   <v>       0.76537214       0.37457367       0.53506900 </v>
   <v>       0.77754024       0.38001339       0.49775901 </v>
   <v>       0.86869282       0.41347784       0.49861651 </v>
   <v>       0.89737064       0.61516161       0.53135970 </v>
   <v>       0.90499532       0.60878734       0.55983078 </v>
   <v>       0.87127109       0.69085145       0.54770665 </v>
   <v>       0.59562804       0.52010262       0.52888398 </v>
   <v>       0.67529839       0.48711799       0.51473851 </v>
   <v>       0.66602174       0.58301335       0.52168253 </v>
   <v>       0.71587377       0.49223346       0.59381622 </v>
   <v>       0.76827939       0.57677530       0.59191862 </v>
   <v>       0.80633870       0.49881675       0.60392066 </v>
   <v>       0.82777123       0.26011892       0.51493741 </v>
   <v>       0.84634660       0.27710344       0.48781656 </v>
   <v>       0.93166139       0.16655637       0.49951647 </v>
   <v>       0.97145977       0.39430837       0.51642495 </v>
   <v>       0.06648372       0.14013648       0.50252925 </v>
   <v>       0.10620180       0.36734564       0.51922012 </v>
   <v>       0.15447880       0.24127265       0.51177955 </v>
   <v>       0.99606861       0.22739817       0.56124110 </v>
   <v>       0.03268723       0.77260410       0.56234227 </v>
   <v>       0.52338836       0.26980838       0.56139457 </v>
   <v>       0.49510374       0.76567482       0.55745067 </v>
   <v>       0.23387940       0.51208149       0.55763955 </v>
   <v>       0.26435975       0.99335907       0.55630157 </v>
   <v>       0.77302058       0.98370772       0.56100076 </v>
   <v>       0.00904110       0.24147776       0.65171910 </v>
   <v>       0.01749062       0.76212312       0.65298748 </v>
   <v>       0.50680356       0.25682896       0.64926982 </v>
   <v>       0.49061328       0.75736377       0.64983518 </v>
   <v>       0.24875482       0.49483438       0.64992894 </v>
   <v>       0.25013939       0.99383425       0.64890097 </v>
   <v>       0.74370061       0.51455754       0.65006593 </v>
   <v>       0.74831076       0.99913345       0.65033436 </v>
   <v>       0.49998898       0.24999498       0.74327702 </v>
   <v>       0.49998903       0.74999496       0.74327702 </v>
   <v>       0.99998898       0.24999498       0.74327702 </v>
   <v>       0.99998903       0.74999496       0.74327702 </v>
   <v>       0.25000050       0.00000100       0.74325596 </v>
   <v>       0.25000052       0.50000100       0.74325596 </v>
   <v>       0.75000050       0.00000100       0.74325596 </v>
   <v>       0.75000049       0.50000100       0.74325596 </v>
   <v>       0.94206789       0.28241438       0.50758633 </v>
   <v>       0.96962899       0.21098007       0.50393643 </v>
   <v>       0.99211473       0.33849127       0.51316520 </v>
   <v>       0.04520358       0.19599843       0.50544237 </v>
   <v>       0.06758357       0.32340380       0.51504180 </v>
   <v>       0.09516864       0.25269318       0.51086194 </v>
   <v>       0.81683500       0.48509178       0.53105391 </v>
   <v>       0.79093233       0.60512038       0.54877553 </v>
   <v>       0.69299468       0.51008737       0.54866785 </v>
   <v>       0.80703359       0.48892526       0.57063031 </v>
   <v>       0.81721048       0.39994711       0.52965788 </v>
   <v>       0.83050158       0.37521960       0.50626148 </v>
   <v>       0.87096308       0.62997527       0.54666152 </v>
   <v>       0.65637964       0.52595810       0.52717618 </v>
   <v>       0.77052605       0.51659569       0.59082117 </v>
   <v>       0.86010874       0.29611710       0.50408453 </v>
   <v>       0.05743071       0.24463607       0.57140292 </v>
   <v>       0.03573647       0.70763737       0.57162953 </v>
   <v>       0.55341139       0.20753585       0.56789600 </v>
   <v>       0.54897917       0.72406342       0.56465365 </v>
   <v>       0.45398895       0.28989719       0.56564439 </v>
   <v>       0.42553407       0.75889512       0.56326696 </v>
   <v>       0.92982887       0.25061578       0.56706111 </v>
   <v>       0.97847348       0.82056511       0.56451177 </v>
   <v>       0.25053489       0.45027312       0.56767220 </v>
   <v>       0.19521598       0.00963875       0.56108891 </v>
   <v>       0.70118033       0.98248079       0.56452539 </v>
   <v>       0.32233095       0.03216156       0.56236425 </v>
   <v>       0.26792673       0.57633751       0.56066341 </v>
   <v>       0.81781579       0.03666840       0.56738570 </v>
   <v>       0.05777384       0.19249727       0.65728625 </v>
   <v>       0.05100213       0.70282549       0.65978260 </v>
   <v>       0.54419347       0.19959360       0.65604339 </v>
   <v>       0.52963366       0.71541827       0.66274529 </v>
   <v>       0.21485302       0.44582998       0.66196211 </v>
   <v>       0.19670275       0.95470826       0.65785344 </v>
   <v>       0.70014682       0.46378088       0.65863412 </v>
   <v>       0.70247035       0.95641112       0.66090648 </v>
   <v>       0.45883171       0.29527084       0.66078115 </v>
   <v>       0.44339410       0.80902094       0.65586794 </v>
   <v>       0.96824705       0.28124423       0.66504207 </v>
   <v>       0.95503886       0.78929598       0.66052585 </v>
   <v>       0.29697807       0.03779370       0.65872343 </v>
   <v>       0.29486853       0.54671208       0.65676222 </v>
   <v>       0.79242432       0.04953192       0.65889216 </v>
   <v>       0.80028196       0.54568437       0.65934690 </v>
   <v>       0.04586250       0.20411950       0.75272599 </v>
   <v>       0.04586250       0.70411946       0.75272599 </v>
   <v>       0.54586251       0.20411950       0.75272599 </v>
   <v>       0.54586250       0.70411946       0.75272599 </v>
   <v>       0.20411900       0.45410100       0.75270499 </v>
   <v>       0.20411899       0.95410095       0.75270499 </v>
   <v>       0.70411898       0.45410100       0.75270499 </v>
   <v>       0.70411896       0.95410095       0.75270499 </v>
   <v>       0.45414002       0.29588849       0.75272697 </v>
   <v>       0.45414001       0.79588852       0.75272697 </v>
   <v>       0.95414002       0.29588849       0.75272697 </v>
[...]
   <v>       0.60940886       0.19977122       0.56557559 </v>
   <v>       0.60141259       0.74066750       0.56055444 </v>
   <v>       0.37486929       0.01334531       0.55906543 </v>
   <v>       0.25278309       0.62230419       0.55272554 </v>
   <v>       0.87259696       0.03348669       0.56377017 </v>
   <v>       0.05965871       0.28035261       0.58404974 </v>
   <v>       0.99777946       0.69085578       0.58291725 </v>
   <v>       0.52577144       0.17230340       0.57803743 </v>
   <v>       0.54360276       0.68760983       0.57689365 </v>
   <v>       0.29457361       0.44516029       0.57829224 </v>
   <v>       0.18176154       0.05307718       0.57125531 </v>
   <v>       0.67530031       0.02338317       0.57357554 </v>
   <v>       0.43731815       0.34249041       0.56130233 </v>
   <v>       0.38410927       0.79032522       0.55682762 </v>
   <v>       0.88286900       0.22895193       0.56040286 </v>
   <v>       0.98534405       0.87324264       0.55847901 </v>
   <v>       0.22295266       0.40283396       0.56419530 </v>
   <v>       0.15257759       0.97982262       0.55536786 </v>
   <v>       0.67295544       0.93587287       0.56056463 </v>
   <v>       0.55786561       0.30710552       0.55192344 </v>
   <v>       0.50880153       0.81053703       0.54631459 </v>
   <v>       0.00048963       0.19285590       0.54689271 </v>
   <v>       0.07989078       0.78785535       0.55173212 </v>
   <v>       0.18771220       0.51034149       0.54630672 </v>
   <v>       0.27441396       0.94386099       0.54660744 </v>
   <v>       0.79583373       0.93585746       0.55247592 </v>
   <v>       0.44686131       0.28347794       0.67623254 </v>
   <v>       0.43146925       0.82098305       0.67162640 </v>
   <v>       0.97092831       0.27701218       0.68113740 </v>
   <v>       0.92633875       0.76567023       0.67304294 </v>
   <v>       0.29536562       0.04724483       0.67492631 </v>
   <v>       0.30950672       0.55317853       0.67243399 </v>
   <v>       0.79466760       0.06105141       0.67490159 </v>
   <v>       0.81628477       0.53600824       0.67460484 </v>
   <v>       0.08632882       0.16513499       0.64530406 </v>
   <v>       0.10019129       0.68785444       0.65275977 </v>
   <v>       0.58024904       0.17374791       0.64556027 </v>
   <v>       0.56346671       0.67671840       0.65631969 </v>
   <v>       0.18095919       0.40840889       0.65484692 </v>
   <v>       0.16456536       0.92315698       0.64828079 </v>
   <v>       0.65790761       0.44276484       0.64984806 </v>
   <v>       0.67077987       0.92032993       0.65252126 </v>
   <v>       0.07066378       0.17871023       0.67270932 </v>
   <v>       0.03272873       0.66928876       0.67177975 </v>
   <v>       0.54198467       0.17893423       0.67124998 </v>
   <v>       0.52551361       0.71679038       0.67917405 </v>
   <v>       0.22023545       0.44408158       0.67826206 </v>
   <v>       0.18753580       0.95437327       0.67401988 </v>
   <v>       0.70609622       0.44408618       0.67404491 </v>
   <v>       0.69653407       0.95796650       0.67720265 </v>
   <v>       0.43255234       0.33939913       0.65382834 </v>
   <v>       0.41601022       0.83814389       0.64413237 </v>
   <v>       0.93180051       0.31815262       0.65904393 </v>
   <v>       0.93376771       0.83761354       0.65476817 </v>
   <v>       0.33583317       0.06429172       0.65018461 </v>
   <v>       0.31678849       0.58265565       0.64574177 </v>
   <v>       0.82588944       0.07947481       0.64867045 </v>
   <v>       0.83025988       0.58473429       0.65181024 </v>
   <v>       0.00001565       0.25243962       0.63474952 </v>
   <v>       0.04302856       0.79266875       0.63976279 </v>
   <v>       0.51476521       0.27556908       0.63259827 </v>
   <v>       0.49821859       0.74868288       0.63265535 </v>
   <v>       0.25644298       0.98757281       0.63169611 </v>
   <v>       0.23714208       0.49193710       0.63278849 </v>
   <v>       0.75021238       0.99215252       0.63299550 </v>
   <v>       0.73034491       0.53242513       0.63404662 </v>
   <v>       0.44874502       0.30128397       0.76888902 </v>
   <v>       0.44874501       0.80128391       0.76888902 </v>
   <v>       0.94874497       0.30128397       0.76888902 </v>
   <v>       0.94874501       0.80128391       0.76888902 </v>
   <v>       0.30127600       0.05129450       0.76887296 </v>
   <v>       0.30127601       0.55129450       0.76887296 </v>
   <v>       0.80127594       0.05129450       0.76887296 </v>
   <v>       0.80127598       0.55129450       0.76887296 </v>
   <v>       0.07877100       0.17118050       0.74344197 </v>
   <v>       0.07877101       0.67118045       0.74344197 </v>
   <v>       0.57877100       0.17118050       0.74344197 </v>
   <v>       0.57877099       0.67118045       0.74344197 </v>
   <v>       0.17119950       0.42117448       0.74342103 </v>
   <v>       0.17119950       0.92117451       0.74342103 </v>
   <v>       0.67119951       0.42117448       0.74342103 </v>
   <v>       0.67119950       0.92117451       0.74342103 </v>
   <v>       0.05125600       0.19871499       0.76888902 </v>
   <v>       0.05125600       0.69871493       0.76888902 </v>
   <v>       0.55125603       0.19871499       0.76888902 </v>
   <v>       0.55125602       0.69871493       0.76888902 </v>
   <v>       0.19872349       0.44870397       0.76887205 </v>
   <v>       0.19872349       0.94870397       0.76887205 </v>
   <v>       0.69872352       0.44870397       0.76887205 </v>
   <v>       0.69872351       0.94870397       0.76887205 </v>
   <v>       0.42123152       0.32881747       0.74344197 </v>
   <v>       0.42123151       0.82881744       0.74344197 </v>
   <v>       0.92123147       0.32881747       0.74344197 </v>
   <v>       0.92123151       0.82881744       0.74344197 </v>
   <v>       0.32880050       0.07882500       0.74342103 </v>
   <v>       0.32880049       0.57882496       0.74342103 </v>
   <v>       0.82880048       0.07882500       0.74342103 </v>
   <v>       0.82880052       0.57882496       0.74342103 </v>
   <v>       0.00000350       0.25000148       0.72582199 </v>
   <v>       0.00000350       0.75000145       0.72582199 </v>
   <v>       0.50000351       0.25000148       0.72582199 </v>
   <v>       0.50000350       0.75000145       0.72582199 </v>
   <v>       0.25000050       0.00000000       0.72580398 </v>
   <v>       0.25000052       0.50000000       0.72580398 </v>
   <v>       0.75000050       0.00000000       0.72580398 </v>
   <v>       0.75000049       0.50000000       0.72580398 </v>
   <v>       0.79413264       0.50991240       0.51672078 </v>
   <v>       0.87400679       0.50455644       0.53298594 </v>
   <v>       0.75694677       0.62824118       0.53583227 </v>
   <v>       0.76771728       0.62558488       0.56377554 </v>
   <v>       0.68401473       0.45261807       0.55353875 </v>
   <v>       0.66995880       0.54551426       0.56130410 </v>
   <v>       0.79938135       0.42936082       0.56899302 </v>
   <v>       0.86670825       0.50054609       0.57073836 </v>
   <v>       0.86080996       0.37846502       0.54026828 </v>
   <v>       0.76537214       0.37457367       0.53506900 </v>
   <v>       0.77754024       0.38001339       0.49775901 </v>
   <v>       0.86869282       0.41347784       0.49861651 </v>
   <v>       0.89737064       0.61516161       0.53135970 </v>
   <v>       0.90499532       0.60878734       0.55983078 </v>
   <v>       0.87127109       0.69085145       0.54770665 </v>
   <v>       0.59562804       0.52010262       0.52888398 </v>
   <v>       0.67529839       0.48711799       0.51473851 </v>
   <v>       0.66602174       0.58301335       0.52168253 </v>
   <v>       0.71587377       0.49223346       0.59381622 </v>
   <v>       0.76827939       0.57677530       0.59191862 </v>
   <v>       0.80633870       0.49881675       0.60392066 </v>
   <v>       0.82777123       0.26011892       0.51493741 </v>
   <v>       0.84634660       0.27710344       0.48781656 </v>
   <v>       0.93166139       0.16655637       0.49951647 </v>
   <v>       0.97145977       0.39430837       0.51642495 </v>
   <v>       0.06648372       0.14013648       0.50252925 </v>
   <v>       0.10620180       0.36734564       0.51922012 </v>
   <v>       0.15447880       0.24127265       0.51177955 </v>
   <v>       0.99606861       0.22739817       0.56124110 </v>
   <v>       0.03268723       0.77260410       0.56234227 </v>
   <v>       0.52338836       0.26980838       0.56139457 </v>
   <v>       0.49510374       0.76567482       0.55745067 </v>
   <v>       0.23387940       0.51208149       0.55763955 </v>
   <v>       0.26435975       0.99335907       0.55630157 </v>
   <v>       0.77302058       0.98370772       0.56100076 </v>
   <v>       0.00904110       0.24147776       0.65171910 </v>
   <v>       0.01749062       0.76212312       0.65298748 </v>
   <v>       0.50680356       0.25682896       0.64926982 </v>
   <v>       0.49061328       0.75736377       0.64983518 </v>
   <v>       0.24875482       0.49483438       0.64992894 </v>
   <v>       0.25013939       0.99383425       0.64890097 </v>
   <v>       0.74370061       0.51455754       0.65006593 </v>
   <v>       0.74831076       0.99913345       0.65033436 </v>
   <v>       0.49998898       0.24999498       0.74327702 </v>
   <v>       0.49998903       0.74999496       0.74327702 </v>
   <v>       0.99998898       0.24999498       0.74327702 </v>
   <v>       0.99998903       0.74999496       0.74327702 </v>
   <v>       0.25000050       0.00000100       0.74325596 </v>
   <v>       0.25000052       0.50000100       0.74325596 </v>
   <v>       0.75000050       0.00000100       0.74325596 </v>
   <v>       0.75000049       0.50000100       0.74325596 </v>
   <v>       0.94206789       0.28241438       0.50758633 </v>
   <v>       0.96962899       0.21098007       0.50393643 </v>
   <v>       0.99211473       0.33849127       0.51316520 </v>
   <v>       0.04520358       0.19599843       0.50544237 </v>
   <v>       0.06758357       0.32340380       0.51504180 </v>
   <v>       0.09516864       0.25269318       0.51086194 </v>
   <v>       0.81683500       0.48509178       0.53105391 </v>
   <v>       0.79093233       0.60512038       0.54877553 </v>
   <v>       0.69299468       0.51008737       0.54866785 </v>
   <v>       0.80703359       0.48892526       0.57063031 </v>
   <v>       0.81721048       0.39994711       0.52965788 </v>
   <v>       0.83050158       0.37521960       0.50626148 </v>
   <v>       0.87096308       0.62997527       0.54666152 </v>
   <v>       0.65637964       0.52595810       0.52717618 </v>
   <v>       0.77052605       0.51659569       0.59082117 </v>
   <v>       0.86010874       0.29611710       0.50408453 </v>
   <v>       0.05743071       0.24463607       0.57140292 </v>
   <v>       0.03573647       0.70763737       0.57162953 </v>
   <v>       0.55341139       0.20753585       0.56789600 </v>
   <v>       0.54897917       0.72406342       0.56465365 </v>
   <v>       0.45398895       0.28989719       0.56564439 </v>
   <v>       0.42553407       0.75889512       0.56326696 </v>
   <v>       0.92982887       0.25061578       0.56706111 </v>
   <v>       0.97847348       0.82056511       0.56451177 </v>
   <v>       0.25053489       0.45027312       0.56767220 </v>
   <v>       0.19521598       0.00963875       0.56108891 </v>
   <v>       0.70118033       0.98248079       0.56452539 </v>
   <v>       0.32233095       0.03216156       0.56236425 </v>
   <v>       0.26792673       0.57633751       0.56066341 </v>
   <v>       0.81781579       0.03666840       0.56738570 </v>
   <v>       0.05777384       0.19249727       0.65728625 </v>
   <v>       0.05100213       0.70282549       0.65978260 </v>
   <v>       0.54419347       0.19959360       0.65604339 </v>
   <v>       0.52963366       0.71541827       0.66274529 </v>
   <v>       0.21485302       0.44582998       0.66196211 </v>
   <v>       0.19670275       0.95470826       0.65785344 </v>
   <v>       0.70014682       0.46378088       0.65863412 </v>
   <v>       0.70247035       0.95641112       0.66090648 </v>
   <v>       0.45883171       0.29527084       0.66078115 </v>
   <v>       0.44339410       0.80902094       0.65586794 </v>
   <v>       0.96824705       0.28124423       0.66504207 </v>
   <v>       0.95503886       0.78929598       0.66052585 </v>
   <v>       0.29697807       0.03779370       0.65872343 </v>
   <v>       0.29486853       0.54671208       0.65676222 </v>
   <v>       0.79242432       0.04953192       0.65889216 </v>
   <v>       0.80028196       0.54568437       0.65934690 </v>
   <v>       0.04586250       0.20411950       0.75272599 </v>
   <v>       0.04586250       0.70411946       0.75272599 </v>
   <v>       0.54586251       0.20411950       0.75272599 </v>
   <v>       0.54586250       0.70411946       0.75272599 </v>
   <v>       0.20411900       0.45410100       0.75270499 </v>
   <v>       0.20411899       0.95410095       0.75270499 </v>
   <v>       0.70411898       0.45410100       0.75270499 </v>
   <v>       0.70411896       0.95410095       0.75270499 </v>
   <v>       0.45414002       0.29588849       0.75272697 </v>
   <v>       0.45414001       0.79588852       0.75272697 </v>
   <v>       0.95414002       0.29588849       0.75272697 </v>
   <v>       0.95414006       0.79588852       0.75272697 </v>
   <v>       0.29588249       0.04590050       0.75270499 </v>
   <v>       0.29588248       0.54590053       0.75270499 </v>
   <v>       0.79588244       0.04590050       0.75270499 </v>
   <v>       0.79588248       0.54590053       0.75270499 </v>
   <v>       0.77691590       0.52119965       0.54961286 </v>
   <v>       0.50742025       0.97704531       0.55491867 </v>
   <v>       0.45598827       0.48616056       0.55441265 </v>
   <v>       0.00541469       0.01542887       0.55297028 </v>
   <v>       0.03750215       0.49427456       0.55568146 </v>
   <v>       0.25083267       0.24530850       0.55617685 </v>
   <v>       0.23486146       0.76927087       0.55185043 </v>
   <v>       0.74270346       0.22253569       0.55537628 </v>
   <v>       0.71642572       0.79548472       0.54911129 </v>
   <v>       0.99737811       0.98963587       0.65467074 </v>
   <v>       0.00434092       0.50086430       0.65607074 </v>
   <v>       0.49787435       0.00701429       0.65572173 </v>
   <v>       0.49810665       0.50247399       0.65455847 </v>
   <v>       0.25946391       0.23717565       0.65597379 </v>
   <v>       0.24743376       0.74972331       0.65402443 </v>
   <v>       0.74064008       0.25345418       0.65538163 </v>
   <v>       0.75326441       0.75039179       0.65407797 </v>
   <v>       0.14414193       0.11084793       0.60897007 </v>
   <v>       0.14312630       0.61138224       0.61010714 </v>
   <v>       0.64484571       0.10775541       0.60893649 </v>
   <v>       0.61189269       0.63662303       0.61292624 </v>
   <v>       0.36495842       0.38518514       0.61304644 </v>
   <v>       0.36451189       0.88666699       0.60707265 </v>
   <v>       0.89029447       0.36048445       0.61548803 </v>
   <v>       0.86642403       0.88567270       0.60738900 </v>
   <v>       0.12029373       0.36493305       0.61318282 </v>
   <v>       0.11868263       0.87635258       0.60677377 </v>
   <v>       0.61608040       0.37007739       0.60623570 </v>
   <v>       0.62036904       0.86852527       0.61172648 </v>
   <v>       0.39821430       0.14356412       0.60535667 </v>
   <v>       0.37670725       0.63428124       0.60651786 </v>
   <v>       0.88588156       0.13747953       0.61398694 </v>
   <v>       0.91124402       0.65969610       0.61321921 </v>
   <v>       0.00000000       0.00000000       0.75492797 </v>
   <v>       0.00000000       0.50000000       0.75492797 </v>
   <v>       0.50000000       0.00000000       0.75492797 </v>
   <v>       0.49999999       0.50000000       0.75492797 </v>
   <v>       0.25000050       0.25000000       0.75493902 </v>
   <v>       0.25000051       0.74999997       0.75493902 </v>
   <v>       0.75000047       0.25000000       0.75493902 </v>
   <v>       0.75000046       0.74999997       0.75493902 </v>
   <v>       0.13579050       0.11421000       0.70478299 </v>
   <v>       0.13579050       0.61420998       0.70478299 </v>
   <v>       0.63579045       0.11421000       0.70478299 </v>
   <v>       0.63579049       0.61420998       0.70478299 </v>
   <v>       0.36420952       0.38578999       0.70478299 </v>
   <v>       0.36420950       0.88578996       0.70478299 </v>
   <v>       0.86420954       0.38578999       0.70478299 </v>
   <v>       0.86420953       0.88578996       0.70478299 </v>
   <v>       0.11421799       0.36421899       0.70478098 </v>
   <v>       0.11421799       0.86421899       0.70478098 </v>
   <v>       0.61421800       0.36421899       0.70478098 </v>
   <v>       0.61421799       0.86421899       0.70478098 </v>
   <v>       0.38578201       0.13578149       0.70478202 </v>
   <v>       0.38578200       0.63578149       0.70478202 </v>
   <v>       0.88578199       0.13578149       0.70478202 </v>
   <v>       0.88578203       0.63578149       0.70478202 </v>
   <v>       0.13466700       0.11533200       0.80125603 </v>
   <v>       0.13466699       0.61533199       0.80125603 </v>
   <v>       0.63466699       0.11533200       0.80125603 </v>
   <v>       0.63466698       0.61533199       0.80125603 </v>
   <v>       0.36533300       0.38466799       0.80125603 </v>
   <v>       0.36533299       0.88466796       0.80125603 </v>
   <v>       0.86533295       0.38466799       0.80125603 </v>
   <v>       0.86533294       0.88466796       0.80125603 </v>
   <v>       0.11532850       0.36533700       0.80126500 </v>
   <v>       0.11532850       0.86533698       0.80126500 </v>
   <v>       0.61532850       0.36533700       0.80126500 </v>
   <v>       0.61532849       0.86533698       0.80126500 </v>
   <v>       0.38467151       0.13466300       0.80126500 </v>
   <v>       0.38467150       0.63466297       0.80126500 </v>
   <v>       0.88467149       0.13466300       0.80126500 </v>
   <v>       0.88467153       0.63466297       0.80126500 </v>
   <v>       0.99931783       0.00766550       0.60495846 </v>
   <v>       0.00776072       0.50348549       0.60523812 </v>
   <v>       0.50376116       0.99386116       0.60458137 </v>
   <v>       0.49406897       0.49894816       0.60333588 </v>
   <v>       0.25251263       0.25139180       0.60630987 </v>
   <v>       0.24202588       0.75696953       0.60356127 </v>
   <v>       0.75078950       0.25306818       0.60620511 </v>
   <v>       0.75006797       0.75591823       0.60373007 </v>
   <v>       0.00000050       0.00000050       0.70482896 </v>
   <v>       0.00000050       0.50000048       0.70482896 </v>
   <v>       0.50000048       0.00000050       0.70482896 </v>
   <v>       0.50000046       0.50000048       0.70482896 </v>
   <v>       0.24999999       0.24999947       0.70482499 </v>
   <v>       0.25000001       0.74999950       0.70482499 </v>
   <v>       0.74999999       0.24999947       0.70482499 </v>
   <v>       0.74999998       0.74999950       0.70482499 </v>
   <v>       0.00000000       0.00000000       0.80731797 </v>
   <v>       0.00000000       0.50000000       0.80731797 </v>
   <v>       0.50000000       0.00000000       0.80731797 </v>
   <v>       0.49999999       0.50000000       0.80731797 </v>
   <v>       0.24999999       0.25000000       0.80731797 </v>
   <v>       0.25000001       0.74999997       0.80731797 </v>
   <v>       0.74999999       0.25000000       0.80731797 </v>
   <v>       0.74999998       0.74999997       0.80731797 </v>
  </varray>
 </structure>
</modeling>
