 vasp.6.2.1 16May21 (build Nov 15 2021 14:57:28) complex                         
 executed on             LinuxPGI date 2023.07.30  17:43:32
 running on    4 total cores
 distrk:  each k-point on    4 cores,    1 groups
 distr:  one band on NCORE=   1 cores,    4 groups


--------------------------------------------------------------------------------------------------------


 INCAR:
   SYSTEM = PSC
   ISTART = 1
   ICHARG = 1
   PREC = Normal
   ENCUT = 500
   GGA_COMPAT = F
   NELM = 600
   ISYM = 0
   LREAL = Auto
   ISMEAR = 0
   SIGMA = 0.05
   AMIN = 0.01
   BMIX = 0.01
   LVTOT = T
   LWAVE = F
   LDIPOL = T
   IDIPOL = 3
   LVDW = T
   IVDW = 12

 POTCAR:    PAW_PBE H 15Jun2001                   
 POTCAR:    PAW_PBE C 08Apr2002                   
 POTCAR:    PAW_PBE N 08Apr2002                   
 POTCAR:    PAW_PBE I 08Apr2002                   
 POTCAR:    PAW_PBE Pb 08Apr2002                  
 WARNING: For LVTOT=.TRUE., VASP.5.x writes the TOTAL local potential to the
     file LOCPOT. If you want only the Hartree contributions, use LVHAR=.TRUE.
     instead. 

 POTCAR:    PAW_PBE H 15Jun2001                   
   SHA256 =  030f79b5d3ab3cf0e668861823c8fb652ff669f3e15e46930bd03bfd63a607b6 H/POTCAR              
   COPYR  = (c) Copyright 15Jun2001 Georg Kresse                                                    
   COPYR  = This file is part of the software VASP. Any use, copying, and all other rights are regul
   COPYR  = If you do not have a valid VASP license, you may not use, copy or distribute this file. 
   VRHFIN =H: ultrasoft test                                                                        
   LEXCH  = PE                                                                                      
   EATOM  =    12.4884 eV,    0.9179 Ry                                                             
                                                                                                    
   TITEL  = PAW_PBE H 15Jun2001                                                                     
   LULTRA =        F    use ultrasoft PP ?                                                          
   IUNSCR =        0    unscreen: 0-lin 1-nonlin 2-no                                               
   RPACOR =    0.000    partial core radius                                                         
   POMASS =    1.000; ZVAL   =    1.000    mass and valenz                                          
   RCORE  =    1.100    outmost cutoff radius                                                       
   RWIGS  =    0.700; RWIGS  =    0.370    wigner-seitz radius (au A)                               
   ENMAX  =  250.000; ENMIN  =  200.000 eV                                                          
   RCLOC  =    0.701    cutoff for local pot                                                        
   LCOR   =        T    correct aug charges                                                         
   LPAW   =        T    paw PP                                                                      
   EAUG   =  400.000                                                                                
   RMAX   =    1.123    core radius for proj-oper                                                   
   RAUG   =    1.200    factor for augmentation sphere                                              
   RDEP   =    1.112    radius for radial grids                                                     
   RDEPT  =    0.926    core radius for aug-charge                                                  
                                                                                                    
   Atomic configuration                                                                             
    2 entries                                                                                       
     n  l   j            E        occ.                                                              
     1  0  0.50        -6.4927   1.0000                                                             
     2  1  0.50        -3.4015   0.0000                                                             
   Description                                                                                      
     l       E           TYP  RCUT    TYP  RCUT                                                     
     0     -6.4927494     23  1.100                                                                 
     0      6.8029130     23  1.100                                                                 
     1     -4.0817478     23  1.100                                                                 
  local pseudopotential read in
  atomic valenz-charges read in
  non local Contribution for L=            0  read in
    real space projection operators read in
  non local Contribution for L=            0  read in
    real space projection operators read in
  non local Contribution for L=            1  read in
    real space projection operators read in
    PAW grid and wavefunctions read in
 
   number of l-projection  operators is LMAX  =            3
   number of lm-projection operators is LMMAX =            5
 
 POTCAR:    PAW_PBE C 08Apr2002                   
   SHA256 =  253f7b50bb8d59471dbedb8285d89021f4a42ed1a2c5d38a03a736e69125dd95 C/POTCAR              
   COPYR  = (c) Copyright 08Apr2002 Georg Kresse                                                    
   COPYR  = This file is part of the software VASP. Any use, copying, and all other rights are regul
   COPYR  = If you do not have a valid VASP license, you may not use, copy or distribute this file. 
   VRHFIN =C: s2p2                                                                                  
   LEXCH  = PE                                                                                      
   EATOM  =   147.1560 eV,   10.8157 Ry                                                             
                                                                                                    
   TITEL  = PAW_PBE C 08Apr2002                                                                     
   LULTRA =        F    use ultrasoft PP ?                                                          
   IUNSCR =        1    unscreen: 0-lin 1-nonlin 2-no                                               
   RPACOR =    1.200    partial core radius                                                         
   POMASS =   12.011; ZVAL   =    4.000    mass and valenz                                          
   RCORE  =    1.500    outmost cutoff radius                                                       
   RWIGS  =    1.630; RWIGS  =    0.863    wigner-seitz radius (au A)                               
   ENMAX  =  400.000; ENMIN  =  300.000 eV                                                          
   ICORE  =        2    local potential                                                             
   LCOR   =        T    correct aug charges                                                         
   LPAW   =        T    paw PP                                                                      
   EAUG   =  644.873                                                                                
   DEXC   =    0.000                                                                                
   RMAX   =    1.529    core radius for proj-oper                                                   
   RAUG   =    1.300    factor for augmentation sphere                                              
   RDEP   =    1.501    radius for radial grids                                                     
   RDEPT  =    1.300    core radius for aug-charge                                                  
                                                                                                    
   Atomic configuration                                                                             
    4 entries                                                                                       
     n  l   j            E        occ.                                                              
     1  0  0.50      -273.3789   2.0000                                                             
     2  0  0.50       -13.7508   2.0000                                                             
     2  1  0.50        -5.2854   2.0000                                                             
     3  2  1.50        -5.4423   0.0000                                                             
   Description                                                                                      
     l       E           TYP  RCUT    TYP  RCUT                                                     
     0    -13.7508458     23  1.200                                                                 
     0     -8.2022199     23  1.200                                                                 
     1     -5.2854383     23  1.500                                                                 
     1     34.0145650     23  1.500                                                                 
     2     -5.4423304      7  1.500                                                                 
  local pseudopotential read in
  partial core-charges read in
  partial kinetic energy density read in
  atomic valenz-charges read in
  non local Contribution for L=            0  read in
    real space projection operators read in
  non local Contribution for L=            0  read in
    real space projection operators read in
  non local Contribution for L=            1  read in
    real space projection operators read in
  non local Contribution for L=            1  read in
    real space projection operators read in
    PAW grid and wavefunctions read in
 
   number of l-projection  operators is LMAX  =            4
   number of lm-projection operators is LMMAX =            8
 
 POTCAR:    PAW_PBE N 08Apr2002                   
   SHA256 =  e053789ff3a61a86a1b75d8a110fcc91f86041011e7b0817c7c99e4e8a6349d7 N/POTCAR              
   COPYR  = (c) Copyright 08Apr2002 Georg Kresse                                                    
   COPYR  = This file is part of the software VASP. Any use, copying, and all other rights are regul
   COPYR  = If you do not have a valid VASP license, you may not use, copy or distribute this file. 
   VRHFIN =N: s2p3                                                                                  
   LEXCH  = PE                                                                                      
   EATOM  =   264.5486 eV,   19.4438 Ry                                                             
                                                                                                    
   TITEL  = PAW_PBE N 08Apr2002                                                                     
   LULTRA =        F    use ultrasoft PP ?                                                          
   IUNSCR =        1    unscreen: 0-lin 1-nonlin 2-no                                               
   RPACOR =    1.200    partial core radius                                                         
   POMASS =   14.001; ZVAL   =    5.000    mass and valenz                                          
   RCORE  =    1.500    outmost cutoff radius                                                       
   RWIGS  =    1.400; RWIGS  =    0.741    wigner-seitz radius (au A)                               
   ENMAX  =  400.000; ENMIN  =  300.000 eV                                                          
   ICORE  =        2    local potential                                                             
   LCOR   =        T    correct aug charges                                                         
   LPAW   =        T    paw PP                                                                      
   EAUG   =  627.112                                                                                
   DEXC   =    0.000                                                                                
   RMAX   =    1.529    core radius for proj-oper                                                   
   RAUG   =    1.300    factor for augmentation sphere                                              
   RDEP   =    1.514    radius for radial grids                                                     
   RDEPT  =    1.338    core radius for aug-charge                                                  
                                                                                                    
   Atomic configuration                                                                             
    4 entries                                                                                       
     n  l   j            E        occ.                                                              
     1  0  0.50      -384.7179   2.0000                                                             
     2  0  0.50       -18.5828   2.0000                                                             
     2  1  0.50        -7.0898   3.0000                                                             
     3  2  1.50        -6.8029   0.0000                                                             
   Description                                                                                      
     l       E           TYP  RCUT    TYP  RCUT                                                     
     0    -18.5828119     23  1.200                                                                 
     0    -13.5018863     23  1.200                                                                 
     1     -7.0897853     23  1.500                                                                 
     1      9.5240782     23  1.500                                                                 
     2     -6.8029130      7  1.500                                                                 
  local pseudopotential read in
  partial core-charges read in
  partial kinetic energy density read in
  atomic valenz-charges read in
  non local Contribution for L=            0  read in
    real space projection operators read in
  non local Contribution for L=            0  read in
    real space projection operators read in
  non local Contribution for L=            1  read in
    real space projection operators read in
  non local Contribution for L=            1  read in
    real space projection operators read in
    PAW grid and wavefunctions read in
 
   number of l-projection  operators is LMAX  =            4
   number of lm-projection operators is LMMAX =            8
 
 POTCAR:    PAW_PBE I 08Apr2002                   
   SHA256 =  e40f3f59b681c1fc3e3091736183c4589116986673d2b852a5012aec72758799 I/POTCAR              
   COPYR  = (c) Copyright 08Apr2002 Georg Kresse                                                    
   COPYR  = This file is part of the software VASP. Any use, copying, and all other rights are regul
   COPYR  = If you do not have a valid VASP license, you may not use, copy or distribute this file. 
   VRHFIN =I : s2p5                                                                                 
   LEXCH  = PE                                                                                      
   EATOM  =   315.8678 eV,   23.2156 Ry                                                             
                                                                                                    
   TITEL  = PAW_PBE I 08Apr2002                                                                     
   LULTRA =        F    use ultrasoft PP ?                                                          
   IUNSCR =        1    unscreen: 0-lin 1-nonlin 2-no                                               
   RPACOR =    2.200    partial core radius                                                         
   POMASS =  126.904; ZVAL   =    7.000    mass and valenz                                          
   RCORE  =    2.300    outmost cutoff radius                                                       
   RWIGS  =    2.810; RWIGS  =    1.487    wigner-seitz radius (au A)                               
   ENMAX  =  175.647; ENMIN  =  131.735 eV                                                          
   ICORE  =        3    local potential                                                             
   LCOR   =        T    correct aug charges                                                         
   LPAW   =        T    paw PP                                                                      
   EAUG   =  370.139                                                                                
   DEXC   =    0.000                                                                                
   RMAX   =    2.359    core radius for proj-oper                                                   
   RAUG   =    1.300    factor for augmentation sphere                                              
   RDEP   =    2.392    radius for radial grids                                                     
   RDEPT  =    2.170    core radius for aug-charge                                                  
                                                                                                    
   Atomic configuration                                                                             
   13 entries                                                                                       
     n  l   j            E        occ.                                                              
     1  0  0.50    -32976.3739   2.0000                                                             
     2  0  0.50     -5094.5933   2.0000                                                             
     2  1  1.50     -4572.0131   6.0000                                                             
     3  0  0.50     -1028.2813   2.0000                                                             
     3  1  1.50      -859.0250   6.0000                                                             
     3  2  2.50      -605.7620  10.0000                                                             
     4  0  0.50      -180.5540   2.0000                                                             
     4  1  1.50      -127.5306   6.0000                                                             
     4  2  2.50       -50.2720  10.0000                                                             
     5  0  0.50       -17.4058   2.0000                                                             
     5  1  0.50        -7.0851   5.0000                                                             
     5  2  1.50        -7.0750   0.0000                                                             
     4  3  2.50        -7.0750   0.0000                                                             
   Description                                                                                      
     l       E           TYP  RCUT    TYP  RCUT                                                     
     0    -17.4058016     23  2.300                                                                 
     0    -18.7663842     23  2.300                                                                 
     1     -7.0850686     23  2.300                                                                 
     1     -4.2150896     23  2.300                                                                 
     2     -7.0750295     23  2.300                                                                 
     3     -1.3605826     23  2.300                                                                 
  local pseudopotential read in
  partial core-charges read in
  partial kinetic energy density read in
  atomic valenz-charges read in
  non local Contribution for L=            0  read in
    real space projection operators read in
  non local Contribution for L=            0  read in
    real space projection operators read in
  non local Contribution for L=            1  read in
    real space projection operators read in
  non local Contribution for L=            1  read in
    real space projection operators read in
  non local Contribution for L=            2  read in
    real space projection operators read in
    PAW grid and wavefunctions read in
 
   number of l-projection  operators is LMAX  =            5
   number of lm-projection operators is LMMAX =           13
 
 POTCAR:    PAW_PBE Pb 08Apr2002                  
   SHA256 =  797118a27cf1bcd06b9881c67a26cdde129e3cd1a551dd4a281f9681ce847303 Pb/POTCAR             
   COPYR  = (c) Copyright 08Apr2002 Georg Kresse                                                    
   COPYR  = This file is part of the software VASP. Any use, copying, and all other rights are regul
   COPYR  = If you do not have a valid VASP license, you may not use, copy or distribute this file. 
   VRHFIN =Pb:                                                                                      
   LEXCH  = PE                                                                                      
   EATOM  =    96.9868 eV,    7.1283 Ry                                                             
                                                                                                    
   TITEL  = PAW_PBE Pb 08Apr2002                                                                    
   LULTRA =        F    use ultrasoft PP ?                                                          
   IUNSCR =        1    unscreen: 0-lin 1-nonlin 2-no                                               
   RPACOR =    2.200    partial core radius                                                         
   POMASS =  207.200; ZVAL   =    4.000    mass and valenz                                          
   RCORE  =    3.100    outmost cutoff radius                                                       
   RWIGS  =    3.260; RWIGS  =    1.725    wigner-seitz radius (au A)                               
   ENMAX  =   97.973; ENMIN  =   73.480 eV                                                          
   ICORE  =        3    local potential                                                             
   LCOR   =        T    correct aug charges                                                         
   LPAW   =        T    paw PP                                                                      
   EAUG   =  234.873                                                                                
   DEXC   =    0.000                                                                                
   RMAX   =    3.158    core radius for proj-oper                                                   
   RAUG   =    1.300    factor for augmentation sphere                                              
   RDEP   =    3.202    radius for radial grids                                                     
   RDEPT  =    2.659    core radius for aug-charge                                                  
                                                                                                    
   Atomic configuration                                                                             
   17 entries                                                                                       
     n  l   j            E        occ.                                                              
     1  0  0.50    -88091.8466   2.0000                                                             
     2  0  0.50    -15753.4197   2.0000                                                             
     2  1  1.50    -13508.1797   6.0000                                                             
     3  0  0.50     -3781.7194   2.0000                                                             
     3  1  1.50     -3138.2529   6.0000                                                             
     3  2  2.50     -2483.2977  10.0000                                                             
     4  0  0.50      -856.2895   2.0000                                                             
     4  1  1.50      -645.4943   6.0000                                                             
     4  2  2.50      -401.8768  10.0000                                                             
     4  3  3.50      -132.9059  14.0000                                                             
     5  0  0.50      -144.0950   2.0000                                                             
     5  1  1.50       -85.7879   6.0000                                                             
     5  2  2.50       -21.1769  10.0000                                                             
     6  0  0.50       -12.0372   2.0000                                                             
     6  1  1.50        -3.4971   2.0000                                                             
     6  2  2.50        -1.3606   0.0000                                                             
     5  3  2.50        -2.7212   0.0000                                                             
   Description                                                                                      
     l       E           TYP  RCUT    TYP  RCUT                                                     
     0    -12.0371566     23  3.100                                                                 
     0    -13.3977392     23  3.100                                                                 
     1     -3.4971341     23  3.100                                                                 
     1     -5.4423304     23  3.100                                                                 
     2     -1.3605826     23  3.100                                                                 
     3     -1.3605826     23  3.100                                                                 
  local pseudopotential read in
  partial core-charges read in
  partial kinetic energy density read in
  atomic valenz-charges read in
  non local Contribution for L=            0  read in
    real space projection operators read in
  non local Contribution for L=            0  read in
    real space projection operators read in
  non local Contribution for L=            1  read in
    real space projection operators read in
  non local Contribution for L=            1  read in
    real space projection operators read in
  non local Contribution for L=            2  read in
    real space projection operators read in
    PAW grid and wavefunctions read in
 
   number of l-projection  operators is LMAX  =            5
   number of lm-projection operators is LMMAX =           13
 
 Optimization of the real space projectors (new method)

 maximal supplied QI-value         = 34.20
 optimisation between [QCUT,QGAM] = [ 11.29, 22.57] = [ 35.68,142.71] Ry 
 Optimized for a Real-space Cutoff    1.16 Angstroem

   l    n(q)    QCUT    max X(q) W(low)/X(q) W(high)/X(q)  e(spline) 
   0      8    11.287    19.460    0.40E-03    0.73E-03    0.16E-06
   0      8    11.287    12.209    0.38E-03    0.70E-03    0.15E-06
   1      7    11.287     4.655    0.22E-03    0.25E-04    0.22E-06
 Optimization of the real space projectors (new method)

 maximal supplied QI-value         = 25.13
 optimisation between [QCUT,QGAM] = [ 11.31, 22.87] = [ 35.82,146.48] Ry 
 Optimized for a Real-space Cutoff    1.00 Angstroem

   l    n(q)    QCUT    max X(q) W(low)/X(q) W(high)/X(q)  e(spline) 
   0      7    11.310   115.676    0.43E-03    0.13E-02    0.19E-06
   0      7    11.310    87.132    0.43E-03    0.13E-02    0.18E-06
   1      6    11.310     4.429    0.42E-03    0.74E-03    0.11E-06
   1      6    11.310     2.733    0.34E-03    0.55E-03    0.92E-07
 Optimization of the real space projectors (new method)

 maximal supplied QI-value         = 25.13
 optimisation between [QCUT,QGAM] = [ 11.31, 22.87] = [ 35.82,146.48] Ry 
 Optimized for a Real-space Cutoff    1.27 Angstroem

   l    n(q)    QCUT    max X(q) W(low)/X(q) W(high)/X(q)  e(spline) 
   0      9    11.310    79.467    0.75E-04    0.16E-03    0.36E-06
   0      9    11.310    66.151    0.74E-04    0.16E-03    0.36E-06
   1      8    11.310    17.416    0.35E-03    0.12E-03    0.95E-06
   1      8    11.310    12.382    0.37E-03    0.13E-03    0.98E-06
 Optimization of the real space projectors (new method)

 maximal supplied QI-value         = 16.25
 optimisation between [QCUT,QGAM] = [ 11.38, 22.75] = [ 36.24,144.96] Ry 
 Optimized for a Real-space Cutoff    1.31 Angstroem

   l    n(q)    QCUT    max X(q) W(low)/X(q) W(high)/X(q)  e(spline) 
   0      9    11.376   194.483    0.24E-03    0.23E-03    0.67E-07
   0      9    11.376   190.334    0.23E-03    0.22E-03    0.65E-07
   1      8    11.376   116.687    0.25E-03    0.63E-04    0.16E-06
   1      8    11.376    88.696    0.25E-03    0.61E-04    0.16E-06
   2      8    11.376     4.877    0.17E-03    0.14E-03    0.29E-07
 Optimization of the real space projectors (new method)

 maximal supplied QI-value         = 12.09
 optimisation between [QCUT,QGAM] = [ 11.37, 22.86] = [ 36.19,146.31] Ry 
 Optimized for a Real-space Cutoff    1.66 Angstroem

   l    n(q)    QCUT    max X(q) W(low)/X(q) W(high)/X(q)  e(spline) 
   0     11    11.369   135.111    0.12E-03    0.69E-04    0.19E-05
   0     11    11.369   146.850    0.11E-03    0.65E-04    0.18E-05
   1     11    11.369   148.016    0.17E-03    0.32E-03    0.89E-06
   1     11    11.369   122.989    0.17E-03    0.32E-03    0.91E-06
   2     10    11.369     8.916    0.12E-03    0.45E-04    0.33E-06
  PAW_PBE H 15Jun2001                   :
 energy of atom  1       EATOM=  -12.4884
 kinetic energy error for atom=    0.0020 (will be added to EATOM!!)
  PAW_PBE C 08Apr2002                   :
 energy of atom  2       EATOM= -147.1560
 kinetic energy error for atom=    0.0076 (will be added to EATOM!!)
  PAW_PBE N 08Apr2002                   :
 energy of atom  3       EATOM= -264.5486
 kinetic energy error for atom=    0.0138 (will be added to EATOM!!)
  PAW_PBE I 08Apr2002                   :
 energy of atom  4       EATOM= -315.8678
 kinetic energy error for atom=    0.0009 (will be added to EATOM!!)
  PAW_PBE Pb 08Apr2002                  :
 energy of atom  5       EATOM=  -96.9868
 kinetic energy error for atom=    0.0000 (will be added to EATOM!!)
 
 
 POSCAR:  H  C  N  I Pb
  positions in cartesian coordinates
  No initial velocities read in
 exchange correlation table for  LEXCH =        8
   RHO(1)=    0.500       N(1)  =     2000
   RHO(2)=  100.500       N(2)  =     4000
 


--------------------------------------------------------------------------------------------------------


 ion  position               nearest neighbor table
   1  0.447  0.303  0.581- 187 0.99
   2  0.446  0.837  0.578- 188 1.04
   3  0.945  0.265  0.586- 189 1.03
   4  0.966  0.806  0.587- 190 1.00
   5  0.300  0.045  0.583- 194 1.03
   6  0.305  0.555  0.583- 195 1.03
   7  0.776  0.068  0.582- 196 1.04
   8  0.106  0.202  0.554- 183 1.04
   9  0.086  0.680  0.558- 184 1.02
  10  0.576  0.179  0.558- 185 1.00
  11  0.527  0.657  0.567- 186 1.03
  12  0.358  0.036  0.560- 194 1.01
  13  0.302  0.604  0.559- 195 1.00
  14  0.841  0.067  0.561- 196 1.00
  15  0.072  0.207  0.581- 183 1.03
  16  0.042  0.692  0.582- 184 1.01
  17  0.561  0.232  0.580- 185 1.00
  18  0.500  0.713  0.587- 186 1.02
  19  0.231  0.436  0.583- 191 1.03
  20  0.176  0.982  0.580- 192 1.04
  21  0.682  0.968  0.581- 193 1.03
  22  0.384  0.291  0.561- 187 1.03
  23  0.448  0.860  0.551- 188 1.00
  24  0.900  0.284  0.561- 189 1.02
  25  0.960  0.865  0.565- 190 1.03
  26  0.188  0.412  0.559- 191 0.99
  27  0.156  0.941  0.556- 192 1.00
  28  0.690  0.902  0.560- 193 1.02
  29  0.462  0.211  0.543- 146 1.09
  30  0.500  0.751  0.541- 147 1.09
  31  0.998  0.249  0.540- 144 1.08
  32  0.038  0.789  0.544- 145 1.08
  33  0.227  0.516  0.542- 148 1.09
  34  0.271  0.970  0.541- 149 1.09
  35  0.790  0.961  0.545- 150 1.09
  36  0.453  0.308  0.676- 205 1.01
  37  0.438  0.817  0.673- 206 1.02
  38  0.959  0.285  0.679- 207 1.01
  39  0.938  0.804  0.675- 208 1.03
  40  0.306  0.052  0.674- 209 1.02
  41  0.296  0.553  0.677- 210 1.03
  42  0.808  0.050  0.676- 211 1.02
  43  0.836  0.536  0.672- 212 1.02
  44  0.084  0.172  0.647- 197 1.03
  45  0.092  0.687  0.655- 198 1.02
  46  0.570  0.163  0.652- 199 1.03
  47  0.569  0.670  0.658- 200 1.00
  48  0.185  0.411  0.648- 201 1.02
  49  0.170  0.921  0.653- 202 1.01
  50  0.659  0.448  0.656- 203 1.03
  51  0.665  0.934  0.651- 204 1.01
  52  0.063  0.188  0.673- 197 1.03
  53  0.044  0.701  0.678- 198 1.03
  54  0.555  0.202  0.676- 199 1.03
  55  0.532  0.712  0.681- 200 1.05
  56  0.207  0.438  0.674- 201 1.03
  57  0.203  0.953  0.677- 202 1.03
  58  0.722  0.449  0.677- 203 1.04
  59  0.696  0.961  0.676- 204 1.02
  60  0.414  0.324  0.651- 205 1.02
  61  0.426  0.836  0.646- 206 1.02
  62  0.922  0.322  0.656- 207 1.00
  63  0.929  0.840  0.650- 208 1.02
  64  0.330  0.076  0.648- 209 1.02
  65  0.324  0.588  0.652- 210 1.06
  66  0.841  0.073  0.650- 211 1.02
  67  0.840  0.577  0.647- 212 1.01
  68  0.996  0.255  0.634- 151 1.09
  69  0.026  0.775  0.635- 152 1.09
  70  0.483  0.236  0.634- 153 1.09
  71  0.507  0.745  0.635- 154 1.08
  72  0.249  0.995  0.632- 156 1.09
  73  0.255  0.502  0.632- 155 1.09
  74  0.756  0.002  0.633- 158 1.09
  75  0.732  0.527  0.635- 157 1.07
  76  0.449  0.301  0.769- 221 1.02
  77  0.449  0.801  0.769- 222 1.02
  78  0.949  0.301  0.769- 223 1.02
  79  0.949  0.801  0.769- 224 1.02
  80  0.301  0.051  0.769- 225 1.02
  81  0.301  0.551  0.769- 226 1.02
  82  0.801  0.051  0.769- 227 1.02
  83  0.801  0.551  0.769- 228 1.02
  84  0.079  0.171  0.743- 213 1.02
  85  0.079  0.671  0.743- 214 1.02
  86  0.579  0.171  0.743- 215 1.02
  87  0.579  0.671  0.743- 216 1.02
  88  0.171  0.421  0.743- 217 1.02
  89  0.171  0.921  0.743- 218 1.02
  90  0.671  0.421  0.743- 219 1.02
  91  0.671  0.921  0.743- 220 1.02
  92  0.051  0.199  0.769- 213 1.02
  93  0.051  0.699  0.769- 214 1.02
  94  0.551  0.199  0.769- 215 1.02
  95  0.551  0.699  0.769- 216 1.02
  96  0.199  0.449  0.769- 217 1.02
  97  0.199  0.949  0.769- 218 1.02
  98  0.699  0.449  0.769- 219 1.02
  99  0.699  0.949  0.769- 220 1.02
 100  0.421  0.329  0.743- 221 1.02
 101  0.421  0.829  0.743- 222 1.02
 102  0.921  0.329  0.743- 223 1.02
 103  0.921  0.829  0.743- 224 1.02
 104  0.329  0.079  0.743- 225 1.02
 105  0.329  0.579  0.743- 226 1.02
 106  0.829  0.079  0.743- 227 1.02
 107  0.829  0.579  0.743- 228 1.02
 108  0.000  0.250  0.726- 161 1.09
 109  0.000  0.750  0.726- 162 1.09
 110  0.500  0.250  0.726- 159 1.09
 111  0.500  0.750  0.726- 160 1.09
 112  0.250  0.000  0.726- 163 1.09
 113  0.250  0.500  0.726- 164 1.09
 114  0.750  0.000  0.726- 165 1.09
 115  0.750  0.500  0.726- 166 1.09
 116  0.716  0.446  0.545- 173 1.10
 117  0.738  0.505  0.523- 173 1.09
 118  0.647  0.541  0.561- 174 1.10
 119  0.686  0.634  0.563- 174 1.11
 120  0.834  0.507  0.576- 175 1.09
 121  0.771  0.573  0.587- 175 1.10
 122  0.865  0.559  0.539- 176 1.08
 123  0.802  0.619  0.528- 176 1.10
 124  0.869  0.481  0.524- 177 1.10
 125  0.864  0.444  0.549- 177 1.09
 126  0.885  0.349  0.525- 178 1.09
 127  0.798  0.333  0.536- 178 1.10
 128  0.620  0.547  0.526- 179 1.11
 129  0.689  0.615  0.518- 179 1.12
 130  0.607  0.641  0.532- 179 1.10
 131  0.740  0.450  0.601- 180 1.10
 132  0.741  0.408  0.576- 180 1.10
 133  0.669  0.470  0.582- 180 1.09
 134  0.833  0.679  0.571- 181 1.10
 135  0.876  0.703  0.546- 181 1.10
 136  0.916  0.635  0.563- 181 1.11
 137  0.832  0.399  0.492- 182 1.09
 138  0.801  0.309  0.498- 182 1.10
 139  0.670  0.315  0.522- 168 1.10
 140  0.748  0.483  0.478- 169 1.11
 141  0.542  0.366  0.519- 170 1.09
 142  0.620  0.533  0.475- 171 1.09
 143  0.516  0.475  0.497- 172 1.09
 144  0.002  0.244  0.557-  31 1.08 183 1.30 189 1.33
 145  0.023  0.773  0.560-  32 1.08 190 1.32 184 1.33
 146  0.480  0.234  0.558-  29 1.09 185 1.29 187 1.31
 147  0.490  0.760  0.558-  30 1.09 186 1.31 188 1.31
 148  0.244  0.508  0.558-  33 1.09 195 1.30 191 1.32
 149  0.258  0.988  0.557-  34 1.09 192 1.31 194 1.31
 150  0.766  0.985  0.560-  35 1.09 196 1.30 193 1.31
 151  0.003  0.247  0.651-  68 1.09 197 1.29 207 1.34
 152  0.012  0.763  0.652-  69 1.09 198 1.30 208 1.32
 153  0.492  0.243  0.651-  70 1.09 199 1.30 205 1.32
 154  0.498  0.753  0.652-  71 1.08 206 1.31 200 1.32
 155  0.255  0.500  0.650-  73 1.09 210 1.29 201 1.33
 156  0.250  0.998  0.650-  72 1.09 202 1.32 209 1.32
 157  0.751  0.513  0.651-  75 1.07 212 1.32 203 1.33
 158  0.753  0.003  0.650-  74 1.09 204 1.32 211 1.32
 159  0.500  0.250  0.743- 110 1.09 221 1.31 215 1.31
 160  0.500  0.750  0.743- 111 1.09 222 1.31 216 1.31
 161  1.000  0.250  0.743- 108 1.09 223 1.31 213 1.31
 162  1.000  0.750  0.743- 109 1.09 224 1.31 214 1.31
 163  0.250  0.000  0.743- 112 1.09 225 1.31 218 1.31
 164  0.250  0.500  0.743- 113 1.09 226 1.31 217 1.31
 165  0.750  0.000  0.743- 114 1.09 227 1.31 220 1.31
 166  0.750  0.500  0.743- 115 1.09 228 1.31 219 1.31
 167  0.718  0.395  0.500- 169 1.41 168 1.41 182 1.49
 168  0.659  0.363  0.512- 139 1.10 170 1.40 167 1.41
 169  0.702  0.456  0.487- 140 1.11 167 1.41 171 1.41
 170  0.587  0.391  0.510- 141 1.09 172 1.38 168 1.40
 171  0.630  0.485  0.485- 142 1.09 169 1.41 172 1.41
 172  0.572  0.452  0.497- 143 1.09 170 1.38 171 1.41
 173  0.758  0.484  0.538- 117 1.09 116 1.10 229 1.50 177 1.53
 174  0.683  0.583  0.553- 118 1.10 119 1.11 179 1.53 229 1.56
 175  0.777  0.525  0.576- 120 1.09 121 1.10 229 1.51 180 1.53
 176  0.822  0.598  0.544- 122 1.08 123 1.10 181 1.51 229 1.51
 177  0.834  0.447  0.534- 125 1.09 124 1.10 178 1.53 173 1.53
 178  0.828  0.370  0.525- 126 1.09 127 1.10 182 1.52 177 1.53
 179  0.649  0.597  0.531- 130 1.10 128 1.11 129 1.12 174 1.53
 180  0.728  0.460  0.584- 133 1.09 131 1.10 132 1.10 175 1.53
 181  0.863  0.656  0.557- 134 1.10 135 1.10 136 1.11 176 1.51
 182  0.796  0.367  0.502- 137 1.09 138 1.10 167 1.49 178 1.52
 183  0.063  0.216  0.565-  15 1.03   8 1.04 144 1.30
 184  0.052  0.711  0.567-  16 1.01   9 1.02 145 1.33
 185  0.542  0.212  0.566-  17 1.00  10 1.00 146 1.29
 186  0.510  0.709  0.571-  18 1.02  11 1.03 147 1.31
 187  0.435  0.281  0.567-   1 0.99  22 1.03 146 1.31
 188  0.459  0.823  0.562-  23 1.00   2 1.04 147 1.31
 189  0.946  0.266  0.569-  24 1.02   3 1.03 144 1.33
 190  0.978  0.816  0.571-   4 1.00  25 1.03 145 1.32
 191  0.219  0.447  0.567-  26 0.99  19 1.03 148 1.32
 192  0.193  0.969  0.565-  27 1.00  20 1.04 149 1.31
 193  0.707  0.950  0.567-  28 1.02  21 1.03 150 1.31
 194  0.309  0.026  0.567-  12 1.01   5 1.03 149 1.31
 195  0.285  0.559  0.567-  13 1.00   6 1.03 148 1.30
 196  0.798  0.042  0.568-  14 1.00   7 1.04 150 1.30
 197  0.053  0.200  0.658-  44 1.03  52 1.03 151 1.29
 198  0.051  0.715  0.662-  45 1.02  53 1.03 152 1.30
 199  0.541  0.202  0.660-  46 1.03  54 1.03 153 1.30
 200  0.535  0.709  0.665-  47 1.00  55 1.05 154 1.32
 201  0.214  0.446  0.658-  48 1.02  56 1.03 155 1.33
 202  0.205  0.954  0.661-  49 1.01  57 1.03 156 1.32
 203  0.709  0.467  0.662-  50 1.03  58 1.04 157 1.33
 204  0.701  0.963  0.660-  51 1.01  59 1.02 158 1.32
 205  0.451  0.295  0.660-  36 1.01  60 1.02 153 1.32
 206  0.451  0.805  0.658-  61 1.02  37 1.02 154 1.31
 207  0.958  0.288  0.663-  62 1.00  38 1.01 151 1.34
 208  0.956  0.803  0.659-  63 1.02  39 1.03 152 1.32
 209  0.298  0.045  0.658-  40 1.02  64 1.02 156 1.32
 210  0.292  0.549  0.660-  41 1.03  65 1.06 155 1.29
 211  0.804  0.045  0.660-  42 1.02  66 1.02 158 1.32
 212  0.813  0.544  0.657-  67 1.01  43 1.02 157 1.32
 213  0.046  0.204  0.753-  92 1.02  84 1.02 161 1.31
 214  0.046  0.704  0.753-  93 1.02  85 1.02 162 1.31
 215  0.546  0.204  0.753-  94 1.02  86 1.02 159 1.31
 216  0.546  0.704  0.753-  95 1.02  87 1.02 160 1.31
 217  0.204  0.454  0.753-  96 1.02  88 1.02 164 1.31
 218  0.204  0.954  0.753-  97 1.02  89 1.02 163 1.31
 219  0.704  0.454  0.753-  98 1.02  90 1.02 166 1.31
 220  0.704  0.954  0.753-  99 1.02  91 1.02 165 1.31
 221  0.454  0.296  0.753-  76 1.02 100 1.02 159 1.31
 222  0.454  0.796  0.753-  77 1.02 101 1.02 160 1.31
 223  0.954  0.296  0.753-  78 1.02 102 1.02 161 1.31
 224  0.954  0.796  0.753-  79 1.02 103 1.02 162 1.31
 225  0.296  0.046  0.753-  80 1.02 104 1.02 163 1.31
 226  0.296  0.546  0.753-  81 1.02 105 1.02 164 1.31
 227  0.796  0.046  0.753-  82 1.02 106 1.02 165 1.31
 228  0.796  0.546  0.753-  83 1.02 107 1.02 166 1.31
 229  0.762  0.549  0.553- 173 1.50 175 1.51 176 1.51 174 1.56
 230  0.488  0.015  0.552- 304 3.25
 231  0.483  0.518  0.556- 305 3.04
 232  0.987  0.006  0.553- 302 3.22
 233  0.030  0.506  0.555- 303 3.15
 234  0.250  0.248  0.552- 306 3.20
 235  0.253  0.751  0.553- 307 3.14
 236  0.737  0.218  0.559- 308 3.08
 237  0.719  0.782  0.546- 309 3.66
 238  0.002  0.004  0.655- 310 3.13 302 3.16
 239  0.016  0.497  0.656- 311 3.05 303 3.17
 240  0.499  0.997  0.654- 312 3.16 304 3.19
 241  0.500  0.490  0.655- 313 3.09 305 3.19
 242  0.254  0.245  0.653- 306 3.16 314 3.21
 243  0.255  0.754  0.655- 315 3.12 307 3.24
 244  0.740  0.256  0.657- 316 3.01 308 3.09
 245  0.756  0.754  0.654- 309 3.15 317 3.18
 246  0.144  0.108  0.608- 306 3.17 302 3.27
 247  0.147  0.612  0.610- 303 3.21 307 3.21
 248  0.644  0.105  0.610- 304 3.17 308 3.24
 249  0.619  0.633  0.615- 309 3.29 305 3.30
 250  0.355  0.393  0.608- 305 3.25 306 3.25
 251  0.366  0.889  0.608- 307 3.22 304 3.24
 252  0.880  0.372  0.614- 308 3.28 303 3.32
 253  0.861  0.895  0.609- 302 3.16 309 3.26
 254  0.114  0.354  0.608- 306 3.13 303 3.30
 255  0.115  0.868  0.609- 307 3.26 302 3.31
 256  0.588  0.341  0.609- 308 3.28 305 3.32
 257  0.609  0.863  0.610- 309 3.06 304 3.27
 258  0.389  0.141  0.609- 304 3.18 306 3.19
 259  0.383  0.636  0.613- 307 3.22 305 3.25
 260  0.885  0.138  0.613- 302 3.17 308 3.27
 261  0.915  0.651  0.616- 303 3.22 309 3.78
 262  0.000  0.000  0.755- 310 3.13 318 3.27
 263  0.000  0.500  0.755- 311 3.13 319 3.27
 264  0.500  0.000  0.755- 312 3.13 320 3.27
 265  0.500  0.500  0.755- 313 3.13 321 3.27
 266  0.250  0.250  0.755- 314 3.13 322 3.27
 267  0.250  0.750  0.755- 315 3.13 323 3.27
 268  0.750  0.250  0.755- 316 3.13 324 3.27
 269  0.750  0.750  0.755- 317 3.13 325 3.27
 270  0.136  0.114  0.705- 310 3.20 314 3.20
 271  0.136  0.614  0.705- 311 3.20 315 3.20
 272  0.636  0.114  0.705- 312 3.20 316 3.20
 273  0.636  0.614  0.705- 313 3.20 317 3.20
 274  0.364  0.386  0.705- 313 3.20 314 3.20
 275  0.364  0.886  0.705- 312 3.20 315 3.20
 276  0.864  0.386  0.705- 311 3.20 316 3.20
 277  0.864  0.886  0.705- 310 3.20 317 3.20
 278  0.114  0.364  0.705- 314 3.21 311 3.21
 279  0.114  0.864  0.705- 315 3.21 310 3.21
 280  0.614  0.364  0.705- 316 3.21 313 3.21
 281  0.614  0.864  0.705- 317 3.21 312 3.21
 282  0.386  0.136  0.705- 314 3.21 312 3.21
 283  0.386  0.636  0.705- 315 3.21 313 3.21
 284  0.886  0.136  0.705- 316 3.21 310 3.21
 285  0.886  0.636  0.705- 317 3.21 311 3.21
 286  0.135  0.115  0.801- 318 3.22 322 3.22
 287  0.135  0.615  0.801- 319 3.22 323 3.22
 288  0.635  0.115  0.801- 320 3.22 324 3.22
 289  0.635  0.615  0.801- 321 3.22 325 3.22
 290  0.365  0.385  0.801- 321 3.22 322 3.22
 291  0.365  0.885  0.801- 320 3.22 323 3.22
 292  0.865  0.385  0.801- 319 3.22 324 3.22
 293  0.865  0.885  0.801- 318 3.22 325 3.22
 294  0.115  0.365  0.801- 319 3.23 322 3.23
 295  0.115  0.865  0.801- 318 3.23 323 3.23
 296  0.615  0.365  0.801- 321 3.23 324 3.23
 297  0.615  0.865  0.801- 320 3.23 325 3.23
 298  0.385  0.135  0.801- 320 3.23 322 3.23
 299  0.385  0.635  0.801- 321 3.23 323 3.23
 300  0.885  0.135  0.801- 318 3.23 324 3.23
 301  0.885  0.635  0.801- 319 3.23 325 3.23
 302  0.995  0.005  0.604- 253 3.16 238 3.16 260 3.17 232 3.22 246 3.27 255 3.31
 303  0.007  0.502  0.605- 233 3.15 239 3.17 247 3.21 261 3.22 254 3.30 252 3.32
 304  0.501  0.007  0.603- 248 3.17 258 3.18 240 3.19 251 3.24 230 3.25 257 3.27
 305  0.498  0.501  0.605- 231 3.04 241 3.19 259 3.25 250 3.25 249 3.30 256 3.32
 306  0.249  0.247  0.603- 254 3.13 242 3.16 246 3.17 258 3.19 234 3.20 250 3.25
 307  0.253  0.752  0.603- 235 3.14 247 3.21 259 3.22 251 3.22 243 3.24 255 3.26
 308  0.746  0.253  0.607- 236 3.08 244 3.09 248 3.24 260 3.27 252 3.28 256 3.28
 309  0.742  0.761  0.604- 257 3.06 245 3.15 253 3.26 249 3.29 237 3.66 261 3.78
 310  0.000  0.000  0.705- 238 3.13 262 3.13 270 3.20 277 3.20 279 3.21 284 3.21
 311  0.000  0.500  0.705- 239 3.05 263 3.13 271 3.20 276 3.20 278 3.21 285 3.21
 312  0.500  0.000  0.705- 264 3.13 240 3.16 272 3.20 275 3.20 281 3.21 282 3.21
 313  0.500  0.500  0.705- 241 3.09 265 3.13 273 3.20 274 3.20 280 3.21 283 3.21
 314  0.250  0.250  0.705- 266 3.13 270 3.20 274 3.20 282 3.21 278 3.21 242 3.21
 315  0.250  0.750  0.705- 243 3.12 267 3.13 271 3.20 275 3.20 283 3.21 279 3.21
 316  0.750  0.250  0.705- 244 3.01 268 3.13 272 3.20 276 3.20 284 3.21 280 3.21
 317  0.750  0.750  0.705- 269 3.13 245 3.18 273 3.20 277 3.20 285 3.21 281 3.21
 318  0.000  0.000  0.807- 286 3.22 293 3.22 300 3.23 295 3.23 262 3.27
 319  0.000  0.500  0.807- 287 3.22 292 3.22 301 3.23 294 3.23 263 3.27
 320  0.500  0.000  0.807- 288 3.22 291 3.22 298 3.23 297 3.23 264 3.27
 321  0.500  0.500  0.807- 289 3.22 290 3.22 299 3.23 296 3.23 265 3.27
 322  0.250  0.250  0.807- 290 3.22 286 3.22 294 3.23 298 3.23 266 3.27
 323  0.250  0.750  0.807- 291 3.22 287 3.22 299 3.23 295 3.23 267 3.27
 324  0.750  0.250  0.807- 292 3.22 288 3.22 296 3.23 300 3.23 268 3.27
 325  0.750  0.750  0.807- 293 3.22 289 3.22 297 3.23 301 3.23 269 3.27
 

IMPORTANT INFORMATION: All symmetrisations will be switched off!
NOSYMM: (Re-)initialisation of all symmetry stuff for point group C_1.


----------------------------------------------------------------------------------------

                                     Primitive cell                                     

  volume of cell :   20385.2105

  direct lattice vectors                    reciprocal lattice vectors
    18.060800552  0.000000000  0.000000000     0.055368531  0.000015077 -0.000000000
    -0.004918649 18.062799454  0.000000000     0.000000000  0.055362404  0.000000000
     0.000000000  0.000000000 62.487499237     0.000000000 -0.000000000  0.016003201

  length of vectors
    18.060800552 18.062800123 62.487499237     0.055368533  0.055362404  0.016003201

  position of ions in fractional coordinates (direct lattice)
     0.447339129  0.303049442  0.581435935
     0.445515217  0.837122941  0.577970643
     0.944835483  0.265171763  0.585548941
     0.965617066  0.805766333  0.586624168
     0.300310582  0.044778204  0.582662621
     0.305031297  0.555185532  0.582643696
     0.775657836  0.068194747  0.581859665
     0.106164573  0.201963488  0.554409595
     0.086242345  0.680173850  0.557797540
     0.576442384  0.178996527  0.558068286
     0.527313666  0.657002628  0.566705389
     0.358413167  0.035825673  0.560344314
     0.302225830  0.603606727  0.558920568
     0.841039355  0.067067971  0.561469356
     0.072373326  0.207243325  0.580768566
     0.042351089  0.691814952  0.582359338
     0.561272916  0.231689044  0.579893574
     0.499548794  0.713126480  0.587331829
     0.231317775  0.436104933  0.582974756
     0.176301692  0.982006535  0.580292030
     0.682426739  0.968170723  0.581268421
     0.383992134  0.290616349  0.560746067
     0.447674044  0.860416443  0.551036484
     0.899890172  0.284215102  0.561340730
     0.960187678  0.865405615  0.564670924
     0.187524215  0.412297657  0.559188444
     0.156212263  0.941035757  0.555904217
     0.689993040  0.901964585  0.560170696
     0.462049654  0.210703145  0.542845575
     0.500003294  0.750620399  0.540522174
     0.998475650  0.249279787  0.539835024
     0.038484918  0.788756497  0.543919643
     0.227397674  0.515918824  0.541557293
     0.270557547  0.969913899  0.541060428
     0.789773353  0.961438874  0.545401018
     0.453416124  0.307871747  0.676120340
     0.438442819  0.817361553  0.673076457
     0.959013954  0.285469259  0.679393883
     0.937896153  0.803989901  0.674834438
     0.305504884  0.052305635  0.673892721
     0.295761382  0.553387136  0.676700107
     0.808145265  0.050339663  0.675738061
     0.835754145  0.536292243  0.671699351
     0.083971401  0.171692295  0.646701187
     0.092342905  0.687281952  0.654681726
     0.570080428  0.163197290  0.651793147
     0.568725581  0.670166204  0.658426798
     0.185397515  0.410804591  0.648428766
     0.170093936  0.920546981  0.652543419
     0.659417988  0.447555619  0.655796145
     0.665306783  0.933889640  0.651034939
     0.063381451  0.188247411  0.673412340
     0.044207646  0.701332635  0.678208160
     0.555064865  0.202056888  0.676336936
     0.532295025  0.711986420  0.681396847
     0.207222561  0.438314042  0.674245636
     0.203030146  0.952677789  0.677071152
     0.722494000  0.448565956  0.677089284
     0.695927986  0.960855133  0.676224059
     0.414124609  0.323672885  0.651366060
     0.425952034  0.836165772  0.646117207
     0.921850872  0.321644450  0.655760677
     0.928980217  0.839845085  0.649605027
     0.330274723  0.076002999  0.647994109
     0.323598047  0.588412974  0.651841680
     0.840752940  0.073046407  0.650390157
     0.839731284  0.577112734  0.646513344
     0.995737970  0.254787484  0.633888626
     0.026492195  0.774856393  0.635188508
     0.482935038  0.235706527  0.634059254
     0.507402426  0.745318560  0.634890902
     0.248807480  0.995136795  0.632336131
     0.254685591  0.501553942  0.632333261
     0.755754042  0.001987959  0.632793925
     0.732381134  0.527431522  0.635042788
     0.448745018  0.301283966  0.768889017
     0.448745007  0.801283913  0.768889017
     0.948744965  0.301283966  0.768889017
     0.948745007  0.801283913  0.768889017
     0.301275995  0.051294496  0.768872961
     0.301276011  0.551294499  0.768872961
     0.801275943  0.051294496  0.768872961
     0.801275984  0.551294499  0.768872961
     0.078771004  0.171180501  0.743441971
     0.078771006  0.671180448  0.743441971
     0.578771004  0.171180501  0.743441971
     0.578770992  0.671180448  0.743441971
     0.171199499  0.421174482  0.743421032
     0.171199501  0.921174508  0.743421032
     0.671199512  0.421174482  0.743421032
     0.671199501  0.921174508  0.743421032
     0.051256000  0.198714991  0.768889017
     0.051256002  0.698714925  0.768889017
     0.551256027  0.198714991  0.768889017
     0.551256016  0.698714925  0.768889017
     0.198723491  0.448703970  0.768872046
     0.198723493  0.948703970  0.768872046
     0.698723518  0.448703970  0.768872046
     0.698723507  0.948703970  0.768872046
     0.421231519  0.328817467  0.743441971
     0.421231508  0.828817440  0.743441971
     0.921231466  0.328817467  0.743441971
     0.921231508  0.828817440  0.743441971
     0.328800503  0.078824997  0.743421032
     0.328800492  0.578824964  0.743421032
     0.828800477  0.078824997  0.743421032
     0.828800519  0.578824964  0.743421032
     0.000003500  0.250001478  0.725821992
     0.000003500  0.750001452  0.725821992
     0.500003506  0.250001478  0.725821992
     0.500003495  0.750001452  0.725821992
     0.250000502  0.000000000  0.725803983
     0.250000517  0.500000000  0.725803983
     0.750000502  0.000000000  0.725803983
     0.750000490  0.500000000  0.725803983
     0.716230209  0.446349826  0.544597390
     0.738368818  0.505227025  0.522912206
     0.647331602  0.540729943  0.560580812
     0.686194179  0.633647723  0.563087173
     0.833944740  0.507064755  0.576405022
     0.771391547  0.572792457  0.586845281
     0.864978921  0.559047208  0.539498470
     0.802075789  0.618922021  0.528443586
     0.868780188  0.481076247  0.523597463
     0.864192214  0.443536447  0.549404626
     0.885257161  0.349024335  0.524594855
     0.797720734  0.332826951  0.535678553
     0.619822148  0.546664563  0.525549696
     0.688965361  0.615417996  0.518402698
     0.607434791  0.640644105  0.532388406
     0.740370490  0.450339801  0.600709566
     0.741451968  0.407521233  0.575777516
     0.669006779  0.470181494  0.582435891
     0.833486534  0.678743877  0.570674445
     0.875991493  0.702999617  0.545919005
     0.916334556  0.634718777  0.562532557
     0.832489569  0.398641505  0.491876915
     0.800646166  0.309208796  0.497574069
     0.669911816  0.314818367  0.522000769
     0.747883965  0.482932984  0.478195407
     0.541913349  0.365502947  0.518852129
     0.619932343  0.532875810  0.475371081
     0.516001277  0.475249071  0.496739674
     0.002430830  0.244176730  0.556960764
     0.023264635  0.773328058  0.560027234
     0.479746995  0.233855439  0.558121397
     0.490166093  0.759516707  0.557581066
     0.244139642  0.508439871  0.558182810
     0.257540976  0.987867743  0.557293900
     0.765740319  0.984795100  0.559913076
     0.002886531  0.246790243  0.651060579
     0.011941818  0.763399978  0.651733748
     0.491810856  0.243328799  0.651210389
     0.498290739  0.753224804  0.651861704
     0.254877163  0.499908343  0.649700688
     0.249538843  0.997878364  0.649830169
     0.750652663  0.513168909  0.650722010
     0.752693216  0.003092896  0.650283446
     0.499988984  0.249994984  0.743277021
     0.499989025  0.749994958  0.743277021
     0.999988984  0.249994984  0.743277021
     0.999989025  0.749994958  0.743277021
     0.250000502  0.000001000  0.743255960
     0.250000517  0.500001003  0.743255960
     0.750000502  0.000001000  0.743255960
     0.750000491  0.500001003  0.743255960
     0.718283750  0.395009709  0.500348367
     0.658550567  0.362569612  0.511557213
     0.702287954  0.455630183  0.486974720
     0.586700748  0.390949249  0.509778109
     0.630003594  0.484904609  0.485495115
     0.571565647  0.451754146  0.497060386
     0.758285390  0.483992951  0.538137114
     0.683211836  0.582852848  0.553103059
     0.776569790  0.524940896  0.575947594
     0.822168995  0.598098079  0.543887837
     0.833761755  0.447466391  0.534361334
     0.828457270  0.369716547  0.524865355
     0.649192380  0.596889012  0.531045974
     0.728437753  0.460495122  0.583744747
     0.862543896  0.656417999  0.556681534
     0.795721724  0.367438458  0.502457004
     0.063291909  0.216359218  0.564638020
     0.052105823  0.710881469  0.567424588
     0.541712425  0.211533851  0.566170980
     0.509890576  0.708846276  0.571411408
     0.435184806  0.281128654  0.567307072
     0.459295342  0.823103409  0.562412538
     0.945929397  0.266078933  0.569067373
     0.978402577  0.816153858  0.571275090
     0.219341956  0.447151611  0.567099022
     0.192696442  0.969119119  0.564839598
     0.707346029  0.949858259  0.567382099
     0.308954442  0.025867561  0.567264949
     0.285498091  0.558824191  0.567109278
     0.797534419  0.042486034  0.568455434
     0.052538515  0.200322985  0.657567740
     0.050619707  0.714858615  0.662257582
     0.541213933  0.201933750  0.660405099
     0.535387010  0.708570091  0.664666694
     0.213988008  0.446286679  0.658116861
     0.204523428  0.954316689  0.660624381
     0.708903261  0.466584704  0.661852288
     0.701444942  0.963140023  0.659916476
     0.450962708  0.294669074  0.660389105
     0.451479124  0.805170775  0.657559559
     0.957613036  0.287867278  0.663246671
     0.956420863  0.803112139  0.659187265
     0.298051371  0.044736450  0.657920716
     0.291777551  0.548776683  0.660311636
     0.803618309  0.044511813  0.659558433
     0.813265626  0.543596225  0.656941455
     0.045862501  0.204119496  0.752725994
     0.045862500  0.704119456  0.752725994
     0.545862507  0.204119496  0.752725994
     0.545862496  0.704119456  0.752725994
     0.204119002  0.454101003  0.752704994
     0.204118991  0.954100951  0.752704994
     0.704118976  0.454101003  0.752704994
     0.704118964  0.954100951  0.752704994
     0.454140018  0.295888490  0.752726971
     0.454140007  0.795888516  0.752726971
     0.954140018  0.295888490  0.752726971
     0.954140060  0.795888516  0.752726971
     0.295882492  0.045900498  0.752704994
     0.295882481  0.545900528  0.752704994
     0.795882439  0.045900498  0.752704994
     0.795882481  0.545900528  0.752704994
     0.762359146  0.548808784  0.553158307
     0.487771326  0.015486858  0.551553372
     0.482515827  0.518382154  0.556359753
     0.987376589  0.006481209  0.552782194
     0.030197094  0.506319251  0.555470720
     0.249971773  0.248166864  0.551652207
     0.252511406  0.751284067  0.552834878
     0.737164570  0.218232665  0.559230994
     0.718674563  0.782452293  0.546044946
     0.001942989  0.004475416  0.654766948
     0.016390766  0.497027173  0.656195883
     0.498605989  0.997102697  0.654231501
     0.500326157  0.489727785  0.655446344
     0.254026460  0.244607480  0.653423906
     0.255159459  0.754321149  0.654922985
     0.739957543  0.255976832  0.656760694
     0.756420022  0.753972050  0.653994332
     0.143848433  0.108079900  0.607592229
     0.146652587  0.611639106  0.609813132
     0.644308743  0.104618021  0.610024844
     0.619145029  0.632678198  0.615293476
     0.354548718  0.392797353  0.607855893
     0.366359889  0.888842673  0.607661579
     0.880315860  0.372296586  0.613633110
     0.860563596  0.895261184  0.609410097
     0.114384474  0.354357907  0.607997339
     0.115353364  0.867718101  0.609068232
     0.587585971  0.341402670  0.608688701
     0.608964420  0.863287846  0.609611310
     0.388561121  0.141328442  0.609486529
     0.383352672  0.636474564  0.612860556
     0.884935369  0.138237981  0.612793770
     0.915383010  0.650521552  0.616227318
     0.000000000  0.000000000  0.754927972
     0.000000000  0.500000000  0.754927972
     0.500000000  0.000000000  0.754927972
     0.499999989  0.500000000  0.754927972
     0.250000496  0.250000000  0.754939022
     0.250000511  0.749999974  0.754939022
     0.750000470  0.250000000  0.754939022
     0.750000458  0.749999974  0.754939022
     0.135790500  0.114209997  0.704782994
     0.135790502  0.614209984  0.704782994
     0.635790447  0.114209997  0.704782994
     0.635790488  0.614209984  0.704782994
     0.364209516  0.385789989  0.704782994
     0.364209505  0.885789963  0.704782994
     0.864209542  0.385789989  0.704782994
     0.864209531  0.885789963  0.704782994
     0.114217990  0.364218986  0.704780979
     0.114217992  0.864218986  0.704780979
     0.614218004  0.364218986  0.704780979
     0.614217992  0.864218986  0.704780979
     0.385782012  0.135781489  0.704782017
     0.385782001  0.635781489  0.704782017
     0.885781985  0.135781489  0.704782017
     0.885782027  0.635781489  0.704782017
     0.134667000  0.115332001  0.801256025
     0.134666989  0.615331988  0.801256025
     0.634666987  0.115332001  0.801256025
     0.634666976  0.615331988  0.801256025
     0.365333002  0.384667985  0.801256025
     0.365332990  0.884667959  0.801256025
     0.865332949  0.384667985  0.801256025
     0.865332938  0.884667959  0.801256025
     0.115328503  0.365337004  0.801264999
     0.115328505  0.865336978  0.801264999
     0.615328503  0.365337004  0.801264999
     0.615328492  0.865336978  0.801264999
     0.384671513  0.134662996  0.801264999
     0.384671501  0.634662970  0.801264999
     0.884671486  0.134662996  0.801264999
     0.884671528  0.634662970  0.801264999
     0.995191887  0.005307128  0.604184809
     0.007390153  0.502235772  0.605477487
     0.500521361  0.006900316  0.603299256
     0.497885995  0.500953896  0.604516113
     0.249464620  0.247482790  0.602917466
     0.252644826  0.752493662  0.603044261
     0.745772488  0.252513751  0.607379296
     0.742383030  0.760512524  0.603851552
     0.000000500  0.000000500  0.704828963
     0.000000500  0.500000475  0.704828963
     0.500000475  0.000000500  0.704828963
     0.500000464  0.500000475  0.704828963
     0.249999994  0.249999472  0.704824995
     0.250000010  0.749999498  0.704824995
     0.749999994  0.249999472  0.704824995
     0.749999983  0.749999498  0.704824995
     0.000000000  0.000000000  0.807317968
     0.000000000  0.500000000  0.807317968
     0.500000000  0.000000000  0.807317968
     0.499999989  0.500000000  0.807317968
     0.249999994  0.250000000  0.807317968
     0.250000010  0.749999974  0.807317968
     0.749999994  0.250000000  0.807317968
     0.749999983  0.749999974  0.807317968

  ion indices of the primitive-cell ions
   primitive index   ion index
                 1           1
                 2           2
                 3           3
                 4           4
                 5           5
                 6           6
                 7           7
                 8           8
                 9           9
                10          10
                11          11
                12          12
                13          13
                14          14
                15          15
                16          16
                17          17
                18          18
                19          19
                20          20
                21          21
                22          22
                23          23
                24          24
                25          25
                26          26
                27          27
                28          28
                29          29
                30          30
                31          31
                32          32
                33          33
                34          34
                35          35
                36          36
                37          37
                38          38
                39          39
                40          40
                41          41
                42          42
                43          43
                44          44
                45          45
                46          46
                47          47
                48          48
                49          49
                50          50
                51          51
                52          52
                53          53
                54          54
                55          55
                56          56
                57          57
                58          58
                59          59
                60          60
                61          61
                62          62
                63          63
                64          64
                65          65
                66          66
                67          67
                68          68
                69          69
                70          70
                71          71
                72          72
                73          73
                74          74
                75          75
                76          76
                77          77
                78          78
                79          79
                80          80
                81          81
                82          82
                83          83
                84          84
                85          85
                86          86
                87          87
                88          88
                89          89
                90          90
                91          91
                92          92
                93          93
                94          94
                95          95
                96          96
                97          97
                98          98
                99          99
               100         100
               101         101
               102         102
               103         103
               104         104
               105         105
               106         106
               107         107
               108         108
               109         109
               110         110
               111         111
               112         112
               113         113
               114         114
               115         115
               116         116
               117         117
               118         118
               119         119
               120         120
               121         121
               122         122
               123         123
               124         124
               125         125
               126         126
               127         127
               128         128
               129         129
               130         130
               131         131
               132         132
               133         133
               134         134
               135         135
               136         136
               137         137
               138         138
               139         139
               140         140
               141         141
               142         142
               143         143
               144         144
               145         145
               146         146
               147         147
               148         148
               149         149
               150         150
               151         151
               152         152
               153         153
               154         154
               155         155
               156         156
               157         157
               158         158
               159         159
               160         160
               161         161
               162         162
               163         163
               164         164
               165         165
               166         166
               167         167
               168         168
               169         169
               170         170
               171         171
               172         172
               173         173
               174         174
               175         175
               176         176
               177         177
               178         178
               179         179
               180         180
               181         181
               182         182
               183         183
               184         184
               185         185
               186         186
               187         187
               188         188
               189         189
               190         190
               191         191
               192         192
               193         193
               194         194
               195         195
               196         196
               197         197
               198         198
               199         199
               200         200
               201         201
               202         202
               203         203
               204         204
               205         205
               206         206
               207         207
               208         208
               209         209
               210         210
               211         211
               212         212
               213         213
               214         214
               215         215
               216         216
               217         217
               218         218
               219         219
               220         220
               221         221
               222         222
               223         223
               224         224
               225         225
               226         226
               227         227
               228         228
               229         229
               230         230
               231         231
               232         232
               233         233
               234         234
               235         235
               236         236
               237         237
               238         238
               239         239
               240         240
               241         241
               242         242
               243         243
               244         244
               245         245
               246         246
               247         247
               248         248
               249         249
               250         250
               251         251
               252         252
               253         253
               254         254
               255         255
               256         256
               257         257
               258         258
               259         259
               260         260
               261         261
               262         262
               263         263
               264         264
               265         265
               266         266
               267         267
               268         268
               269         269
               270         270
               271         271
               272         272
               273         273
               274         274
               275         275
               276         276
               277         277
               278         278
               279         279
               280         280
               281         281
               282         282
               283         283
               284         284
               285         285
               286         286
               287         287
               288         288
               289         289
               290         290
               291         291
               292         292
               293         293
               294         294
               295         295
               296         296
               297         297
               298         298
               299         299
               300         300
               301         301
               302         302
               303         303
               304         304
               305         305
               306         306
               307         307
               308         308
               309         309
               310         310
               311         311
               312         312
               313         313
               314         314
               315         315
               316         316
               317         317
               318         318
               319         319
               320         320
               321         321
               322         322
               323         323
               324         324
               325         325

----------------------------------------------------------------------------------------

 
 
 KPOINTS: Automatic Mesh                          

Automatic generation of k-mesh.
 Grid dimensions read from file:
 generate k-points for:    3    3    1

 Generating k-lattice:

  Cartesian coordinates                     Fractional coordinates (reciprocal lattice)
     0.018456177  0.000005026 -0.000000000     0.333333333  0.000000000  0.000000000
     0.000000000  0.018454135  0.000000000     0.000000000  0.333333333  0.000000000
     0.000000000 -0.000000000  0.016003201     0.000000000  0.000000000  1.000000000

  Length of vectors
     0.018456178  0.018454135  0.016003201

  Shift w.r.t. Gamma in fractional coordinates (k-lattice)
     0.000000000  0.000000000  0.000000000

 
 Subroutine IBZKPT returns following result:
 ===========================================
 
 Found      5 irreducible k-points:
 
 Following reciprocal coordinates:
            Coordinates               Weight
  0.000000  0.000000  0.000000      1.000000
  0.333333  0.000000  0.000000      2.000000
  0.000000  0.333333  0.000000      2.000000
  0.333333  0.333333  0.000000      2.000000
 -0.333333  0.333333  0.000000      2.000000
 
 Following cartesian coordinates:
            Coordinates               Weight
  0.000000  0.000000  0.000000      1.000000
  0.018456  0.000005  0.000000      2.000000
  0.000000  0.018454  0.000000      2.000000
  0.018456  0.018459  0.000000      2.000000
 -0.018456  0.018449  0.000000      2.000000
 


--------------------------------------------------------------------------------------------------------




 Dimension of arrays:
   k-points           NKPTS =      5   k-points in BZ     NKDIM =      5   number of bands    NBANDS=    732
   number of dos      NEDOS =    301   number of ions     NIONS =    325
   non local maximal  LDIM  =      5   non local SUM 2l+1 LMDIM =     13
   total plane-waves  NPLWV = ******
   max r-space proj   IRMAX =   3336   max aug-charges    IRDMAX=  19845
   dimension x,y,z NGX =   100 NGY =  100 NGZ =  350
   dimension x,y,z NGXF=   200 NGYF=  200 NGZF=  700
   support grid    NGXF=   200 NGYF=  200 NGZF=  700
   ions per type =             143  39  47  72  24
   NGX,Y,Z   is equivalent  to a cutoff of   9.20,  9.20,  9.31 a.u.
   NGXF,Y,Z  is equivalent  to a cutoff of  18.41, 18.41, 18.62 a.u.

 SYSTEM =  PSC                                     
 POSCAR =   H  C  N  I Pb                          

 Startparameter for this run:
   NWRITE =      2    write-flag & timer
   PREC   = normal    normal or accurate (medium, high low for compatibility)
   ISTART =      0    job   : 0-new  1-cont  2-samecut
   ICHARG =      1    charge: 1-file 2-atom 10-const
   ISPIN  =      1    spin polarized calculation?
   LNONCOLLINEAR =      F non collinear calculations
   LSORBIT =      F    spin-orbit coupling
   INIWAV =      1    electr: 0-lowe 1-rand  2-diag
   LASPH  =      F    aspherical Exc in radial PAW
 Electronic Relaxation 1
   ENCUT  =  500.0 eV  36.75 Ry    6.06 a.u.  32.93 32.93113.93*2*pi/ulx,y,z
   ENINI  =  500.0     initial cutoff
   ENAUG  =  644.9 eV  augmentation charge cutoff
   NELM   =    600;   NELMIN=  2; NELMDL=  0     # of ELM steps 
   EDIFF  = 0.1E-03   stopping-criterion for ELM
   LREAL  =      T    real-space projection
   NLSPLINE    = F    spline interpolate recip. space projectors
   LCOMPAT=      F    compatible to vasp.4.4
   GGA_COMPAT  = F    GGA compatible to vasp.4.4-vasp.4.6
   LMAXPAW     = -100 max onsite density
   LMAXMIX     =    2 max onsite mixed and CHGCAR
   VOSKOWN=      0    Vosko Wilk Nusair interpolation
   ROPT   =   -0.00050  -0.00050  -0.00050  -0.00050
   ROPT   =   -0.00050
 Ionic relaxation
   EDIFFG = 0.1E-02   stopping-criterion for IOM
   NSW    =      0    number of steps for IOM
   NBLOCK =      1;   KBLOCK =      1    inner block; outer block 
   IBRION =     -1    ionic relax: 0-MD 1-quasi-New 2-CG
   NFREE  =      0    steps in history (QN), initial steepest desc. (CG)
   ISIF   =      2    stress and relaxation
   IWAVPR =     10    prediction:  0-non 1-charg 2-wave 3-comb
   ISYM   =      0    0-nonsym 1-usesym 2-fastsym
   LCORR  =      T    Harris-Foulkes like correction to forces

   POTIM  = 0.5000    time-step for ionic-motion
   TEIN   =    0.0    initial temperature
   TEBEG  =    0.0;   TEEND  =   0.0 temperature during run
   SMASS  =  -3.00    Nose mass-parameter (am)
   estimated Nose-frequenzy (Omega)   =  0.10E-29 period in steps = 0.13E+47 mass=  -0.745E-26a.u.
   SCALEE = 1.0000    scale energy and forces
   NPACO  =    256;   APACO  = 16.0  distance and # of slots for P.C.
   PSTRESS=    0.0 pullay stress

  Mass of Ions in am
   POMASS =   1.00 12.01 14.00126.90207.20
  Ionic Valenz
   ZVAL   =   1.00  4.00  5.00  7.00  4.00
  Atomic Wigner-Seitz radii
   RWIGS  =  -1.00 -1.00 -1.00 -1.00 -1.00
  virtual crystal weights 
   VCA    =   1.00  1.00  1.00  1.00  1.00
   NELECT =    1134.0000    total number of electrons
   NUPDOWN=      -1.0000    fix difference up-down

 DOS related values:
   EMIN   =  10.00;   EMAX   =-10.00  energy-range for DOS
   EFERMI =   0.00
   ISMEAR =     0;   SIGMA  =   0.05  broadening in eV -4-tet -1-fermi 0-gaus

 Electronic relaxation 2 (details)
   IALGO  =     38    algorithm
   LDIAG  =      T    sub-space diagonalisation (order eigenvalues)
   LSUBROT=      F    optimize rotation matrix (better conditioning)
   TURBO    =      0    0=normal 1=particle mesh
   IRESTART =      0    0=no restart 2=restart with 2 vectors
   NREBOOT  =      0    no. of reboots
   NMIN     =      0    reboot dimension
   EREF     =   0.00    reference energy to select bands
   IMIX   =      4    mixing-type and parameters
     AMIX     =   0.40;   BMIX     =  0.01
     AMIX_MAG =   1.60;   BMIX_MAG =  0.01
     AMIN     =   0.01
     WC   =   100.;   INIMIX=   1;  MIXPRE=   1;  MAXMIX= -45

 Intra band minimization:
   WEIMIN = 0.0000     energy-eigenvalue tresh-hold
   EBREAK =  0.34E-07  absolut break condition
   DEPER  =   0.30     relativ break condition  

   TIME   =   0.40     timestep for ELM

  volume/ion in A,a.u.               =      62.72       423.28
  Fermi-wavevector in a.u.,A,eV,Ry     =   0.624944  1.180972  5.313816  0.390554
  Thomas-Fermi vector in A             =   1.685677
 
 Write flags
   LWAVE        =      F    write WAVECAR
   LDOWNSAMPLE  =      F    k-point downsampling of WAVECAR
   LCHARG       =      T    write CHGCAR
   LVTOT        =      T    write LOCPOT, total local potential
   LVHAR        =      F    write LOCPOT, Hartree potential only
   LELF         =      F    write electronic localiz. function (ELF)
   LORBIT       =      0    0 simple, 1 ext, 2 COOP (PROOUT), +10 PAW based schemes


 Dipole corrections
   LMONO  =      F    monopole corrections only (constant potential shift)
   LDIPOL =      T    correct potential (dipole corrections)
   IDIPOL =      3    1-x, 2-y, 3-z, 4-all directions 
   EPSILON=  1.0000000 bulk dielectric constant

 Exchange correlation treatment:
   GGA     =    --    GGA type
   LEXCH   =     8    internal setting for exchange type
   VOSKOWN=      0    Vosko Wilk Nusair interpolation
   LHFCALC =     F    Hartree Fock is set to
   LHFONE  =     F    Hartree Fock one center treatment
   AEXX    =    0.0000 exact exchange contribution

 Linear response parameters
   LEPSILON=     F    determine dielectric tensor
   LRPA    =     F    only Hartree local field effects (RPA)
   LNABLA  =     F    use nabla operator in PAW spheres
   LVEL    =     F    velocity operator in full k-point grid
   LINTERFAST=   F  fast interpolation
   KINTER  =     0    interpolate to denser k-point grid
   CSHIFT  =0.1000    complex shift for real part using Kramers Kronig
   OMEGAMAX=  -1.0    maximum frequency
   DEG_THRESHOLD= 0.2000000E-02 threshold for treating states as degnerate
   RTIME   =   -0.100 relaxation time in fs
  (WPLASMAI=    0.000 imaginary part of plasma frequency in eV, 0.658/RTIME)
   DFIELD  = 0.0000000 0.0000000 0.0000000 field for delta impulse in time
 
 Orbital magnetization related:
   ORBITALMAG=     F  switch on orbital magnetization
   LCHIMAG   =     F  perturbation theory with respect to B field
   DQ        =  0.001000  dq finite difference perturbation B field
   LLRAUG    =     F  two centre corrections for induced B field



--------------------------------------------------------------------------------------------------------


 Static calculation
 charge density and potential will be updated during run
 non-spin polarized calculation
 Variant of blocked Davidson
 Davidson routine will perform the subspace rotation
 perform sub-space diagonalisation
    after iterative eigenvector-optimisation
 modified Broyden-mixing scheme, WC =      100.0
 initial mixing is a Kerker type mixing with AMIX =  0.4000 and BMIX =      0.0100
 Hartree-type preconditioning will be used
 using additional bands           165
 real space projection scheme for non local part
[...]
     13.54561      0.00000     45.35368        -0.000105     -0.000146      0.012131
     13.54315      9.03140     45.35368        -0.002416      0.006019      0.012314
     12.93350      8.06233     34.03053         0.136715     -0.062537     -0.115251
     13.33305      9.12581     32.67548        -0.220389      0.121781      0.001673
     11.68867      9.76710     35.02929         0.277534      0.329949      0.195866
     12.39010     11.44545     35.18591         0.021628     -0.391134     -0.286551
     15.05922      9.15901     36.01811         0.470527      0.012737      0.102015
     13.92913     10.34624     36.67049        -0.066095     -0.013431     -0.412265
     15.61946     10.09796     33.71191         0.270905     -0.101274     -0.001971
     14.48309     11.17946     33.02112        -0.422078      0.150982      0.246468
     15.68850      8.68958     32.71830        -0.187229     -0.170607      0.054320
     15.60582      8.01151     34.33092         0.205945      0.003451      0.244136
     15.98674      6.30436     32.78062         0.291374     -0.259660     -0.211303
     14.40584      6.01179     33.47321        -0.114372      0.024319     -0.000630
     11.19180      9.87429     32.84029         0.254595      0.305807     -0.027208
     12.44024     11.11617     32.39369        -0.364900     -0.124856      0.533660
     10.96761     11.57183     33.26762         0.072939      0.091755      0.086007
     13.36947      8.13440     37.53684         0.038114      0.200561     -0.022701
     13.38921      7.36097     35.97890        -0.031375      0.218477     -0.038373
     12.08049      8.49279     36.39496        -0.119848      0.050991     -0.012383
     15.05010     12.26001     35.66002        -0.093914      0.045113     -0.207350
     15.81765     12.69814     34.11311        -0.273089     -0.092156      0.205676
     16.54661     11.46480     35.15125        -0.411218     -0.068498     -0.016643
     15.03347      7.20058     30.73616         0.058051      0.174369     -0.261020
     14.45879      5.58518     31.09216        -0.236043     -0.111289     -0.295422
     12.09760      5.68650     32.61852        -0.131967      0.192998     -0.116060
     13.50501      8.72312     29.88124        -0.304935     -0.221753      0.137496
      9.78559      6.60201     32.42177        -0.017880     -0.039174      0.075633
     11.19385      9.62523     29.70475        -0.043246      0.072471     -0.030572
      9.31706      8.58433     31.04002        -0.012192     -0.014056     -0.105572
      0.04270      4.41052     34.80309        -0.738897      0.213536      1.311108
      0.41637     13.96847     34.99470        -0.098797     -0.635372      1.168625
      8.66346      4.22408     34.87561        -0.850297     -0.029608     -0.602123
      8.84906     13.71900     34.84185        -0.025065      0.289420     -0.316540
      4.40686      9.18385     34.87945        -0.557289     -0.661821     -0.542328
      4.64654     17.84366     34.82390         0.509410      0.054780     -0.432742
     13.82504     17.78816     34.98757        -0.211777     -0.731960     -0.347076
      0.05092      4.45772     40.68315        -1.403625      1.323817      0.183673
      0.21192     13.78914     40.72521        -0.862184      0.796340     -0.139555
      8.88130      4.39520     40.69251        -0.589862      0.696371     -0.407574
      8.99582     13.60535     40.73321        -0.026622     -0.105445      0.225748
      4.60083      9.02974     40.59817        -1.275848     -1.464247     -0.051836
      4.50196     18.02448     40.60626         0.352113      0.154844     -0.115079
     13.55486      9.26927     40.66199         0.133131     -0.602144      1.086983
     13.59423      0.05587     40.63459         0.365978      0.129867     -0.107428
      9.02897      4.51561     46.44552         0.013049      0.005413      0.040046
      9.02651     13.54701     46.44552         0.022256     -0.008129      0.063485
     18.05937      4.51561     46.44552         0.003871      0.013358      0.050793
     18.05691     13.54701     46.44552         0.032555     -0.015876      0.044855
      4.51521      0.00002     46.44421        -0.004265     -0.005729      0.066495
      4.51275      9.03142     46.44421        -0.000683      0.001186      0.052264
     13.54561      0.00002     46.44421         0.006867      0.007146      0.060813
     13.54315      9.03142     46.44421        -0.012565     -0.011122      0.046921
     12.97084      7.13498     31.26552        -0.906328      0.069467     -0.282854
     11.89217      6.54902     31.96593         0.358527     -0.085543     -0.084598
     12.68164      8.22996     30.42983        -0.244570      0.387115     -0.040760
     10.59436      7.06164     31.85476         0.200769     -0.546607      0.404561
     11.37598      8.75873     30.33738         0.120249     -0.605932      0.221535
     10.32071      8.15994     31.06006         0.544184      0.718544     -0.567346
     13.69286      8.74227     33.62684         0.598888     -0.358107     -0.131028
     12.33649     10.52795     34.56203         0.116556      0.324786     -0.200572
     14.02289      9.48190     35.98952         0.180171     -0.489674      0.398516
     14.84609     10.80333     33.98619         0.411992      0.026518     -0.293891
     15.05620      8.08250     33.39090        -0.288293     -0.418567     -0.013265
     14.96078      6.67812     32.79752        -0.162174      0.445478      0.487172
     11.72200     10.78149     33.18373         0.381072     -0.138883     -0.382310
     13.15390      8.31783     36.47675         0.239577     -0.009191     -0.092873
     15.57500     11.85675     34.78564         0.432168      0.271068      0.521589
     14.36956      6.63697     31.39728         0.538587     -0.548687     -0.007749
      1.14204      3.90805     35.28282         0.885956     -0.524041     -0.072140
      0.93758     12.84051     35.45694        -0.029561      0.639257     -1.061938
      9.78272      3.82089     35.37861         0.261961     -0.253931     -0.235062
      9.20555     12.80375     35.70607         0.157206     -0.436331     -0.124508
      7.85840      5.07797     35.44960        -0.326692     -0.252265     -1.104699
      8.29119     14.86755     35.14375         0.142456     -0.580580      0.832459
     17.08293      4.80613     35.55960         0.418212     -0.093045     -0.863972
     17.66672     14.74202     35.69755         0.400096      0.063263     -1.564041
      3.95929      8.07681     35.43660         1.408454      1.386103      1.479210
      3.47549     17.50500     35.29541         0.010865      0.435785      1.084398
     12.77056     17.15710     35.45429         0.041666      1.328848      0.751283
      5.57984      0.46724     35.44697        -1.692935     -0.046598      0.995016
      5.15358     10.09393     35.43724         0.246454     -0.541117      1.017479
     14.40390      0.76742     35.52136        -0.867222      0.300276      0.999292
      0.94790      3.61839     41.08976         0.713278     -0.668890      0.526454
      0.91072     12.91235     41.38282         0.473232     -0.646444      0.700294
      9.77376      3.64749     41.26706         0.843973     -0.806786      0.473006
      9.66603     12.79876     41.53336        -0.912325      1.119634      1.428825
      3.86260      8.06119     41.12408         0.215923      0.246237      0.079095
      3.68916     17.23763     41.28077         0.653475      0.686715      0.359889
     12.80107      8.42783     41.35749         0.318926      0.110540      0.158480
     12.66392     17.39701     41.23653         0.739934      0.590380      0.303785
      8.14330      5.32255     41.26606         0.181130     -0.283697     -0.327749
      8.15011     14.54364     41.08925         0.267789     -0.255028      0.082992
     17.29384      5.19969     41.44463         1.490248     -1.410269     -0.686456
     17.26978     14.50645     41.19096        -0.168545      0.111119      0.568218
      5.38283      0.80807     41.11182        -0.363007     -0.337792     -0.073301
      5.26704      9.91244     41.26122         1.619757      1.949453      0.067152
     14.51377      0.80401     41.21416        -0.543010     -0.352676      0.093342
     14.68555      9.81887     41.05063        -0.778590     -0.593683      0.147272
      0.82731      3.68697     47.03596         0.024422     -0.028982     -0.095716
      0.82485     12.71837     47.03596         0.007181     -0.008133     -0.092858
      9.85771      3.68697     47.03596         0.017462     -0.027278     -0.092647
      9.85525     12.71837     47.03596         0.013063     -0.009143     -0.095140
      3.68432      8.20234     47.03465        -0.007299     -0.013154     -0.074484
      3.68186     17.23373     47.03465        -0.007086     -0.003831     -0.082948
     12.71472      8.20234     47.03465        -0.002561     -0.004383     -0.075627
     12.71226     17.23373     47.03465        -0.012676     -0.015009     -0.081785
      8.20068      5.34457     47.03603        -0.022803      0.013841     -0.095209
      8.19822     14.37597     47.03603        -0.022228      0.023720     -0.102551
     17.23108      5.34457     47.03603        -0.015426      0.012251     -0.110376
     17.22862     14.37597     47.03603        -0.032105      0.028159     -0.090949
      5.34365      0.82909     47.03465         0.009890      0.010455     -0.077133
      5.34119      9.86049     47.03465         0.009911      0.009586     -0.077299
     14.37405      0.82909     47.03465         0.008006      0.001684     -0.087600
     14.37159      9.86049     47.03465         0.015091      0.020160     -0.069541
     13.76612      9.91302     34.56548        -1.248529      0.563016     -0.110803
      8.80946      0.27974     34.46519         0.247970      0.015254     -0.038829
      8.71207      9.36343     34.76553         0.022149     -0.077645     -0.215434
     17.83278      0.11707     34.54198         0.061461     -0.048470     -0.002060
      0.54289      9.14554     34.70998        -0.125529      0.006901     -0.079281
      4.51347      4.48259     34.47137        -0.015376     -0.050861     -0.107251
      4.55686     13.57029     34.54527         0.032479      0.036744     -0.074826
     13.31271      3.94189     34.94495         0.071962      0.148672     -0.314078
     12.97599     14.13328     34.12098        -0.153762     -0.020520      0.209726
      0.03507      0.08084     40.91475         0.074603     -0.035451      0.003263
      0.29359      8.97770     41.00404        -0.029719     -0.024826     -0.073877
      9.00032     18.01047     40.88129         0.006904      0.074875      0.008158
      9.03388      8.84585     40.95720         0.048402      0.041626      0.019015
      4.58672      4.41830     40.83083        -0.058548      0.018701      0.218569
      4.60467     13.62515     40.92450        -0.065988      0.007550     -0.016685
     13.36297      4.62366     41.03933         0.008934     -0.025463     -0.104563
     13.65784     13.61885     40.86647        -0.063957      0.041014     -0.129475
      2.59749      1.95223     37.96692        -0.067563     -0.079117     -0.016110
      2.64565     11.04791     38.10570         0.002539     -0.007055      0.046727
     11.63622      1.88969     38.11893         0.007393     -0.020850      0.013230
     11.17914     11.42794     38.44815         0.163541     -0.136584     -0.201513
      6.40150      7.09502     37.98339         0.027495      0.069758      0.061787
      6.61238     16.05499     37.97125        -0.031585      0.038020      0.130199
     15.89738      6.72472     38.34440        -0.007287      0.056789     -0.053861
     15.53806     16.17092     38.08051        -0.092237     -0.110992      0.059570
      2.06413      6.40070     37.99223        -0.089883      0.009723      0.058051
      2.07911     15.67342     38.05915         0.069452      0.081528      0.041881
     10.61059      6.16669     38.03543         0.026832      0.025024     -0.039778
     10.99414     15.59340     38.09309        -0.053817     -0.000018      0.078021
      7.01703      2.55279     38.08529         0.129999     -0.265715     -0.022381
      6.92053     11.49651     38.29612         0.078376     -0.053966     -0.008661
     15.98196      2.49696     38.29195         0.039836      0.062438     -0.038337
     16.52935     11.75024     38.50650        -0.225973     -0.010250     -0.315555
      0.00000      0.00000     47.17356         0.000378      0.001937      0.410111
     -0.00246      9.03140     47.17356         0.001246     -0.002589      0.538425
      9.03040      0.00000     47.17356         0.000286     -0.001653      0.384591
      9.02794      9.03140     47.17356        -0.002175      0.000930      0.505647
      4.51398      4.51570     47.17425         0.000966     -0.005961      0.360028
      4.51152     13.54710     47.17425         0.003450      0.005030      0.469141
     13.54438      4.51570     47.17425         0.002368     -0.003288      0.551160
     13.54192     13.54710     47.17425         0.001620      0.003387      0.328497
      2.45192      2.06295     44.04013         0.009119     -0.004506     -0.014707
      2.44946     11.09435     44.04013         0.063518      0.004205      0.064186
     11.48232      2.06295     44.04013         0.002433     -0.053692      0.008538
     11.47986     11.09435     44.04013         0.048170      0.002698      0.051697
      6.57602      6.96845     44.04013        -0.068193      0.010265      0.044807
      6.57356     15.99985     44.04013         0.009580      0.044034      0.014766
     15.60642      6.96845     44.04013        -0.077075      0.080022     -0.000420
     15.60396     15.99985     44.04013        -0.017759      0.034115      0.015927
      2.06108      6.57881     44.04000         0.064097     -0.071676      0.011819
      2.05862     15.61021     44.04000        -0.021164      0.018225      0.044002
     11.09148      6.57881     44.04000        -0.026269     -0.023250      0.039909
     11.08902     15.61021     44.04000        -0.014958      0.004540     -0.004798
      6.96686      2.45259     44.04007        -0.001952     -0.030150     -0.008998
      6.96440     11.48399     44.04007         0.001818      0.018404      0.020778
     15.99726      2.45259     44.04007         0.046200      0.011768      0.034348
     15.99481     11.48399     44.04007         0.031320      0.026140     -0.024265
      2.43163      2.08322     50.06849         0.010429     -0.011339      0.020914
      2.42917     11.11462     50.06849         0.016602     -0.002470      0.023510
     11.46203      2.08322     50.06849        -0.004767     -0.027140      0.022281
     11.45957     11.11462     50.06849         0.024415      0.005841      0.022967
      6.59631      6.94818     50.06849        -0.021281     -0.002044      0.023628
      6.59385     15.97958     50.06849        -0.000806      0.019233      0.021700
     15.62671      6.94818     50.06849        -0.008537      0.008698      0.023131
     15.62425     15.97958     50.06849        -0.013971      0.007372      0.021382
      2.08113      6.59901     50.06905         0.003581     -0.025043      0.023731
      2.07867     15.63041     50.06905        -0.016232     -0.002330      0.022068
     11.11153      6.59901     50.06905        -0.012605     -0.007971      0.024614
     11.10907     15.63041     50.06905        -0.007512     -0.011994      0.021265
      6.94681      2.43239     50.06905         0.011964      0.006198      0.022364
      6.94435     11.46379     50.06905         0.006086      0.015195      0.023986
     15.97721      2.43239     50.06905         0.023306     -0.005374      0.021905
     15.97475     11.46379     50.06905        -0.006376      0.027746      0.023941
     17.97394      0.09586     37.75400         0.024797     -0.042044      0.000073
      0.13100      9.07178     37.83477        -0.013360      0.086540     -0.022303
      9.03978      0.12464     37.69866        -0.042349      0.086485     -0.029344
      8.98976      9.04863     37.77470        -0.014977     -0.083158      0.188473
      4.50431      4.47023     37.67480         0.050874      0.186209      0.043237
      4.55927     13.59214     37.68273        -0.183274     -0.025871      0.049826
     13.46801      4.56111     37.95361        -0.044923      0.094844      0.001302
     13.40429     13.73699     37.73317         0.043551     -0.076843     -0.007624
      0.00001      0.00001     44.04300         0.006149     -0.035050      0.118874
     -0.00245      9.03141     44.04300         0.064574      0.001195      0.142861
      9.03041      0.00001     44.04300        -0.006509      0.028664      0.083432
      9.02795      9.03141     44.04300         0.045510      0.006054      0.125114
      4.51397      4.51569     44.04275         0.010925      0.041299     -0.012383
      4.51151     13.54709     44.04275        -0.043953     -0.031041      0.042026
     13.54437      4.51569     44.04275        -0.010530      0.012066      0.336618
     13.54191     13.54709     44.04275        -0.049438     -0.055835      0.059560
      0.00000      0.00000     50.44728        -0.001463      0.005690     -0.623286
     -0.00246      9.03140     50.44728        -0.001964     -0.006013     -0.660798
      9.03040      0.00000     50.44728         0.002108      0.006635     -0.617419
      9.02794      9.03140     50.44728         0.002060     -0.007402     -0.654069
      4.51397      4.51570     50.44728        -0.002425      0.016313     -0.613158
      4.51151     13.54710     50.44728        -0.001214     -0.017361     -0.642073
     13.54437      4.51570     50.44728         0.000217      0.016970     -0.662526
     13.54191     13.54710     50.44728         0.004084     -0.017319     -0.603522
 -----------------------------------------------------------------------------------
    total drift:                               -0.048812      0.105080      0.944194


--------------------------------------------------------------------------------------------------------



  FREE ENERGIE OF THE ION-ELECTRON SYSTEM (eV)
  ---------------------------------------------------
  free  energy   TOTEN  =     -1572.80677193 eV

  energy  without entropy=    -1572.80677193  energy(sigma->0) =    -1572.80677193
 


--------------------------------------------------------------------------------------------------------


    POTLOK:  cpu time    0.5397: real time    0.5396


--------------------------------------------------------------------------------------------------------


     LOOP+:  cpu time  323.6258: real time  324.1878
 vacuum level on the upper side and lower side of the slab         2.358         1.517
    4ORBIT:  cpu time    0.0000: real time    0.0000

 total amount of memory used by VASP MPI-rank0  8653573. kBytes
=======================================================================

   base      :      30000. kBytes
   nonlr-proj:      53611. kBytes
   fftplans  :     249280. kBytes
   grid      :     701440. kBytes
   one-center:       2636. kBytes
   wavefun   :    7616606. kBytes
 
  
  
 General timing and accounting informations for this job:
 ========================================================
  
                  Total CPU time used (sec):      534.852
                            User time (sec):      429.730
                          System time (sec):      105.122
                         Elapsed time (sec):      537.886
  
                   Maximum memory used (kb):    10308464.
                   Average memory used (kb):          N/A
  
                          Minor page faults:      3756656
                          Major page faults:           13
                 Voluntary context switches:        11280
