<?xml version="1.0" encoding="ISO-8859-1"?>
<modeling>
 <generator>
  <i name="program" type="string">vasp </i>
  <i name="version" type="string">6.2.1  </i>
  <i name="subversion" type="string">16May21 (build Nov 15 2021 14:57:28) complex                          parallel </i>
  <i name="platform" type="string">LinuxPGI </i>
  <i name="date" type="string">2023 07 30 </i>
  <i name="time" type="string">17:43:32 </i>
 </generator>
 <incar>
  <i type="string" name="SYSTEM">PSC</i>
  <i type="int" name="ISTART">     1</i>
  <i type="string" name="PREC">Normal</i>
  <i name="BMIX">      0.01000000</i>
  <i name="AMIN">      0.01000000</i>
  <i type="int" name="ICHARG">     1</i>
  <i type="int" name="NELM">   600</i>
  <i type="int" name="ISYM">     0</i>
  <i name="ENCUT">    500.00000000</i>
  <i type="string" name="LREAL">Auto</i>
  <i type="int" name="ISMEAR">     0</i>
  <i name="SIGMA">      0.05000000</i>
  <i type="logical" name="LWAVE"> F  </i>
  <i type="logical" name="LVTOT"> T  </i>
  <i type="logical" name="GGA_COMPAT"> F  </i>
  <i type="logical" name="LDIPOL"> T  </i>
  <i type="int" name="IDIPOL">     3</i>
  <i type="int" name="IVDW">    12</i>
 </incar>
 <primitive_cell>
  <structure name="primitive_cell" >
   <crystal>
    <varray name="basis" >
     <v>      18.06080055       0.00000000       0.00000000 </v>
     <v>      -0.00491865      18.06279945       0.00000000 </v>
     <v>       0.00000000       0.00000000      62.48749924 </v>
    </varray>
    <i name="volume">  20385.21054034 </i>
    <varray name="rec_basis" >
     <v>       0.05536853       0.00001508      -0.00000000 </v>
     <v>       0.00000000       0.05536240       0.00000000 </v>
     <v>       0.00000000      -0.00000000       0.01600320 </v>
    </varray>
   </crystal>
   <varray name="positions" >
    <v>       0.44733913       0.30304944       0.58143594 </v>
    <v>       0.44551522       0.83712294       0.57797064 </v>
    <v>       0.94483548       0.26517176       0.58554894 </v>
    <v>       0.96561707       0.80576633       0.58662417 </v>
    <v>       0.30031058       0.04477820       0.58266262 </v>
    <v>       0.30503130       0.55518553       0.58264370 </v>
    <v>       0.77565784       0.06819475       0.58185967 </v>
    <v>       0.10616457       0.20196349       0.55440959 </v>
    <v>       0.08624234       0.68017385       0.55779754 </v>
    <v>       0.57644238       0.17899653       0.55806829 </v>
    <v>       0.52731367       0.65700263       0.56670539 </v>
    <v>       0.35841317       0.03582567       0.56034431 </v>
    <v>       0.30222583       0.60360673       0.55892057 </v>
    <v>       0.84103935       0.06706797       0.56146936 </v>
    <v>       0.07237333       0.20724332       0.58076857 </v>
    <v>       0.04235109       0.69181495       0.58235934 </v>
    <v>       0.56127292       0.23168904       0.57989357 </v>
    <v>       0.49954879       0.71312648       0.58733183 </v>
    <v>       0.23131778       0.43610493       0.58297476 </v>
    <v>       0.17630169       0.98200653       0.58029203 </v>
    <v>       0.68242674       0.96817072       0.58126842 </v>
    <v>       0.38399213       0.29061635       0.56074607 </v>
    <v>       0.44767404       0.86041644       0.55103648 </v>
    <v>       0.89989017       0.28421510       0.56134073 </v>
    <v>       0.96018768       0.86540561       0.56467092 </v>
    <v>       0.18752421       0.41229766       0.55918844 </v>
    <v>       0.15621226       0.94103576       0.55590422 </v>
    <v>       0.68999304       0.90196459       0.56017070 </v>
    <v>       0.46204965       0.21070315       0.54284558 </v>
    <v>       0.50000329       0.75062040       0.54052217 </v>
    <v>       0.99847565       0.24927979       0.53983502 </v>
    <v>       0.03848492       0.78875650       0.54391964 </v>
    <v>       0.22739767       0.51591882       0.54155729 </v>
    <v>       0.27055755       0.96991390       0.54106043 </v>
    <v>       0.78977335       0.96143887       0.54540102 </v>
    <v>       0.45341612       0.30787175       0.67612034 </v>
    <v>       0.43844282       0.81736155       0.67307646 </v>
    <v>       0.95901395       0.28546926       0.67939388 </v>
    <v>       0.93789615       0.80398990       0.67483444 </v>
    <v>       0.30550488       0.05230563       0.67389272 </v>
    <v>       0.29576138       0.55338714       0.67670011 </v>
    <v>       0.80814527       0.05033966       0.67573806 </v>
    <v>       0.83575415       0.53629224       0.67169935 </v>
    <v>       0.08397140       0.17169230       0.64670119 </v>
    <v>       0.09234291       0.68728195       0.65468173 </v>
    <v>       0.57008043       0.16319729       0.65179315 </v>
    <v>       0.56872558       0.67016620       0.65842680 </v>
    <v>       0.18539751       0.41080459       0.64842877 </v>
    <v>       0.17009394       0.92054698       0.65254342 </v>
    <v>       0.65941799       0.44755562       0.65579615 </v>
    <v>       0.66530678       0.93388964       0.65103494 </v>
    <v>       0.06338145       0.18824741       0.67341234 </v>
    <v>       0.04420765       0.70133264       0.67820816 </v>
    <v>       0.55506486       0.20205689       0.67633694 </v>
    <v>       0.53229503       0.71198642       0.68139685 </v>
    <v>       0.20722256       0.43831404       0.67424564 </v>
    <v>       0.20303015       0.95267779       0.67707115 </v>
    <v>       0.72249400       0.44856596       0.67708928 </v>
    <v>       0.69592799       0.96085513       0.67622406 </v>
    <v>       0.41412461       0.32367288       0.65136606 </v>
    <v>       0.42595203       0.83616577       0.64611721 </v>
    <v>       0.92185087       0.32164445       0.65576068 </v>
    <v>       0.92898022       0.83984509       0.64960503 </v>
    <v>       0.33027472       0.07600300       0.64799411 </v>
    <v>       0.32359805       0.58841297       0.65184168 </v>
    <v>       0.84075294       0.07304641       0.65039016 </v>
    <v>       0.83973128       0.57711273       0.64651334 </v>
    <v>       0.99573797       0.25478748       0.63388863 </v>
    <v>       0.02649219       0.77485639       0.63518851 </v>
    <v>       0.48293504       0.23570653       0.63405925 </v>
    <v>       0.50740243       0.74531856       0.63489090 </v>
    <v>       0.24880748       0.99513679       0.63233613 </v>
    <v>       0.25468559       0.50155394       0.63233326 </v>
    <v>       0.75575404       0.00198796       0.63279392 </v>
    <v>       0.73238113       0.52743152       0.63504279 </v>
    <v>       0.44874502       0.30128397       0.76888902 </v>
    <v>       0.44874501       0.80128391       0.76888902 </v>
    <v>       0.94874497       0.30128397       0.76888902 </v>
    <v>       0.94874501       0.80128391       0.76888902 </v>
    <v>       0.30127600       0.05129450       0.76887296 </v>
    <v>       0.30127601       0.55129450       0.76887296 </v>
    <v>       0.80127594       0.05129450       0.76887296 </v>
    <v>       0.80127598       0.55129450       0.76887296 </v>
    <v>       0.07877100       0.17118050       0.74344197 </v>
    <v>       0.07877101       0.67118045       0.74344197 </v>
    <v>       0.57877100       0.17118050       0.74344197 </v>
    <v>       0.57877099       0.67118045       0.74344197 </v>
    <v>       0.17119950       0.42117448       0.74342103 </v>
    <v>       0.17119950       0.92117451       0.74342103 </v>
    <v>       0.67119951       0.42117448       0.74342103 </v>
    <v>       0.67119950       0.92117451       0.74342103 </v>
    <v>       0.05125600       0.19871499       0.76888902 </v>
    <v>       0.05125600       0.69871493       0.76888902 </v>
    <v>       0.55125603       0.19871499       0.76888902 </v>
    <v>       0.55125602       0.69871493       0.76888902 </v>
    <v>       0.19872349       0.44870397       0.76887205 </v>
    <v>       0.19872349       0.94870397       0.76887205 </v>
    <v>       0.69872352       0.44870397       0.76887205 </v>
    <v>       0.69872351       0.94870397       0.76887205 </v>
    <v>       0.42123152       0.32881747       0.74344197 </v>
    <v>       0.42123151       0.82881744       0.74344197 </v>
    <v>       0.92123147       0.32881747       0.74344197 </v>
    <v>       0.92123151       0.82881744       0.74344197 </v>
    <v>       0.32880050       0.07882500       0.74342103 </v>
    <v>       0.32880049       0.57882496       0.74342103 </v>
    <v>       0.82880048       0.07882500       0.74342103 </v>
    <v>       0.82880052       0.57882496       0.74342103 </v>
    <v>       0.00000350       0.25000148       0.72582199 </v>
    <v>       0.00000350       0.75000145       0.72582199 </v>
    <v>       0.50000351       0.25000148       0.72582199 </v>
    <v>       0.50000350       0.75000145       0.72582199 </v>
    <v>       0.25000050       0.00000000       0.72580398 </v>
    <v>       0.25000052       0.50000000       0.72580398 </v>
    <v>       0.75000050       0.00000000       0.72580398 </v>
    <v>       0.75000049       0.50000000       0.72580398 </v>
    <v>       0.71623021       0.44634983       0.54459739 </v>
    <v>       0.73836882       0.50522703       0.52291221 </v>
    <v>       0.64733160       0.54072994       0.56058081 </v>
    <v>       0.68619418       0.63364772       0.56308717 </v>
    <v>       0.83394474       0.50706476       0.57640502 </v>
    <v>       0.77139155       0.57279246       0.58684528 </v>
    <v>       0.86497892       0.55904721       0.53949847 </v>
    <v>       0.80207579       0.61892202       0.52844359 </v>
    <v>       0.86878019       0.48107625       0.52359746 </v>
    <v>       0.86419221       0.44353645       0.54940463 </v>
    <v>       0.88525716       0.34902434       0.52459485 </v>
    <v>       0.79772073       0.33282695       0.53567855 </v>
    <v>       0.61982215       0.54666456       0.52554970 </v>
    <v>       0.68896536       0.61541800       0.51840270 </v>
    <v>       0.60743479       0.64064410       0.53238841 </v>
    <v>       0.74037049       0.45033980       0.60070957 </v>
    <v>       0.74145197       0.40752123       0.57577752 </v>
    <v>       0.66900678       0.47018149       0.58243589 </v>
    <v>       0.83348653       0.67874388       0.57067444 </v>
    <v>       0.87599149       0.70299962       0.54591900 </v>
    <v>       0.91633456       0.63471878       0.56253256 </v>
    <v>       0.83248957       0.39864150       0.49187692 </v>
    <v>       0.80064617       0.30920880       0.49757407 </v>
    <v>       0.66991182       0.31481837       0.52200077 </v>
    <v>       0.74788396       0.48293298       0.47819541 </v>
    <v>       0.54191335       0.36550295       0.51885213 </v>
    <v>       0.61993234       0.53287581       0.47537108 </v>
    <v>       0.51600128       0.47524907       0.49673967 </v>
    <v>       0.00243083       0.24417673       0.55696076 </v>
    <v>       0.02326464       0.77332806       0.56002723 </v>
    <v>       0.47974700       0.23385544       0.55812140 </v>
    <v>       0.49016609       0.75951671       0.55758107 </v>
    <v>       0.24413964       0.50843987       0.55818281 </v>
    <v>       0.25754098       0.98786774       0.55729390 </v>
    <v>       0.76574032       0.98479510       0.55991308 </v>
    <v>       0.00288653       0.24679024       0.65106058 </v>
    <v>       0.01194182       0.76339998       0.65173375 </v>
    <v>       0.49181086       0.24332880       0.65121039 </v>
    <v>       0.49829074       0.75322480       0.65186170 </v>
    <v>       0.25487716       0.49990834       0.64970069 </v>
    <v>       0.24953884       0.99787836       0.64983017 </v>
    <v>       0.75065266       0.51316891       0.65072201 </v>
    <v>       0.75269322       0.00309290       0.65028345 </v>
    <v>       0.49998898       0.24999498       0.74327702 </v>
    <v>       0.49998903       0.74999496       0.74327702 </v>
    <v>       0.99998898       0.24999498       0.74327702 </v>
    <v>       0.99998903       0.74999496       0.74327702 </v>
    <v>       0.25000050       0.00000100       0.74325596 </v>
    <v>       0.25000052       0.50000100       0.74325596 </v>
    <v>       0.75000050       0.00000100       0.74325596 </v>
    <v>       0.75000049       0.50000100       0.74325596 </v>
    <v>       0.71828375       0.39500971       0.50034837 </v>
    <v>       0.65855057       0.36256961       0.51155721 </v>
    <v>       0.70228795       0.45563018       0.48697472 </v>
    <v>       0.58670075       0.39094925       0.50977811 </v>
    <v>       0.63000359       0.48490461       0.48549512 </v>
    <v>       0.57156565       0.45175415       0.49706039 </v>
    <v>       0.75828539       0.48399295       0.53813711 </v>
    <v>       0.68321184       0.58285285       0.55310306 </v>
    <v>       0.77656979       0.52494090       0.57594759 </v>
    <v>       0.82216900       0.59809808       0.54388784 </v>
    <v>       0.83376176       0.44746639       0.53436133 </v>
    <v>       0.82845727       0.36971655       0.52486536 </v>
    <v>       0.64919238       0.59688901       0.53104597 </v>
    <v>       0.72843775       0.46049512       0.58374475 </v>
    <v>       0.86254390       0.65641800       0.55668153 </v>
    <v>       0.79572172       0.36743846       0.50245700 </v>
    <v>       0.06329191       0.21635922       0.56463802 </v>
    <v>       0.05210582       0.71088147       0.56742459 </v>
    <v>       0.54171243       0.21153385       0.56617098 </v>
    <v>       0.50989058       0.70884628       0.57141141 </v>
    <v>       0.43518481       0.28112865       0.56730707 </v>
    <v>       0.45929534       0.82310341       0.56241254 </v>
    <v>       0.94592940       0.26607893       0.56906737 </v>
    <v>       0.97840258       0.81615386       0.57127509 </v>
    <v>       0.21934196       0.44715161       0.56709902 </v>
    <v>       0.19269644       0.96911912       0.56483960 </v>
    <v>       0.70734603       0.94985826       0.56738210 </v>
    <v>       0.30895444       0.02586756       0.56726495 </v>
    <v>       0.28549809       0.55882419       0.56710928 </v>
    <v>       0.79753442       0.04248603       0.56845543 </v>
    <v>       0.05253851       0.20032298       0.65756774 </v>
    <v>       0.05061971       0.71485861       0.66225758 </v>
    <v>       0.54121393       0.20193375       0.66040510 </v>
    <v>       0.53538701       0.70857009       0.66466669 </v>
    <v>       0.21398801       0.44628668       0.65811686 </v>
    <v>       0.20452343       0.95431669       0.66062438 </v>
    <v>       0.70890326       0.46658470       0.66185229 </v>
    <v>       0.70144494       0.96314002       0.65991648 </v>
    <v>       0.45096271       0.29466907       0.66038910 </v>
    <v>       0.45147912       0.80517077       0.65755956 </v>
    <v>       0.95761304       0.28786728       0.66324667 </v>
    <v>       0.95642086       0.80311214       0.65918727 </v>
    <v>       0.29805137       0.04473645       0.65792072 </v>
    <v>       0.29177755       0.54877668       0.66031164 </v>
    <v>       0.80361831       0.04451181       0.65955843 </v>
    <v>       0.81326563       0.54359622       0.65694145 </v>
    <v>       0.04586250       0.20411950       0.75272599 </v>
    <v>       0.04586250       0.70411946       0.75272599 </v>
    <v>       0.54586251       0.20411950       0.75272599 </v>
    <v>       0.54586250       0.70411946       0.75272599 </v>
    <v>       0.20411900       0.45410100       0.75270499 </v>
    <v>       0.20411899       0.95410095       0.75270499 </v>
    <v>       0.70411898       0.45410100       0.75270499 </v>
    <v>       0.70411896       0.95410095       0.75270499 </v>
    <v>       0.45414002       0.29588849       0.75272697 </v>
    <v>       0.45414001       0.79588852       0.75272697 </v>
    <v>       0.95414002       0.29588849       0.75272697 </v>
    <v>       0.95414006       0.79588852       0.75272697 </v>
    <v>       0.29588249       0.04590050       0.75270499 </v>
    <v>       0.29588248       0.54590053       0.75270499 </v>
    <v>       0.79588244       0.04590050       0.75270499 </v>
    <v>       0.79588248       0.54590053       0.75270499 </v>
    <v>       0.76235915       0.54880878       0.55315831 </v>
    <v>       0.48777133       0.01548686       0.55155337 </v>
    <v>       0.48251583       0.51838215       0.55635975 </v>
    <v>       0.98737659       0.00648121       0.55278219 </v>
    <v>       0.03019709       0.50631925       0.55547072 </v>
    <v>       0.24997177       0.24816686       0.55165221 </v>
    <v>       0.25251141       0.75128407       0.55283488 </v>
    <v>       0.73716457       0.21823267       0.55923099 </v>
    <v>       0.71867456       0.78245229       0.54604495 </v>
    <v>       0.00194299       0.00447542       0.65476695 </v>
    <v>       0.01639077       0.49702717       0.65619588 </v>
    <v>       0.49860599       0.99710270       0.65423150 </v>
    <v>       0.50032616       0.48972778       0.65544634 </v>
    <v>       0.25402646       0.24460748       0.65342391 </v>
    <v>       0.25515946       0.75432115       0.65492298 </v>
    <v>       0.73995754       0.25597683       0.65676069 </v>
    <v>       0.75642002       0.75397205       0.65399433 </v>
    <v>       0.14384843       0.10807990       0.60759223 </v>
    <v>       0.14665259       0.61163911       0.60981313 </v>
    <v>       0.64430874       0.10461802       0.61002484 </v>
    <v>       0.61914503       0.63267820       0.61529348 </v>
    <v>       0.35454872       0.39279735       0.60785589 </v>
    <v>       0.36635989       0.88884267       0.60766158 </v>
    <v>       0.88031586       0.37229659       0.61363311 </v>
    <v>       0.86056360       0.89526118       0.60941010 </v>
    <v>       0.11438447       0.35435791       0.60799734 </v>
    <v>       0.11535336       0.86771810       0.60906823 </v>
    <v>       0.58758597       0.34140267       0.60868870 </v>
    <v>       0.60896442       0.86328785       0.60961131 </v>
    <v>       0.38856112       0.14132844       0.60948653 </v>
    <v>       0.38335267       0.63647456       0.61286056 </v>
    <v>       0.88493537       0.13823798       0.61279377 </v>
    <v>       0.91538301       0.65052155       0.61622732 </v>
    <v>       0.00000000       0.00000000       0.75492797 </v>
    <v>       0.00000000       0.50000000       0.75492797 </v>
    <v>       0.50000000       0.00000000       0.75492797 </v>
    <v>       0.49999999       0.50000000       0.75492797 </v>
    <v>       0.25000050       0.25000000       0.75493902 </v>
    <v>       0.25000051       0.74999997       0.75493902 </v>
    <v>       0.75000047       0.25000000       0.75493902 </v>
    <v>       0.75000046       0.74999997       0.75493902 </v>
    <v>       0.13579050       0.11421000       0.70478299 </v>
    <v>       0.13579050       0.61420998       0.70478299 </v>
    <v>       0.63579045       0.11421000       0.70478299 </v>
    <v>       0.63579049       0.61420998       0.70478299 </v>
    <v>       0.36420952       0.38578999       0.70478299 </v>
    <v>       0.36420950       0.88578996       0.70478299 </v>
    <v>       0.86420954       0.38578999       0.70478299 </v>
    <v>       0.86420953       0.88578996       0.70478299 </v>
    <v>       0.11421799       0.36421899       0.70478098 </v>
    <v>       0.11421799       0.86421899       0.70478098 </v>
    <v>       0.61421800       0.36421899       0.70478098 </v>
    <v>       0.61421799       0.86421899       0.70478098 </v>
    <v>       0.38578201       0.13578149       0.70478202 </v>
    <v>       0.38578200       0.63578149       0.70478202 </v>
    <v>       0.88578199       0.13578149       0.70478202 </v>
    <v>       0.88578203       0.63578149       0.70478202 </v>
    <v>       0.13466700       0.11533200       0.80125603 </v>
    <v>       0.13466699       0.61533199       0.80125603 </v>
    <v>       0.63466699       0.11533200       0.80125603 </v>
    <v>       0.63466698       0.61533199       0.80125603 </v>
    <v>       0.36533300       0.38466799       0.80125603 </v>
    <v>       0.36533299       0.88466796       0.80125603 </v>
    <v>       0.86533295       0.38466799       0.80125603 </v>
    <v>       0.86533294       0.88466796       0.80125603 </v>
    <v>       0.11532850       0.36533700       0.80126500 </v>
    <v>       0.11532850       0.86533698       0.80126500 </v>
    <v>       0.61532850       0.36533700       0.80126500 </v>
    <v>       0.61532849       0.86533698       0.80126500 </v>
    <v>       0.38467151       0.13466300       0.80126500 </v>
    <v>       0.38467150       0.63466297       0.80126500 </v>
    <v>       0.88467149       0.13466300       0.80126500 </v>
    <v>       0.88467153       0.63466297       0.80126500 </v>
    <v>       0.99519189       0.00530713       0.60418481 </v>
    <v>       0.00739015       0.50223577       0.60547749 </v>
    <v>       0.50052136       0.00690032       0.60329926 </v>
    <v>       0.49788599       0.50095390       0.60451611 </v>
    <v>       0.24946462       0.24748279       0.60291747 </v>
    <v>       0.25264483       0.75249366       0.60304426 </v>
    <v>       0.74577249       0.25251375       0.60737930 </v>
    <v>       0.74238303       0.76051252       0.60385155 </v>
    <v>       0.00000050       0.00000050       0.70482896 </v>
    <v>       0.00000050       0.50000048       0.70482896 </v>
    <v>       0.50000048       0.00000050       0.70482896 </v>
    <v>       0.50000046       0.50000048       0.70482896 </v>
    <v>       0.24999999       0.24999947       0.70482499 </v>
    <v>       0.25000001       0.74999950       0.70482499 </v>
    <v>       0.74999999       0.24999947       0.70482499 </v>
    <v>       0.74999998       0.74999950       0.70482499 </v>
    <v>       0.00000000       0.00000000       0.80731797 </v>
    <v>       0.00000000       0.50000000       0.80731797 </v>
    <v>       0.50000000       0.00000000       0.80731797 </v>
    <v>       0.49999999       0.50000000       0.80731797 </v>
    <v>       0.24999999       0.25000000       0.80731797 </v>
    <v>       0.25000001       0.74999997       0.80731797 </v>
    <v>       0.74999999       0.25000000       0.80731797 </v>
    <v>       0.74999998       0.74999997       0.80731797 </v>
   </varray>
  </structure>
  <varray name="primitive_index" >
   <v type="int" >        1 </v>
   <v type="int" >        2 </v>
   <v type="int" >        3 </v>
   <v type="int" >        4 </v>
   <v type="int" >        5 </v>
   <v type="int" >        6 </v>
   <v type="int" >        7 </v>
   <v type="int" >        8 </v>
   <v type="int" >        9 </v>
   <v type="int" >       10 </v>
   <v type="int" >       11 </v>
   <v type="int" >       12 </v>
   <v type="int" >       13 </v>
   <v type="int" >       14 </v>
   <v type="int" >       15 </v>
   <v type="int" >       16 </v>
   <v type="int" >       17 </v>
   <v type="int" >       18 </v>
   <v type="int" >       19 </v>
   <v type="int" >       20 </v>
   <v type="int" >       21 </v>
   <v type="int" >       22 </v>
   <v type="int" >       23 </v>
   <v type="int" >       24 </v>
   <v type="int" >       25 </v>
   <v type="int" >       26 </v>
   <v type="int" >       27 </v>
   <v type="int" >       28 </v>
   <v type="int" >       29 </v>
   <v type="int" >       30 </v>
   <v type="int" >       31 </v>
   <v type="int" >       32 </v>
   <v type="int" >       33 </v>
   <v type="int" >       34 </v>
   <v type="int" >       35 </v>
   <v type="int" >       36 </v>
   <v type="int" >       37 </v>
   <v type="int" >       38 </v>
   <v type="int" >       39 </v>
   <v type="int" >       40 </v>
   <v type="int" >       41 </v>
   <v type="int" >       42 </v>
   <v type="int" >       43 </v>
   <v type="int" >       44 </v>
   <v type="int" >       45 </v>
   <v type="int" >       46 </v>
   <v type="int" >       47 </v>
   <v type="int" >       48 </v>
   <v type="int" >       49 </v>
   <v type="int" >       50 </v>
   <v type="int" >       51 </v>
   <v type="int" >       52 </v>
   <v type="int" >       53 </v>
   <v type="int" >       54 </v>
   <v type="int" >       55 </v>
   <v type="int" >       56 </v>
   <v type="int" >       57 </v>
   <v type="int" >       58 </v>
   <v type="int" >       59 </v>
   <v type="int" >       60 </v>
   <v type="int" >       61 </v>
   <v type="int" >       62 </v>
   <v type="int" >       63 </v>
   <v type="int" >       64 </v>
   <v type="int" >       65 </v>
   <v type="int" >       66 </v>
   <v type="int" >       67 </v>
   <v type="int" >       68 </v>
   <v type="int" >       69 </v>
   <v type="int" >       70 </v>
   <v type="int" >       71 </v>
   <v type="int" >       72 </v>
   <v type="int" >       73 </v>
   <v type="int" >       74 </v>
   <v type="int" >       75 </v>
   <v type="int" >       76 </v>
   <v type="int" >       77 </v>
   <v type="int" >       78 </v>
   <v type="int" >       79 </v>
   <v type="int" >       80 </v>
   <v type="int" >       81 </v>
   <v type="int" >       82 </v>
   <v type="int" >       83 </v>
   <v type="int" >       84 </v>
   <v type="int" >       85 </v>
   <v type="int" >       86 </v>
   <v type="int" >       87 </v>
   <v type="int" >       88 </v>
   <v type="int" >       89 </v>
   <v type="int" >       90 </v>
   <v type="int" >       91 </v>
   <v type="int" >       92 </v>
   <v type="int" >       93 </v>
   <v type="int" >       94 </v>
   <v type="int" >       95 </v>
   <v type="int" >       96 </v>
   <v type="int" >       97 </v>
   <v type="int" >       98 </v>
   <v type="int" >       99 </v>
   <v type="int" >      100 </v>
   <v type="int" >      101 </v>
   <v type="int" >      102 </v>
   <v type="int" >      103 </v>
   <v type="int" >      104 </v>
   <v type="int" >      105 </v>
   <v type="int" >      106 </v>
   <v type="int" >      107 </v>
   <v type="int" >      108 </v>
   <v type="int" >      109 </v>
   <v type="int" >      110 </v>
   <v type="int" >      111 </v>
   <v type="int" >      112 </v>
   <v type="int" >      113 </v>
   <v type="int" >      114 </v>
   <v type="int" >      115 </v>
   <v type="int" >      116 </v>
   <v type="int" >      117 </v>
   <v type="int" >      118 </v>
   <v type="int" >      119 </v>
   <v type="int" >      120 </v>
   <v type="int" >      121 </v>
   <v type="int" >      122 </v>
   <v type="int" >      123 </v>
   <v type="int" >      124 </v>
   <v type="int" >      125 </v>
   <v type="int" >      126 </v>
   <v type="int" >      127 </v>
   <v type="int" >      128 </v>
   <v type="int" >      129 </v>
   <v type="int" >      130 </v>
   <v type="int" >      131 </v>
   <v type="int" >      132 </v>
   <v type="int" >      133 </v>
   <v type="int" >      134 </v>
   <v type="int" >      135 </v>
   <v type="int" >      136 </v>
   <v type="int" >      137 </v>
   <v type="int" >      138 </v>
   <v type="int" >      139 </v>
   <v type="int" >      140 </v>
   <v type="int" >      141 </v>
   <v type="int" >      142 </v>
   <v type="int" >      143 </v>
   <v type="int" >      144 </v>
   <v type="int" >      145 </v>
   <v type="int" >      146 </v>
   <v type="int" >      147 </v>
   <v type="int" >      148 </v>
   <v type="int" >      149 </v>
   <v type="int" >      150 </v>
   <v type="int" >      151 </v>
   <v type="int" >      152 </v>
   <v type="int" >      153 </v>
   <v type="int" >      154 </v>
   <v type="int" >      155 </v>
   <v type="int" >      156 </v>
   <v type="int" >      157 </v>
   <v type="int" >      158 </v>
   <v type="int" >      159 </v>
   <v type="int" >      160 </v>
   <v type="int" >      161 </v>
   <v type="int" >      162 </v>
   <v type="int" >      163 </v>
   <v type="int" >      164 </v>
   <v type="int" >      165 </v>
   <v type="int" >      166 </v>
   <v type="int" >      167 </v>
   <v type="int" >      168 </v>
   <v type="int" >      169 </v>
   <v type="int" >      170 </v>
   <v type="int" >      171 </v>
   <v type="int" >      172 </v>
   <v type="int" >      173 </v>
   <v type="int" >      174 </v>
   <v type="int" >      175 </v>
   <v type="int" >      176 </v>
   <v type="int" >      177 </v>
   <v type="int" >      178 </v>
   <v type="int" >      179 </v>
   <v type="int" >      180 </v>
   <v type="int" >      181 </v>
   <v type="int" >      182 </v>
   <v type="int" >      183 </v>
   <v type="int" >      184 </v>
   <v type="int" >      185 </v>
   <v type="int" >      186 </v>
   <v type="int" >      187 </v>
   <v type="int" >      188 </v>
   <v type="int" >      189 </v>
   <v type="int" >      190 </v>
   <v type="int" >      191 </v>
   <v type="int" >      192 </v>
   <v type="int" >      193 </v>
   <v type="int" >      194 </v>
   <v type="int" >      195 </v>
   <v type="int" >      196 </v>
   <v type="int" >      197 </v>
   <v type="int" >      198 </v>
   <v type="int" >      199 </v>
   <v type="int" >      200 </v>
   <v type="int" >      201 </v>
   <v type="int" >      202 </v>
   <v type="int" >      203 </v>
   <v type="int" >      204 </v>
   <v type="int" >      205 </v>
   <v type="int" >      206 </v>
   <v type="int" >      207 </v>
   <v type="int" >      208 </v>
   <v type="int" >      209 </v>
   <v type="int" >      210 </v>
   <v type="int" >      211 </v>
   <v type="int" >      212 </v>
   <v type="int" >      213 </v>
   <v type="int" >      214 </v>
   <v type="int" >      215 </v>
   <v type="int" >      216 </v>
   <v type="int" >      217 </v>
   <v type="int" >      218 </v>
   <v type="int" >      219 </v>
   <v type="int" >      220 </v>
   <v type="int" >      221 </v>
   <v type="int" >      222 </v>
   <v type="int" >      223 </v>
   <v type="int" >      224 </v>
   <v type="int" >      225 </v>
   <v type="int" >      226 </v>
   <v type="int" >      227 </v>
   <v type="int" >      228 </v>
   <v type="int" >      229 </v>
   <v type="int" >      230 </v>
   <v type="int" >      231 </v>
   <v type="int" >      232 </v>
   <v type="int" >      233 </v>
   <v type="int" >      234 </v>
   <v type="int" >      235 </v>
   <v type="int" >      236 </v>
   <v type="int" >      237 </v>
   <v type="int" >      238 </v>
   <v type="int" >      239 </v>
   <v type="int" >      240 </v>
   <v type="int" >      241 </v>
   <v type="int" >      242 </v>
   <v type="int" >      243 </v>
   <v type="int" >      244 </v>
   <v type="int" >      245 </v>
   <v type="int" >      246 </v>
   <v type="int" >      247 </v>
   <v type="int" >      248 </v>
   <v type="int" >      249 </v>
   <v type="int" >      250 </v>
   <v type="int" >      251 </v>
   <v type="int" >      252 </v>
   <v type="int" >      253 </v>
   <v type="int" >      254 </v>
   <v type="int" >      255 </v>
   <v type="int" >      256 </v>
   <v type="int" >      257 </v>
   <v type="int" >      258 </v>
   <v type="int" >      259 </v>
   <v type="int" >      260 </v>
   <v type="int" >      261 </v>
   <v type="int" >      262 </v>
   <v type="int" >      263 </v>
   <v type="int" >      264 </v>
   <v type="int" >      265 </v>
   <v type="int" >      266 </v>
   <v type="int" >      267 </v>
   <v type="int" >      268 </v>
   <v type="int" >      269 </v>
   <v type="int" >      270 </v>
   <v type="int" >      271 </v>
   <v type="int" >      272 </v>
   <v type="int" >      273 </v>
   <v type="int" >      274 </v>
   <v type="int" >      275 </v>
   <v type="int" >      276 </v>
   <v type="int" >      277 </v>
   <v type="int" >      278 </v>
   <v type="int" >      279 </v>
   <v type="int" >      280 </v>
   <v type="int" >      281 </v>
   <v type="int" >      282 </v>
   <v type="int" >      283 </v>
   <v type="int" >      284 </v>
   <v type="int" >      285 </v>
   <v type="int" >      286 </v>
   <v type="int" >      287 </v>
   <v type="int" >      288 </v>
   <v type="int" >      289 </v>
   <v type="int" >      290 </v>
   <v type="int" >      291 </v>
   <v type="int" >      292 </v>
   <v type="int" >      293 </v>
   <v type="int" >      294 </v>
   <v type="int" >      295 </v>
   <v type="int" >      296 </v>
   <v type="int" >      297 </v>
   <v type="int" >      298 </v>
   <v type="int" >      299 </v>
   <v type="int" >      300 </v>
   <v type="int" >      301 </v>
   <v type="int" >      302 </v>
   <v type="int" >      303 </v>
   <v type="int" >      304 </v>
   <v type="int" >      305 </v>
   <v type="int" >      306 </v>
   <v type="int" >      307 </v>
   <v type="int" >      308 </v>
   <v type="int" >      309 </v>
   <v type="int" >      310 </v>
   <v type="int" >      311 </v>
   <v type="int" >      312 </v>
   <v type="int" >      313 </v>
   <v type="int" >      314 </v>
   <v type="int" >      315 </v>
   <v type="int" >      316 </v>
   <v type="int" >      317 </v>
   <v type="int" >      318 </v>
   <v type="int" >      319 </v>
   <v type="int" >      320 </v>
   <v type="int" >      321 </v>
   <v type="int" >      322 </v>
   <v type="int" >      323 </v>
   <v type="int" >      324 </v>
   <v type="int" >      325 </v>
  </varray>
 </primitive_cell>
 <kpoints>
  <generation param="Gamma">
   <v type="int" name="divisions">       3        3        1 </v>
   <v name="usershift">      0.00000000       0.00000000       0.00000000 </v>
   <v name="genvec1">      0.33333333       0.00000000       0.00000000 </v>
   <v name="genvec2">      0.00000000       0.33333333       0.00000000 </v>
   <v name="genvec3">      0.00000000       0.00000000       1.00000000 </v>
   <v name="shift">      0.00000000       0.00000000       0.00000000 </v>
  </generation>
  <varray name="kpointlist" >
   <v>       0.00000000       0.00000000       0.00000000 </v>
   <v>       0.33333333       0.00000000       0.00000000 </v>
   <v>       0.00000000       0.33333333       0.00000000 </v>
   <v>       0.33333333       0.33333333       0.00000000 </v>
   <v>      -0.33333333       0.33333333       0.00000000 </v>
  </varray>
  <varray name="weights" >
   <v>       0.11111111 </v>
   <v>       0.22222222 </v>
   <v>       0.22222222 </v>
   <v>       0.22222222 </v>
   <v>       0.22222222 </v>
  </varray>
 </kpoints>
 <parameters>
  <separator name="general" >
   <i type="string" name="SYSTEM">PSC</i>
   <i type="logical" name="LCOMPAT"> F  </i>
  </separator>
  <separator name="electronic" >
   <i type="string" name="PREC">normal</i>
   <i name="ENMAX">    500.00000000</i>
   <i name="ENAUG">    644.87300000</i>
   <i name="EDIFF">      0.00010000</i>
   <i type="int" name="IALGO">    38</i>
   <i type="int" name="IWAVPR">    10</i>
   <i type="int" name="NBANDS">   732</i>
   <i type="int" name="NBANDSLOW">    -1</i>
   <i type="int" name="NBANDSHIGH">    -1</i>
   <i name="NELECT">   1134.00000000</i>
   <i type="int" name="TURBO">     0</i>
   <i type="int" name="IRESTART">     0</i>
   <i type="int" name="NREBOOT">     0</i>
   <i type="int" name="NMIN">     0</i>
   <i name="EREF">      0.00000000</i>
   <separator name="electronic smearing" >
    <i type="int" name="ISMEAR">     0</i>
    <i name="SIGMA">      0.05000000</i>
    <i name="KSPACING">      0.50000000</i>
    <i type="logical" name="KGAMMA"> T  </i>
    <i type="logical" name="KBLOWUP"> T  </i>
   </separator>
   <separator name="electronic projectors" >
    <i type="logical" name="LREAL"> T  </i>
    <v name="ROPT">     -0.00050000     -0.00050000     -0.00050000     -0.00050000     -0.00050000</v>
    <i type="int" name="LMAXPAW">  -100</i>
    <i type="int" name="LMAXMIX">     2</i>
    <i type="logical" name="NLSPLINE"> F  </i>
   </separator>
   <separator name="electronic startup" >
    <i type="int" name="ISTART">     0</i>
    <i type="int" name="ICHARG">     1</i>
    <i type="int" name="INIWAV">     1</i>
   </separator>
   <separator name="electronic spin" >
    <i type="int" name="ISPIN">     1</i>
    <i type="logical" name="LNONCOLLINEAR"> F  </i>
    <v name="MAGMOM">      1.00000000      1.00000000      1.00000000      1.00000000      1.00000000      1.00000000      1.00000000      1.00000000      1.00000000      1.00000000      1.00000000      1.00000000      1.00000000      1.00000000      1.00000000      1.00000000      1.00000000      1.00000000      1.00000000      1.00000000
      1.00000000      1.00000000      1.00000000      1.00000000      1.00000000      1.00000000      1.00000000      1.00000000      1.00000000      1.00000000      1.00000000      1.00000000      1.00000000      1.00000000      1.00000000      1.00000000      1.00000000      1.00000000      1.00000000      1.00000000
      1.00000000      1.00000000      1.00000000      1.00000000      1.00000000      1.00000000      1.00000000      1.00000000      1.00000000      1.00000000      1.00000000      1.00000000      1.00000000      1.00000000      1.00000000      1.00000000      1.00000000      1.00000000      1.00000000      1.00000000
      1.00000000      1.00000000      1.00000000      1.00000000      1.00000000      1.00000000      1.00000000      1.00000000      1.00000000      1.00000000      1.00000000      1.00000000      1.00000000      1.00000000      1.00000000      1.00000000      1.00000000      1.00000000      1.00000000      1.00000000
      1.00000000      1.00000000      1.00000000      1.00000000      1.00000000      1.00000000      1.00000000      1.00000000      1.00000000      1.00000000      1.00000000      1.00000000      1.00000000      1.00000000      1.00000000      1.00000000      1.00000000      1.00000000      1.00000000      1.00000000
      1.00000000      1.00000000      1.00000000      1.00000000      1.00000000      1.00000000      1.00000000      1.00000000      1.00000000      1.00000000      1.00000000      1.00000000      1.00000000      1.00000000      1.00000000      1.00000000      1.00000000      1.00000000      1.00000000      1.00000000
      1.00000000      1.00000000      1.00000000      1.00000000      1.00000000      1.00000000      1.00000000      1.00000000      1.00000000      1.00000000      1.00000000      1.00000000      1.00000000      1.00000000      1.00000000      1.00000000      1.00000000      1.00000000      1.00000000      1.00000000
      1.00000000      1.00000000      1.00000000      1.00000000      1.00000000      1.00000000      1.00000000      1.00000000      1.00000000      1.00000000      1.00000000      1.00000000      1.00000000      1.00000000      1.00000000      1.00000000      1.00000000      1.00000000      1.00000000      1.00000000
      1.00000000      1.00000000      1.00000000      1.00000000      1.00000000      1.00000000      1.00000000      1.00000000      1.00000000      1.00000000      1.00000000      1.00000000      1.00000000      1.00000000      1.00000000      1.00000000      1.00000000      1.00000000      1.00000000      1.00000000
      1.00000000      1.00000000      1.00000000      1.00000000      1.00000000      1.00000000      1.00000000      1.00000000      1.00000000      1.00000000      1.00000000      1.00000000      1.00000000      1.00000000      1.00000000      1.00000000      1.00000000      1.00000000      1.00000000      1.00000000
      1.00000000      1.00000000      1.00000000      1.00000000      1.00000000      1.00000000      1.00000000      1.00000000      1.00000000      1.00000000      1.00000000      1.00000000      1.00000000      1.00000000      1.00000000      1.00000000      1.00000000      1.00000000      1.00000000      1.00000000
      1.00000000      1.00000000      1.00000000      1.00000000      1.00000000      1.00000000      1.00000000      1.00000000      1.00000000      1.00000000      1.00000000      1.00000000      1.00000000      1.00000000      1.00000000      1.00000000      1.00000000      1.00000000      1.00000000      1.00000000
      1.00000000      1.00000000      1.00000000      1.00000000      1.00000000      1.00000000      1.00000000      1.00000000      1.00000000      1.00000000      1.00000000      1.00000000      1.00000000      1.00000000      1.00000000      1.00000000      1.00000000      1.00000000      1.00000000      1.00000000
      1.00000000      1.00000000      1.00000000      1.00000000      1.00000000      1.00000000      1.00000000      1.00000000      1.00000000      1.00000000      1.00000000      1.00000000      1.00000000      1.00000000      1.00000000      1.00000000      1.00000000      1.00000000      1.00000000      1.00000000
      1.00000000      1.00000000      1.00000000      1.00000000      1.00000000      1.00000000      1.00000000      1.00000000      1.00000000      1.00000000      1.00000000      1.00000000      1.00000000      1.00000000      1.00000000      1.00000000      1.00000000      1.00000000      1.00000000      1.00000000
      1.00000000      1.00000000      1.00000000      1.00000000      1.00000000      1.00000000      1.00000000      1.00000000      1.00000000      1.00000000      1.00000000      1.00000000      1.00000000      1.00000000      1.00000000      1.00000000      1.00000000      1.00000000      1.00000000      1.00000000
      1.00000000      1.00000000      1.00000000      1.00000000      1.00000000</v>
    <i name="NUPDOWN">     -1.00000000</i>
    <i type="logical" name="LSORBIT"> F  </i>
    <v name="SAXIS">      0.00000000      0.00000000      1.00000000</v>
    <i type="logical" name="LSPIRAL"> F  </i>
    <v name="QSPIRAL">      0.00000000      0.00000000      0.00000000</v>
    <i type="logical" name="LZEROZ"> F  </i>
   </separator>
   <separator name="electronic exchange-correlation" >
    <i type="logical" name="LASPH"> F  </i>
    <i type="logical" name="LMETAGGA"> F  </i>
   </separator>
   <separator name="electronic convergence" >
    <i type="int" name="NELM">   600</i>
    <i type="int" name="NELMDL">     0</i>
    <i type="int" name="NELMIN">     2</i>
    <i name="ENINI">    500.00000000</i>
    <separator name="electronic convergence detail" >
     <i type="logical" name="LDIAG"> T  </i>
     <i type="logical" name="LSUBROT"> F  </i>
     <i name="WEIMIN">      0.00000000</i>
     <i name="EBREAK">      0.00000003</i>
     <i name="DEPER">      0.30000000</i>
     <i type="int" name="NRMM">     4</i>
     <i name="TIME">      0.40000000</i>
    </separator>
   </separator>
   <separator name="electronic mixer" >
    <i name="AMIX">      0.40000000</i>
    <i name="BMIX">      0.01000000</i>
    <i name="AMIN">      0.01000000</i>
    <i name="AMIX_MAG">      1.60000000</i>
    <i name="BMIX_MAG">      0.01000000</i>
    <separator name="electronic mixer details" >
     <i type="int" name="IMIX">     4</i>
     <i type="logical" name="MIXFIRST"> F  </i>
     <i type="int" name="MAXMIX">   -45</i>
     <i name="WC">    100.00000000</i>
     <i type="int" name="INIMIX">     1</i>
     <i type="int" name="MIXPRE">     1</i>
     <i type="int" name="MREMOVE">     5</i>
    </separator>
   </separator>
   <separator name="electronic dipolcorrection" >
    <i type="logical" name="LDIPOL"> T  </i>
    <i type="logical" name="LMONO"> F  </i>
    <i type="int" name="IDIPOL">     3</i>
    <i name="EPSILON">      1.00000000</i>
    <v name="DIPOL">   -100.00000000   -100.00000000   -100.00000000</v>
    <i name="EFIELD">      0.00000000</i>
   </separator>
  </separator>
  <separator name="grids" >
   <i type="int" name="NGX">   100</i>
   <i type="int" name="NGY">   100</i>
   <i type="int" name="NGZ">   350</i>
   <i type="int" name="NGXF">   200</i>
   <i type="int" name="NGYF">   200</i>
   <i type="int" name="NGZF">   700</i>
   <i type="logical" name="ADDGRID"> F  </i>
  </separator>
  <separator name="ionic" >
   <i type="int" name="NSW">     0</i>
   <i type="int" name="IBRION">    -1</i>
   <i type="int" name="MDALGO">     0</i>
   <i type="int" name="ISIF">     2</i>
   <i name="PSTRESS">      0.00000000</i>
   <i name="EDIFFG">      0.00100000</i>
   <i type="int" name="NFREE">     0</i>
   <i name="POTIM">      0.50000000</i>
   <i name="SMASS">     -3.00000000</i>
   <i name="SCALEE">      1.00000000</i>
  </separator>
  <separator name="ionic md" >
   <i name="TEBEG">      0.00010000</i>
   <i name="TEEND">      0.00010000</i>
   <i type="int" name="NBLOCK">     1</i>
   <i type="int" name="KBLOCK">     1</i>
   <i type="int" name="NPACO">   256</i>
   <i name="APACO">     16.00000000</i>
  </separator>
  <separator name="symmetry" >
   <i type="int" name="ISYM">     0</i>
   <i name="SYMPREC">      0.00001000</i>
  </separator>
  <separator name="dos" >
   <i type="int" name="LORBIT">     0</i>
   <v name="RWIGS">     -1.00000000     -1.00000000     -1.00000000     -1.00000000     -1.00000000</v>
   <i type="int" name="NEDOS">   301</i>
   <i name="EMIN">     10.00000000</i>
   <i name="EMAX">    -10.00000000</i>
   <i name="EFERMI">      0.00000000</i>
  </separator>
  <separator name="writing" >
   <i type="int" name="NWRITE">     2</i>
   <i type="logical" name="LWAVE"> F  </i>
   <i type="logical" name="LDOWNSAMPLE"> F  </i>
   <i type="logical" name="LCHARG"> T  </i>
   <i type="logical" name="LPARD"> F  </i>
   <i type="logical" name="LVTOT"> T  </i>
   <i type="logical" name="LVHAR"> F  </i>
   <i type="logical" name="LELF"> F  </i>
   <i type="logical" name="LOPTICS"> F  </i>
   <v name="STM">      0.00000000      0.00000000      0.00000000      0.00000000      0.00000000      0.00000000      0.00000000</v>
  </separator>
  <separator name="performance" >
   <i type="int" name="NPAR">     4</i>
   <i type="int" name="NSIM">     4</i>
   <i type="int" name="NBLK">    -1</i>
   <i type="logical" name="LPLANE"> T  </i>
   <i type="logical" name="LSCALAPACK"> T  </i>
   <i type="logical" name="LSCAAWARE"> F  </i>
   <i type="logical" name="LSCALU"> F  </i>
   <i type="logical" name="LASYNC"> F  </i>
   <i type="logical" name="LORBITALREAL"> F  </i>
  </separator>
  <separator name="miscellaneous" >
   <i type="int" name="IDIOT">     3</i>
   <i type="int" name="PHON_NSTRUCT">    -1</i>
   <i type="logical" name="LMUSIC"> F  </i>
   <v name="POMASS">      1.00000000     12.01100000     14.00100000    126.90400000    207.20000000</v>
   <v name="DARWINR">      0.00000000      0.00000000      0.00000000      0.00000000      0.00000000</v>
   <v name="DARWINV">      1.00000000      1.00000000      1.00000000      1.00000000      1.00000000</v>
   <i type="logical" name="LCORR"> T  </i>
  </separator>
  <i type="logical" name="GGA_COMPAT"> F  </i>
  <i type="logical" name="LBERRY"> F  </i>
  <i type="int" name="ICORELEVEL">     0</i>
  <i type="logical" name="LDAU"> F  </i>
  <i type="int" name="I_CONSTRAINED_M">     0</i>
  <separator name="electronic exchange-correlation" >
   <i type="string" name="GGA">--</i>
   <i type="int" name="VOSKOWN">     0</i>
   <i type="logical" name="LHFCALC"> F  </i>
   <i type="string" name="PRECFOCK"></i>
   <i type="logical" name="LSYMGRAD"> F  </i>
   <i type="logical" name="LHFONE"> F  </i>
   <i type="logical" name="LRHFCALC"> F  </i>
   <i type="logical" name="LTHOMAS"> F  </i>
   <i type="logical" name="LMODELHF"> F  </i>
   <i type="logical" name="LFOCKACE"> F  </i>
   <i name="ENCUT4O">     -1.00000000</i>
   <i type="int" name="EXXOEP">     0</i>
   <i type="int" name="FOURORBIT">     0</i>
   <i name="AEXX">      0.00000000</i>
   <i name="HFALPHA">      0.00000000</i>
   <i name="MCALPHA">      0.00000000</i>
   <i name="ALDAX">      1.00000000</i>
   <i name="AGGAX">      1.00000000</i>
   <i name="ALDAC">      1.00000000</i>
   <i name="AGGAC">      1.00000000</i>
   <i type="int" name="NKREDX">     1</i>
   <i type="int" name="NKREDY">     1</i>
   <i type="int" name="NKREDZ">     1</i>
   <i type="logical" name="SHIFTRED"> F  </i>
   <i type="logical" name="ODDONLY"> F  </i>
   <i type="logical" name="EVENONLY"> F  </i>
   <i type="int" name="LMAXFOCK">     0</i>
   <i type="int" name="NMAXFOCKAE">     0</i>
   <i type="logical" name="LFOCKAEDFT"> F  </i>
   <i name="HFSCREEN">      0.00000000</i>
   <i name="HFSCREENC">      0.00000000</i>
   <i type="int" name="NBANDSGWLOW">     0</i>
  </separator>
  <separator name="vdW DFT" >
   <i type="logical" name="LUSE_VDW"> F  </i>
   <i name="Zab_VDW">     -0.84910000</i>
   <i name="PARAM1">      0.12340000</i>
   <i name="PARAM2">      1.00000000</i>
   <i name="PARAM3">      0.00000000</i>
  </separator>
  <separator name="model GW" >
   <i type="int" name="MODEL_GW">     0</i>
   <i name="MODEL_EPS0">     37.63423484</i>
   <i name="MODEL_ALPHA">      1.00000000</i>
  </separator>
  <separator name="linear response parameters" >
   <i type="logical" name="LEPSILON"> F  </i>
   <i type="logical" name="LRPA"> F  </i>
   <i type="logical" name="LNABLA"> F  </i>
   <i type="logical" name="LVEL"> F  </i>
   <i type="int" name="KINTER">     0</i>
   <i name="CSHIFT">      0.10000000</i>
   <i name="OMEGAMAX">     -1.00000000</i>
   <i name="DEG_THRESHOLD">      0.00200000</i>
   <i name="RTIME">     -0.10000000</i>
   <i name="WPLASMAI">      0.00000000</i>
   <v name="DFIELD">      0.00000000      0.00000000      0.00000000</v>
   <v name="WPLASMA">      0.00000000      0.00000000      0.00000000      0.00000000      0.00000000      0.00000000      0.00000000      0.00000000      0.00000000</v>
  </separator>
  <separator name="orbital magnetization" >
   <i type="logical" name="NUCIND"> F  </i>
   <v name="MAGPOS">      0.00000000      0.00000000      0.00000000</v>
   <i type="logical" name="LNICSALL"> T  </i>
   <i type="logical" name="ORBITALMAG"> F  </i>
   <i type="logical" name="LMAGBLOCH"> F  </i>
   <i type="logical" name="LCHIMAG"> F  </i>
   <i type="logical" name="LGAUGE"> T  </i>
   <i type="int" name="MAGATOM">     0</i>
   <v name="MAGDIPOL">      0.00000000      0.00000000      0.00000000</v>
   <v name="AVECCONST">      0.00000000      0.00000000      0.00000000</v>
  </separator>
  <separator name="response functions" >
   <i type="logical" name="LFINITE_TEMPERATURE"> F  </i>
   <i type="logical" name="LADDER"> F  </i>
   <i type="logical" name="LRPAFORCE"> F  </i>
   <i type="logical" name="LFXC"> F  </i>
   <i type="logical" name="LHARTREE"> T  </i>
   <i type="int" name="IBSE">     0</i>
   <v type="int" name="KPOINT">    -1     0     0     0</v>
   <i type="logical" name="LTCTC"> F  </i>
   <i type="logical" name="LTCTE"> F  </i>
   <i type="logical" name="LTETE"> F  </i>
   <i type="logical" name="LTRIPLET"> F  </i>
   <i type="logical" name="LFXCEPS"> F  </i>
   <i type="logical" name="LFXHEG"> F  </i>
   <i type="int" name="NATURALO">     2</i>
   <i type="logical" name="LHOLEGF"> F  </i>
   <i type="logical" name="L2ORDER"> F  </i>
   <i type="logical" name="LDMP1"> F  </i>
   <i type="logical" name="LMP2LT"> F  </i>
   <i type="logical" name="LSMP2LT"> F  </i>
   <i type="logical" name="LGWLF"> F  </i>
   <i name="ENCUTGW">     -2.00000000</i>
   <i name="ENCUTGWSOFT">     -2.00000000</i>
   <i name="ENCUTLF">     -1.00000000</i>
   <i type="logical" name="LESF_SPLINES"> F  </i>
   <i type="int" name="LMAXMP2">    -1</i>
   <i name="SCISSOR">      0.00000000</i>
   <i type="int" name="NOMEGA">     0</i>
   <i type="int" name="NOMEGAR">     0</i>
   <i type="int" name="NBANDSGW">    -1</i>
   <i type="int" name="NBANDSO">    -1</i>
   <i type="int" name="NBANDSV">    -1</i>
   <i type="int" name="NELM">   600</i>
   <i type="int" name="NELMHF">     1</i>
   <i type="int" name="DIM">     3</i>
   <i type="int" name="IESPILON">     4</i>
   <i type="int" name="ANTIRES">     0</i>
   <i name="OMEGAMAX">    -30.00000000</i>
   <i name="OMEGAMIN">    -30.00000000</i>
   <i name="OMEGATL">   -200.00000000</i>
   <i type="int" name="OMEGAGRID">     0</i>
   <i name="CSHIFT">     -0.10000000</i>
   <i type="logical" name="LSELFENERGY"> F  </i>
   <i type="logical" name="LSPECTRAL"> F  </i>
   <i type="logical" name="LSPECTRALGW"> F  </i>
   <i type="logical" name="LSINGLES"> F  </i>
   <i type="logical" name="LFERMIGW"> F  </i>
   <i type="logical" name="ODDONLYGW"> F  </i>
   <i type="logical" name="EVENONLYGW"> F  </i>
   <i type="int" name="NKREDLFX">     1</i>
   <i type="int" name="NKREDLFY">     1</i>
   <i type="int" name="NKREDLFZ">     1</i>
   <i type="int" name="MAXMEM">  2800</i>
   <i type="int" name="TELESCOPE">     0</i>
   <i type="int" name="NTAUPAR">    -1</i>
   <i type="int" name="NOMEGAPAR">    -1</i>
   <i name="DAMP_NEWTON">      0.80000001</i>
   <i name="LAMBDA">      1.00000000</i>
  </separator>
  <separator name="External order field" >
   <i name="OFIELD_KAPPA">      0.00000000</i>
   <v name="OFIELD_K">      0.00000000      0.00000000      0.00000000</v>
   <i name="OFIELD_Q6_NEAR">      0.00000000</i>
   <i name="OFIELD_Q6_FAR">      0.00000000</i>
   <i name="OFIELD_A">      0.00000000</i>
  </separator>
 </parameters>
 <atominfo>
  <atoms>     325 </atoms>
  <types>       5 </types>
  <array name="atoms" >
   <dimension dim="1">ion</dimension>
   <field type="string">element</field>
   <field type="int">atomtype</field>
   <set>
    <rc><c>H </c><c>   1</c></rc>
    <rc><c>H </c><c>   1</c></rc>
    <rc><c>H </c><c>   1</c></rc>
    <rc><c>H </c><c>   1</c></rc>
    <rc><c>H </c><c>   1</c></rc>
    <rc><c>H </c><c>   1</c></rc>
    <rc><c>H </c><c>   1</c></rc>
    <rc><c>H </c><c>   1</c></rc>
    <rc><c>H </c><c>   1</c></rc>
    <rc><c>H </c><c>   1</c></rc>
    <rc><c>H </c><c>   1</c></rc>
    <rc><c>H </c><c>   1</c></rc>
    <rc><c>H </c><c>   1</c></rc>
    <rc><c>H </c><c>   1</c></rc>
    <rc><c>H </c><c>   1</c></rc>
    <rc><c>H </c><c>   1</c></rc>
    <rc><c>H </c><c>   1</c></rc>
    <rc><c>H </c><c>   1</c></rc>
    <rc><c>H </c><c>   1</c></rc>
    <rc><c>H </c><c>   1</c></rc>
    <rc><c>H </c><c>   1</c></rc>
    <rc><c>H </c><c>   1</c></rc>
    <rc><c>H </c><c>   1</c></rc>
    <rc><c>H </c><c>   1</c></rc>
    <rc><c>H </c><c>   1</c></rc>
    <rc><c>H </c><c>   1</c></rc>
    <rc><c>H </c><c>   1</c></rc>
    <rc><c>H </c><c>   1</c></rc>
    <rc><c>H </c><c>   1</c></rc>
    <rc><c>H </c><c>   1</c></rc>
    <rc><c>H </c><c>   1</c></rc>
    <rc><c>H </c><c>   1</c></rc>
    <rc><c>H </c><c>   1</c></rc>
    <rc><c>H </c><c>   1</c></rc>
    <rc><c>H </c><c>   1</c></rc>
    <rc><c>H </c><c>   1</c></rc>
    <rc><c>H </c><c>   1</c></rc>
    <rc><c>H </c><c>   1</c></rc>
    <rc><c>H </c><c>   1</c></rc>
    <rc><c>H </c><c>   1</c></rc>
    <rc><c>H </c><c>   1</c></rc>
    <rc><c>H </c><c>   1</c></rc>
    <rc><c>H </c><c>   1</c></rc>
    <rc><c>H </c><c>   1</c></rc>
    <rc><c>H </c><c>   1</c></rc>
    <rc><c>H </c><c>   1</c></rc>
    <rc><c>H </c><c>   1</c></rc>
    <rc><c>H </c><c>   1</c></rc>
    <rc><c>H </c><c>   1</c></rc>
    <rc><c>H </c><c>   1</c></rc>
    <rc><c>H </c><c>   1</c></rc>
    <rc><c>H </c><c>   1</c></rc>
    <rc><c>H </c><c>   1</c></rc>
    <rc><c>H </c><c>   1</c></rc>
    <rc><c>H </c><c>   1</c></rc>
    <rc><c>H </c><c>   1</c></rc>
    <rc><c>H </c><c>   1</c></rc>
    <rc><c>H </c><c>   1</c></rc>
    <rc><c>H </c><c>   1</c></rc>
    <rc><c>H </c><c>   1</c></rc>
    <rc><c>H </c><c>   1</c></rc>
    <rc><c>H </c><c>   1</c></rc>
    <rc><c>H </c><c>   1</c></rc>
    <rc><c>H </c><c>   1</c></rc>
    <rc><c>H </c><c>   1</c></rc>
    <rc><c>H </c><c>   1</c></rc>
    <rc><c>H </c><c>   1</c></rc>
    <rc><c>H </c><c>   1</c></rc>
    <rc><c>H </c><c>   1</c></rc>
    <rc><c>H </c><c>   1</c></rc>
    <rc><c>H </c><c>   1</c></rc>
    <rc><c>H </c><c>   1</c></rc>
    <rc><c>H </c><c>   1</c></rc>
    <rc><c>H </c><c>   1</c></rc>
    <rc><c>H </c><c>   1</c></rc>
    <rc><c>H </c><c>   1</c></rc>
    <rc><c>H </c><c>   1</c></rc>
    <rc><c>H </c><c>   1</c></rc>
    <rc><c>H </c><c>   1</c></rc>
    <rc><c>H </c><c>   1</c></rc>
    <rc><c>H </c><c>   1</c></rc>
    <rc><c>H </c><c>   1</c></rc>
    <rc><c>H </c><c>   1</c></rc>
    <rc><c>H </c><c>   1</c></rc>
    <rc><c>H </c><c>   1</c></rc>
    <rc><c>H </c><c>   1</c></rc>
    <rc><c>H </c><c>   1</c></rc>
    <rc><c>H </c><c>   1</c></rc>
    <rc><c>H </c><c>   1</c></rc>
    <rc><c>H </c><c>   1</c></rc>
    <rc><c>H </c><c>   1</c></rc>
    <rc><c>H </c><c>   1</c></rc>
    <rc><c>H </c><c>   1</c></rc>
    <rc><c>H </c><c>   1</c></rc>
    <rc><c>H </c><c>   1</c></rc>
    <rc><c>H </c><c>   1</c></rc>
    <rc><c>H </c><c>   1</c></rc>
    <rc><c>H </c><c>   1</c></rc>
    <rc><c>H </c><c>   1</c></rc>
    <rc><c>H </c><c>   1</c></rc>
    <rc><c>H </c><c>   1</c></rc>
    <rc><c>H </c><c>   1</c></rc>
    <rc><c>H </c><c>   1</c></rc>
    <rc><c>H </c><c>   1</c></rc>
    <rc><c>H </c><c>   1</c></rc>
    <rc><c>H </c><c>   1</c></rc>
    <rc><c>H </c><c>   1</c></rc>
    <rc><c>H </c><c>   1</c></rc>
    <rc><c>H </c><c>   1</c></rc>
    <rc><c>H </c><c>   1</c></rc>
    <rc><c>H </c><c>   1</c></rc>
    <rc><c>H </c><c>   1</c></rc>
    <rc><c>H </c><c>   1</c></rc>
    <rc><c>H </c><c>   1</c></rc>
    <rc><c>H </c><c>   1</c></rc>
    <rc><c>H </c><c>   1</c></rc>
    <rc><c>H </c><c>   1</c></rc>
    <rc><c>H </c><c>   1</c></rc>
    <rc><c>H </c><c>   1</c></rc>
    <rc><c>H </c><c>   1</c></rc>
    <rc><c>H </c><c>   1</c></rc>
    <rc><c>H </c><c>   1</c></rc>
    <rc><c>H </c><c>   1</c></rc>
    <rc><c>H </c><c>   1</c></rc>
    <rc><c>H </c><c>   1</c></rc>
    <rc><c>H </c><c>   1</c></rc>
    <rc><c>H </c><c>   1</c></rc>
    <rc><c>H </c><c>   1</c></rc>
    <rc><c>H </c><c>   1</c></rc>
    <rc><c>H </c><c>   1</c></rc>
    <rc><c>H </c><c>   1</c></rc>
    <rc><c>H </c><c>   1</c></rc>
    <rc><c>H </c><c>   1</c></rc>
    <rc><c>H </c><c>   1</c></rc>
    <rc><c>H </c><c>   1</c></rc>
    <rc><c>H </c><c>   1</c></rc>
    <rc><c>H </c><c>   1</c></rc>
    <rc><c>H </c><c>   1</c></rc>
    <rc><c>H </c><c>   1</c></rc>
    <rc><c>H </c><c>   1</c></rc>
    <rc><c>H </c><c>   1</c></rc>
    <rc><c>H </c><c>   1</c></rc>
    <rc><c>H </c><c>   1</c></rc>
    <rc><c>C </c><c>   2</c></rc>
    <rc><c>C </c><c>   2</c></rc>
    <rc><c>C </c><c>   2</c></rc>
    <rc><c>C </c><c>   2</c></rc>
    <rc><c>C </c><c>   2</c></rc>
    <rc><c>C </c><c>   2</c></rc>
    <rc><c>C </c><c>   2</c></rc>
    <rc><c>C </c><c>   2</c></rc>
    <rc><c>C </c><c>   2</c></rc>
    <rc><c>C </c><c>   2</c></rc>
    <rc><c>C </c><c>   2</c></rc>
    <rc><c>C </c><c>   2</c></rc>
    <rc><c>C </c><c>   2</c></rc>
    <rc><c>C </c><c>   2</c></rc>
    <rc><c>C </c><c>   2</c></rc>
    <rc><c>C </c><c>   2</c></rc>
    <rc><c>C </c><c>   2</c></rc>
    <rc><c>C </c><c>   2</c></rc>
    <rc><c>C </c><c>   2</c></rc>
    <rc><c>C </c><c>   2</c></rc>
    <rc><c>C </c><c>   2</c></rc>
    <rc><c>C </c><c>   2</c></rc>
    <rc><c>C </c><c>   2</c></rc>
    <rc><c>C </c><c>   2</c></rc>
    <rc><c>C </c><c>   2</c></rc>
    <rc><c>C </c><c>   2</c></rc>
    <rc><c>C </c><c>   2</c></rc>
    <rc><c>C </c><c>   2</c></rc>
    <rc><c>C </c><c>   2</c></rc>
    <rc><c>C </c><c>   2</c></rc>
    <rc><c>C </c><c>   2</c></rc>
    <rc><c>C </c><c>   2</c></rc>
    <rc><c>C </c><c>   2</c></rc>
    <rc><c>C </c><c>   2</c></rc>
    <rc><c>C </c><c>   2</c></rc>
    <rc><c>C </c><c>   2</c></rc>
    <rc><c>C </c><c>   2</c></rc>
    <rc><c>C </c><c>   2</c></rc>
    <rc><c>C </c><c>   2</c></rc>
    <rc><c>N </c><c>   3</c></rc>
    <rc><c>N </c><c>   3</c></rc>
    <rc><c>N </c><c>   3</c></rc>
    <rc><c>N </c><c>   3</c></rc>
    <rc><c>N </c><c>   3</c></rc>
    <rc><c>N </c><c>   3</c></rc>
    <rc><c>N </c><c>   3</c></rc>
    <rc><c>N </c><c>   3</c></rc>
    <rc><c>N </c><c>   3</c></rc>
    <rc><c>N </c><c>   3</c></rc>
    <rc><c>N </c><c>   3</c></rc>
    <rc><c>N </c><c>   3</c></rc>
    <rc><c>N </c><c>   3</c></rc>
    <rc><c>N </c><c>   3</c></rc>
    <rc><c>N </c><c>   3</c></rc>
    <rc><c>N </c><c>   3</c></rc>
    <rc><c>N </c><c>   3</c></rc>
    <rc><c>N </c><c>   3</c></rc>
    <rc><c>N </c><c>   3</c></rc>
    <rc><c>N </c><c>   3</c></rc>
    <rc><c>N </c><c>   3</c></rc>
    <rc><c>N </c><c>   3</c></rc>
    <rc><c>N </c><c>   3</c></rc>
    <rc><c>N </c><c>   3</c></rc>
    <rc><c>N </c><c>   3</c></rc>
    <rc><c>N </c><c>   3</c></rc>
    <rc><c>N </c><c>   3</c></rc>
    <rc><c>N </c><c>   3</c></rc>
    <rc><c>N </c><c>   3</c></rc>
    <rc><c>N </c><c>   3</c></rc>
    <rc><c>N </c><c>   3</c></rc>
    <rc><c>N </c><c>   3</c></rc>
    <rc><c>N </c><c>   3</c></rc>
    <rc><c>N </c><c>   3</c></rc>
    <rc><c>N </c><c>   3</c></rc>
    <rc><c>N </c><c>   3</c></rc>
    <rc><c>N </c><c>   3</c></rc>
    <rc><c>N </c><c>   3</c></rc>
    <rc><c>N </c><c>   3</c></rc>
    <rc><c>N </c><c>   3</c></rc>
    <rc><c>N </c><c>   3</c></rc>
    <rc><c>N </c><c>   3</c></rc>
    <rc><c>N </c><c>   3</c></rc>
    <rc><c>N </c><c>   3</c></rc>
    <rc><c>N </c><c>   3</c></rc>
    <rc><c>N </c><c>   3</c></rc>
    <rc><c>N </c><c>   3</c></rc>
    <rc><c>I </c><c>   4</c></rc>
    <rc><c>I </c><c>   4</c></rc>
    <rc><c>I </c><c>   4</c></rc>
    <rc><c>I </c><c>   4</c></rc>
    <rc><c>I </c><c>   4</c></rc>
    <rc><c>I </c><c>   4</c></rc>
    <rc><c>I </c><c>   4</c></rc>
    <rc><c>I </c><c>   4</c></rc>
    <rc><c>I </c><c>   4</c></rc>
    <rc><c>I </c><c>   4</c></rc>
    <rc><c>I </c><c>   4</c></rc>
    <rc><c>I </c><c>   4</c></rc>
    <rc><c>I </c><c>   4</c></rc>
    <rc><c>I </c><c>   4</c></rc>
    <rc><c>I </c><c>   4</c></rc>
    <rc><c>I </c><c>   4</c></rc>
    <rc><c>I </c><c>   4</c></rc>
    <rc><c>I </c><c>   4</c></rc>
    <rc><c>I </c><c>   4</c></rc>
    <rc><c>I </c><c>   4</c></rc>
    <rc><c>I </c><c>   4</c></rc>
    <rc><c>I </c><c>   4</c></rc>
    <rc><c>I </c><c>   4</c></rc>
    <rc><c>I </c><c>   4</c></rc>
    <rc><c>I </c><c>   4</c></rc>
    <rc><c>I </c><c>   4</c></rc>
    <rc><c>I </c><c>   4</c></rc>
    <rc><c>I </c><c>   4</c></rc>
    <rc><c>I </c><c>   4</c></rc>
    <rc><c>I </c><c>   4</c></rc>
    <rc><c>I </c><c>   4</c></rc>
    <rc><c>I </c><c>   4</c></rc>
    <rc><c>I </c><c>   4</c></rc>
    <rc><c>I </c><c>   4</c></rc>
    <rc><c>I </c><c>   4</c></rc>
    <rc><c>I </c><c>   4</c></rc>
    <rc><c>I </c><c>   4</c></rc>
    <rc><c>I </c><c>   4</c></rc>
    <rc><c>I </c><c>   4</c></rc>
    <rc><c>I </c><c>   4</c></rc>
    <rc><c>I </c><c>   4</c></rc>
    <rc><c>I </c><c>   4</c></rc>
    <rc><c>I </c><c>   4</c></rc>
    <rc><c>I </c><c>   4</c></rc>
    <rc><c>I </c><c>   4</c></rc>
    <rc><c>I </c><c>   4</c></rc>
    <rc><c>I </c><c>   4</c></rc>
    <rc><c>I </c><c>   4</c></rc>
    <rc><c>I </c><c>   4</c></rc>
    <rc><c>I </c><c>   4</c></rc>
    <rc><c>I </c><c>   4</c></rc>
    <rc><c>I </c><c>   4</c></rc>
    <rc><c>I </c><c>   4</c></rc>
    <rc><c>I </c><c>   4</c></rc>
    <rc><c>I </c><c>   4</c></rc>
    <rc><c>I </c><c>   4</c></rc>
    <rc><c>I </c><c>   4</c></rc>
    <rc><c>I </c><c>   4</c></rc>
    <rc><c>I </c><c>   4</c></rc>
    <rc><c>I </c><c>   4</c></rc>
    <rc><c>I </c><c>   4</c></rc>
    <rc><c>I </c><c>   4</c></rc>
    <rc><c>I </c><c>   4</c></rc>
    <rc><c>I </c><c>   4</c></rc>
    <rc><c>I </c><c>   4</c></rc>
    <rc><c>I </c><c>   4</c></rc>
    <rc><c>I </c><c>   4</c></rc>
    <rc><c>I </c><c>   4</c></rc>
    <rc><c>I </c><c>   4</c></rc>
    <rc><c>I </c><c>   4</c></rc>
    <rc><c>I </c><c>   4</c></rc>
    <rc><c>I </c><c>   4</c></rc>
    <rc><c>Pb</c><c>   5</c></rc>
    <rc><c>Pb</c><c>   5</c></rc>
    <rc><c>Pb</c><c>   5</c></rc>
    <rc><c>Pb</c><c>   5</c></rc>
    <rc><c>Pb</c><c>   5</c></rc>
    <rc><c>Pb</c><c>   5</c></rc>
    <rc><c>Pb</c><c>   5</c></rc>
    <rc><c>Pb</c><c>   5</c></rc>
    <rc><c>Pb</c><c>   5</c></rc>
    <rc><c>Pb</c><c>   5</c></rc>
    <rc><c>Pb</c><c>   5</c></rc>
    <rc><c>Pb</c><c>   5</c></rc>
    <rc><c>Pb</c><c>   5</c></rc>
    <rc><c>Pb</c><c>   5</c></rc>
    <rc><c>Pb</c><c>   5</c></rc>
    <rc><c>Pb</c><c>   5</c></rc>
    <rc><c>Pb</c><c>   5</c></rc>
    <rc><c>Pb</c><c>   5</c></rc>
    <rc><c>Pb</c><c>   5</c></rc>
    <rc><c>Pb</c><c>   5</c></rc>
    <rc><c>Pb</c><c>   5</c></rc>
    <rc><c>Pb</c><c>   5</c></rc>
    <rc><c>Pb</c><c>   5</c></rc>
    <rc><c>Pb</c><c>   5</c></rc>
   </set>
  </array>
  <array name="atomtypes" >
   <dimension dim="1">type</dimension>
   <field type="int">atomspertype</field>
   <field type="string">element</field>
   <field>mass</field>
   <field>valence</field>
   <field type="string">pseudopotential</field>
   <set>
    <rc><c> 143</c><c>H </c><c>      1.00000000</c><c>      1.00000000</c><c>  PAW_PBE H 15Jun2001                   </c></rc>
    <rc><c>  39</c><c>C </c><c>     12.01100000</c><c>      4.00000000</c><c>  PAW_PBE C 08Apr2002                   </c></rc>
    <rc><c>  47</c><c>N </c><c>     14.00100000</c><c>      5.00000000</c><c>  PAW_PBE N 08Apr2002                   </c></rc>
    <rc><c>  72</c><c>I </c><c>    126.90400000</c><c>      7.00000000</c><c>  PAW_PBE I 08Apr2002                   </c></rc>
    <rc><c>  24</c><c>Pb</c><c>    207.20000000</c><c>      4.00000000</c><c>  PAW_PBE Pb 08Apr2002                  </c></rc>
   </set>
  </array>
 </atominfo>
 <structure name="initialpos" >
  <crystal>
   <varray name="basis" >
    <v>      18.06080055       0.00000000       0.00000000 </v>
    <v>      -0.00491865      18.06279945       0.00000000 </v>
    <v>       0.00000000       0.00000000      62.48749924 </v>
   </varray>
   <i name="volume">  20385.21054034 </i>
   <varray name="rec_basis" >
    <v>       0.05536853       0.00001508      -0.00000000 </v>
    <v>       0.00000000       0.05536240       0.00000000 </v>
    <v>       0.00000000      -0.00000000       0.01600320 </v>
   </varray>
  </crystal>
  <varray name="positions" >
   <v>       0.44733913       0.30304944       0.58143594 </v>
   <v>       0.44551522       0.83712294       0.57797064 </v>
   <v>       0.94483548       0.26517176       0.58554894 </v>
   <v>       0.96561707       0.80576633       0.58662417 </v>
   <v>       0.30031058       0.04477820       0.58266262 </v>
   <v>       0.30503130       0.55518553       0.58264370 </v>
   <v>       0.77565784       0.06819475       0.58185967 </v>
   <v>       0.10616457       0.20196349       0.55440959 </v>
   <v>       0.08624234       0.68017385       0.55779754 </v>
   <v>       0.57644238       0.17899653       0.55806829 </v>
   <v>       0.52731367       0.65700263       0.56670539 </v>
   <v>       0.35841317       0.03582567       0.56034431 </v>
   <v>       0.30222583       0.60360673       0.55892057 </v>
   <v>       0.84103935       0.06706797       0.56146936 </v>
   <v>       0.07237333       0.20724332       0.58076857 </v>
   <v>       0.04235109       0.69181495       0.58235934 </v>
   <v>       0.56127292       0.23168904       0.57989357 </v>
   <v>       0.49954879       0.71312648       0.58733183 </v>
   <v>       0.23131778       0.43610493       0.58297476 </v>
   <v>       0.17630169       0.98200653       0.58029203 </v>
   <v>       0.68242674       0.96817072       0.58126842 </v>
   <v>       0.38399213       0.29061635       0.56074607 </v>
   <v>       0.44767404       0.86041644       0.55103648 </v>
   <v>       0.89989017       0.28421510       0.56134073 </v>
   <v>       0.96018768       0.86540561       0.56467092 </v>
   <v>       0.18752421       0.41229766       0.55918844 </v>
   <v>       0.15621226       0.94103576       0.55590422 </v>
   <v>       0.68999304       0.90196459       0.56017070 </v>
   <v>       0.46204965       0.21070315       0.54284558 </v>
   <v>       0.50000329       0.75062040       0.54052217 </v>
   <v>       0.99847565       0.24927979       0.53983502 </v>
   <v>       0.03848492       0.78875650       0.54391964 </v>
   <v>       0.22739767       0.51591882       0.54155729 </v>
   <v>       0.27055755       0.96991390       0.54106043 </v>
   <v>       0.78977335       0.96143887       0.54540102 </v>
   <v>       0.45341612       0.30787175       0.67612034 </v>
   <v>       0.43844282       0.81736155       0.67307646 </v>
   <v>       0.95901395       0.28546926       0.67939388 </v>
   <v>       0.93789615       0.80398990       0.67483444 </v>
   <v>       0.30550488       0.05230563       0.67389272 </v>
   <v>       0.29576138       0.55338714       0.67670011 </v>
   <v>       0.80814527       0.05033966       0.67573806 </v>
   <v>       0.83575415       0.53629224       0.67169935 </v>
   <v>       0.08397140       0.17169230       0.64670119 </v>
   <v>       0.09234291       0.68728195       0.65468173 </v>
   <v>       0.57008043       0.16319729       0.65179315 </v>
   <v>       0.56872558       0.67016620       0.65842680 </v>
   <v>       0.18539751       0.41080459       0.64842877 </v>
   <v>       0.17009394       0.92054698       0.65254342 </v>
   <v>       0.65941799       0.44755562       0.65579615 </v>
   <v>       0.66530678       0.93388964       0.65103494 </v>
   <v>       0.06338145       0.18824741       0.67341234 </v>
   <v>       0.04420765       0.70133264       0.67820816 </v>
   <v>       0.55506486       0.20205689       0.67633694 </v>
   <v>       0.53229503       0.71198642       0.68139685 </v>
   <v>       0.20722256       0.43831404       0.67424564 </v>
   <v>       0.20303015       0.95267779       0.67707115 </v>
   <v>       0.72249400       0.44856596       0.67708928 </v>
   <v>       0.69592799       0.96085513       0.67622406 </v>
   <v>       0.41412461       0.32367288       0.65136606 </v>
   <v>       0.42595203       0.83616577       0.64611721 </v>
   <v>       0.92185087       0.32164445       0.65576068 </v>
   <v>       0.92898022       0.83984509       0.64960503 </v>
   <v>       0.33027472       0.07600300       0.64799411 </v>
   <v>       0.32359805       0.58841297       0.65184168 </v>
   <v>       0.84075294       0.07304641       0.65039016 </v>
   <v>       0.83973128       0.57711273       0.64651334 </v>
   <v>       0.99573797       0.25478748       0.63388863 </v>
   <v>       0.02649219       0.77485639       0.63518851 </v>
   <v>       0.48293504       0.23570653       0.63405925 </v>
   <v>       0.50740243       0.74531856       0.63489090 </v>
   <v>       0.24880748       0.99513679       0.63233613 </v>
   <v>       0.25468559       0.50155394       0.63233326 </v>
   <v>       0.75575404       0.00198796       0.63279392 </v>
   <v>       0.73238113       0.52743152       0.63504279 </v>
   <v>       0.44874502       0.30128397       0.76888902 </v>
   <v>       0.44874501       0.80128391       0.76888902 </v>
   <v>       0.94874497       0.30128397       0.76888902 </v>
   <v>       0.94874501       0.80128391       0.76888902 </v>
   <v>       0.30127600       0.05129450       0.76887296 </v>
   <v>       0.30127601       0.55129450       0.76887296 </v>
   <v>       0.80127594       0.05129450       0.76887296 </v>
   <v>       0.80127598       0.55129450       0.76887296 </v>
   <v>       0.07877100       0.17118050       0.74344197 </v>
   <v>       0.07877101       0.67118045       0.74344197 </v>
   <v>       0.57877100       0.17118050       0.74344197 </v>
   <v>       0.57877099       0.67118045       0.74344197 </v>
   <v>       0.17119950       0.42117448       0.74342103 </v>
   <v>       0.17119950       0.92117451       0.74342103 </v>
   <v>       0.67119951       0.42117448       0.74342103 </v>
   <v>       0.67119950       0.92117451       0.74342103 </v>
   <v>       0.05125600       0.19871499       0.76888902 </v>
   <v>       0.05125600       0.69871493       0.76888902 </v>
   <v>       0.55125603       0.19871499       0.76888902 </v>
   <v>       0.55125602       0.69871493       0.76888902 </v>
   <v>       0.19872349       0.44870397       0.76887205 </v>
   <v>       0.19872349       0.94870397       0.76887205 </v>
   <v>       0.69872352       0.44870397       0.76887205 </v>
   <v>       0.69872351       0.94870397       0.76887205 </v>
   <v>       0.42123152       0.32881747       0.74344197 </v>
   <v>       0.42123151       0.82881744       0.74344197 </v>
   <v>       0.92123147       0.32881747       0.74344197 </v>
   <v>       0.92123151       0.82881744       0.74344197 </v>
   <v>       0.32880050       0.07882500       0.74342103 </v>
   <v>       0.32880049       0.57882496       0.74342103 </v>
   <v>       0.82880048       0.07882500       0.74342103 </v>
   <v>       0.82880052       0.57882496       0.74342103 </v>
   <v>       0.00000350       0.25000148       0.72582199 </v>
   <v>       0.00000350       0.75000145       0.72582199 </v>
   <v>       0.50000351       0.25000148       0.72582199 </v>
   <v>       0.50000350       0.75000145       0.72582199 </v>
   <v>       0.25000050       0.00000000       0.72580398 </v>
   <v>       0.25000052       0.50000000       0.72580398 </v>
   <v>       0.75000050       0.00000000       0.72580398 </v>
   <v>       0.75000049       0.50000000       0.72580398 </v>
   <v>       0.71623021       0.44634983       0.54459739 </v>
   <v>       0.73836882       0.50522703       0.52291221 </v>
   <v>       0.64733160       0.54072994       0.56058081 </v>
   <v>       0.68619418       0.63364772       0.56308717 </v>
   <v>       0.83394474       0.50706476       0.57640502 </v>
   <v>       0.77139155       0.57279246       0.58684528 </v>
   <v>       0.86497892       0.55904721       0.53949847 </v>
   <v>       0.80207579       0.61892202       0.52844359 </v>
   <v>       0.86878019       0.48107625       0.52359746 </v>
   <v>       0.86419221       0.44353645       0.54940463 </v>
   <v>       0.88525716       0.34902434       0.52459485 </v>
   <v>       0.79772073       0.33282695       0.53567855 </v>
   <v>       0.61982215       0.54666456       0.52554970 </v>
   <v>       0.68896536       0.61541800       0.51840270 </v>
   <v>       0.60743479       0.64064410       0.53238841 </v>
   <v>       0.74037049       0.45033980       0.60070957 </v>
   <v>       0.74145197       0.40752123       0.57577752 </v>
   <v>       0.66900678       0.47018149       0.58243589 </v>
   <v>       0.83348653       0.67874388       0.57067444 </v>
   <v>       0.87599149       0.70299962       0.54591900 </v>
   <v>       0.91633456       0.63471878       0.56253256 </v>
   <v>       0.83248957       0.39864150       0.49187692 </v>
   <v>       0.80064617       0.30920880       0.49757407 </v>
   <v>       0.66991182       0.31481837       0.52200077 </v>
   <v>       0.74788396       0.48293298       0.47819541 </v>
   <v>       0.54191335       0.36550295       0.51885213 </v>
   <v>       0.61993234       0.53287581       0.47537108 </v>
   <v>       0.51600128       0.47524907       0.49673967 </v>
   <v>       0.00243083       0.24417673       0.55696076 </v>
   <v>       0.02326464       0.77332806       0.56002723 </v>
   <v>       0.47974700       0.23385544       0.55812140 </v>
   <v>       0.49016609       0.75951671       0.55758107 </v>
   <v>       0.24413964       0.50843987       0.55818281 </v>
   <v>       0.25754098       0.98786774       0.55729390 </v>
   <v>       0.76574032       0.98479510       0.55991308 </v>
   <v>       0.00288653       0.24679024       0.65106058 </v>
   <v>       0.01194182       0.76339998       0.65173375 </v>
   <v>       0.49181086       0.24332880       0.65121039 </v>
   <v>       0.49829074       0.75322480       0.65186170 </v>
   <v>       0.25487716       0.49990834       0.64970069 </v>
   <v>       0.24953884       0.99787836       0.64983017 </v>
   <v>       0.75065266       0.51316891       0.65072201 </v>
   <v>       0.75269322       0.00309290       0.65028345 </v>
   <v>       0.49998898       0.24999498       0.74327702 </v>
   <v>       0.49998903       0.74999496       0.74327702 </v>
   <v>       0.99998898       0.24999498       0.74327702 </v>
   <v>       0.99998903       0.74999496       0.74327702 </v>
   <v>       0.25000050       0.00000100       0.74325596 </v>
   <v>       0.25000052       0.50000100       0.74325596 </v>
   <v>       0.75000050       0.00000100       0.74325596 </v>
   <v>       0.75000049       0.50000100       0.74325596 </v>
   <v>       0.71828375       0.39500971       0.50034837 </v>
   <v>       0.65855057       0.36256961       0.51155721 </v>
   <v>       0.70228795       0.45563018       0.48697472 </v>
   <v>       0.58670075       0.39094925       0.50977811 </v>
   <v>       0.63000359       0.48490461       0.48549512 </v>
   <v>       0.57156565       0.45175415       0.49706039 </v>
   <v>       0.75828539       0.48399295       0.53813711 </v>
   <v>       0.68321184       0.58285285       0.55310306 </v>
   <v>       0.77656979       0.52494090       0.57594759 </v>
   <v>       0.82216900       0.59809808       0.54388784 </v>
   <v>       0.83376176       0.44746639       0.53436133 </v>
   <v>       0.82845727       0.36971655       0.52486536 </v>
   <v>       0.64919238       0.59688901       0.53104597 </v>
   <v>       0.72843775       0.46049512       0.58374475 </v>
   <v>       0.86254390       0.65641800       0.55668153 </v>
   <v>       0.79572172       0.36743846       0.50245700 </v>
   <v>       0.06329191       0.21635922       0.56463802 </v>
   <v>       0.05210582       0.71088147       0.56742459 </v>
   <v>       0.54171243       0.21153385       0.56617098 </v>
   <v>       0.50989058       0.70884628       0.57141141 </v>
   <v>       0.43518481       0.28112865       0.56730707 </v>
   <v>       0.45929534       0.82310341       0.56241254 </v>
   <v>       0.94592940       0.26607893       0.56906737 </v>
   <v>       0.97840258       0.81615386       0.57127509 </v>
   <v>       0.21934196       0.44715161       0.56709902 </v>
   <v>       0.19269644       0.96911912       0.56483960 </v>
   <v>       0.70734603       0.94985826       0.56738210 </v>
   <v>       0.30895444       0.02586756       0.56726495 </v>
   <v>       0.28549809       0.55882419       0.56710928 </v>
   <v>       0.79753442       0.04248603       0.56845543 </v>
   <v>       0.05253851       0.20032298       0.65756774 </v>
   <v>       0.05061971       0.71485861       0.66225758 </v>
   <v>       0.54121393       0.20193375       0.66040510 </v>
   <v>       0.53538701       0.70857009       0.66466669 </v>
   <v>       0.21398801       0.44628668       0.65811686 </v>
   <v>       0.20452343       0.95431669       0.66062438 </v>
   <v>       0.70890326       0.46658470       0.66185229 </v>
   <v>       0.70144494       0.96314002       0.65991648 </v>
   <v>       0.45096271       0.29466907       0.66038910 </v>
   <v>       0.45147912       0.80517077       0.65755956 </v>
   <v>       0.95761304       0.28786728       0.66324667 </v>
   <v>       0.95642086       0.80311214       0.65918727 </v>
   <v>       0.29805137       0.04473645       0.65792072 </v>
   <v>       0.29177755       0.54877668       0.66031164 </v>
   <v>       0.80361831       0.04451181       0.65955843 </v>
   <v>       0.81326563       0.54359622       0.65694145 </v>
   <v>       0.04586250       0.20411950       0.75272599 </v>
   <v>       0.04586250       0.70411946       0.75272599 </v>
   <v>       0.54586251       0.20411950       0.75272599 </v>
   <v>       0.54586250       0.70411946       0.75272599 </v>
   <v>       0.20411900       0.45410100       0.75270499 </v>
   <v>       0.20411899       0.95410095       0.75270499 </v>
   <v>       0.70411898       0.45410100       0.75270499 </v>
   <v>       0.70411896       0.95410095       0.75270499 </v>
   <v>       0.45414002       0.29588849       0.75272697 </v>
   <v>       0.45414001       0.79588852       0.75272697 </v>
   <v>       0.95414002       0.29588849       0.75272697 </v>
[...]
   <v>       0.57644238       0.17899653       0.55806829 </v>
   <v>       0.52731367       0.65700263       0.56670539 </v>
   <v>       0.35841317       0.03582567       0.56034431 </v>
   <v>       0.30222583       0.60360673       0.55892057 </v>
   <v>       0.84103935       0.06706797       0.56146936 </v>
   <v>       0.07237333       0.20724332       0.58076857 </v>
   <v>       0.04235109       0.69181495       0.58235934 </v>
   <v>       0.56127292       0.23168904       0.57989357 </v>
   <v>       0.49954879       0.71312648       0.58733183 </v>
   <v>       0.23131778       0.43610493       0.58297476 </v>
   <v>       0.17630169       0.98200653       0.58029203 </v>
   <v>       0.68242674       0.96817072       0.58126842 </v>
   <v>       0.38399213       0.29061635       0.56074607 </v>
   <v>       0.44767404       0.86041644       0.55103648 </v>
   <v>       0.89989017       0.28421510       0.56134073 </v>
   <v>       0.96018768       0.86540561       0.56467092 </v>
   <v>       0.18752421       0.41229766       0.55918844 </v>
   <v>       0.15621226       0.94103576       0.55590422 </v>
   <v>       0.68999304       0.90196459       0.56017070 </v>
   <v>       0.46204965       0.21070315       0.54284558 </v>
   <v>       0.50000329       0.75062040       0.54052217 </v>
   <v>       0.99847565       0.24927979       0.53983502 </v>
   <v>       0.03848492       0.78875650       0.54391964 </v>
   <v>       0.22739767       0.51591882       0.54155729 </v>
   <v>       0.27055755       0.96991390       0.54106043 </v>
   <v>       0.78977335       0.96143887       0.54540102 </v>
   <v>       0.45341612       0.30787175       0.67612034 </v>
   <v>       0.43844282       0.81736155       0.67307646 </v>
   <v>       0.95901395       0.28546926       0.67939388 </v>
   <v>       0.93789615       0.80398990       0.67483444 </v>
   <v>       0.30550488       0.05230563       0.67389272 </v>
   <v>       0.29576138       0.55338714       0.67670011 </v>
   <v>       0.80814527       0.05033966       0.67573806 </v>
   <v>       0.83575415       0.53629224       0.67169935 </v>
   <v>       0.08397140       0.17169230       0.64670119 </v>
   <v>       0.09234291       0.68728195       0.65468173 </v>
   <v>       0.57008043       0.16319729       0.65179315 </v>
   <v>       0.56872558       0.67016620       0.65842680 </v>
   <v>       0.18539751       0.41080459       0.64842877 </v>
   <v>       0.17009394       0.92054698       0.65254342 </v>
   <v>       0.65941799       0.44755562       0.65579615 </v>
   <v>       0.66530678       0.93388964       0.65103494 </v>
   <v>       0.06338145       0.18824741       0.67341234 </v>
   <v>       0.04420765       0.70133264       0.67820816 </v>
   <v>       0.55506486       0.20205689       0.67633694 </v>
   <v>       0.53229503       0.71198642       0.68139685 </v>
   <v>       0.20722256       0.43831404       0.67424564 </v>
   <v>       0.20303015       0.95267779       0.67707115 </v>
   <v>       0.72249400       0.44856596       0.67708928 </v>
   <v>       0.69592799       0.96085513       0.67622406 </v>
   <v>       0.41412461       0.32367288       0.65136606 </v>
   <v>       0.42595203       0.83616577       0.64611721 </v>
   <v>       0.92185087       0.32164445       0.65576068 </v>
   <v>       0.92898022       0.83984509       0.64960503 </v>
   <v>       0.33027472       0.07600300       0.64799411 </v>
   <v>       0.32359805       0.58841297       0.65184168 </v>
   <v>       0.84075294       0.07304641       0.65039016 </v>
   <v>       0.83973128       0.57711273       0.64651334 </v>
   <v>       0.99573797       0.25478748       0.63388863 </v>
   <v>       0.02649219       0.77485639       0.63518851 </v>
   <v>       0.48293504       0.23570653       0.63405925 </v>
   <v>       0.50740243       0.74531856       0.63489090 </v>
   <v>       0.24880748       0.99513679       0.63233613 </v>
   <v>       0.25468559       0.50155394       0.63233326 </v>
   <v>       0.75575404       0.00198796       0.63279392 </v>
   <v>       0.73238113       0.52743152       0.63504279 </v>
   <v>       0.44874502       0.30128397       0.76888902 </v>
   <v>       0.44874501       0.80128391       0.76888902 </v>
   <v>       0.94874497       0.30128397       0.76888902 </v>
   <v>       0.94874501       0.80128391       0.76888902 </v>
   <v>       0.30127600       0.05129450       0.76887296 </v>
   <v>       0.30127601       0.55129450       0.76887296 </v>
   <v>       0.80127594       0.05129450       0.76887296 </v>
   <v>       0.80127598       0.55129450       0.76887296 </v>
   <v>       0.07877100       0.17118050       0.74344197 </v>
   <v>       0.07877101       0.67118045       0.74344197 </v>
   <v>       0.57877100       0.17118050       0.74344197 </v>
   <v>       0.57877099       0.67118045       0.74344197 </v>
   <v>       0.17119950       0.42117448       0.74342103 </v>
   <v>       0.17119950       0.92117451       0.74342103 </v>
   <v>       0.67119951       0.42117448       0.74342103 </v>
   <v>       0.67119950       0.92117451       0.74342103 </v>
   <v>       0.05125600       0.19871499       0.76888902 </v>
   <v>       0.05125600       0.69871493       0.76888902 </v>
   <v>       0.55125603       0.19871499       0.76888902 </v>
   <v>       0.55125602       0.69871493       0.76888902 </v>
   <v>       0.19872349       0.44870397       0.76887205 </v>
   <v>       0.19872349       0.94870397       0.76887205 </v>
   <v>       0.69872352       0.44870397       0.76887205 </v>
   <v>       0.69872351       0.94870397       0.76887205 </v>
   <v>       0.42123152       0.32881747       0.74344197 </v>
   <v>       0.42123151       0.82881744       0.74344197 </v>
   <v>       0.92123147       0.32881747       0.74344197 </v>
   <v>       0.92123151       0.82881744       0.74344197 </v>
   <v>       0.32880050       0.07882500       0.74342103 </v>
   <v>       0.32880049       0.57882496       0.74342103 </v>
   <v>       0.82880048       0.07882500       0.74342103 </v>
   <v>       0.82880052       0.57882496       0.74342103 </v>
   <v>       0.00000350       0.25000148       0.72582199 </v>
   <v>       0.00000350       0.75000145       0.72582199 </v>
   <v>       0.50000351       0.25000148       0.72582199 </v>
   <v>       0.50000350       0.75000145       0.72582199 </v>
   <v>       0.25000050       0.00000000       0.72580398 </v>
   <v>       0.25000052       0.50000000       0.72580398 </v>
   <v>       0.75000050       0.00000000       0.72580398 </v>
   <v>       0.75000049       0.50000000       0.72580398 </v>
   <v>       0.71623021       0.44634983       0.54459739 </v>
   <v>       0.73836882       0.50522703       0.52291221 </v>
   <v>       0.64733160       0.54072994       0.56058081 </v>
   <v>       0.68619418       0.63364772       0.56308717 </v>
   <v>       0.83394474       0.50706476       0.57640502 </v>
   <v>       0.77139155       0.57279246       0.58684528 </v>
   <v>       0.86497892       0.55904721       0.53949847 </v>
   <v>       0.80207579       0.61892202       0.52844359 </v>
   <v>       0.86878019       0.48107625       0.52359746 </v>
   <v>       0.86419221       0.44353645       0.54940463 </v>
   <v>       0.88525716       0.34902434       0.52459485 </v>
   <v>       0.79772073       0.33282695       0.53567855 </v>
   <v>       0.61982215       0.54666456       0.52554970 </v>
   <v>       0.68896536       0.61541800       0.51840270 </v>
   <v>       0.60743479       0.64064410       0.53238841 </v>
   <v>       0.74037049       0.45033980       0.60070957 </v>
   <v>       0.74145197       0.40752123       0.57577752 </v>
   <v>       0.66900678       0.47018149       0.58243589 </v>
   <v>       0.83348653       0.67874388       0.57067444 </v>
   <v>       0.87599149       0.70299962       0.54591900 </v>
   <v>       0.91633456       0.63471878       0.56253256 </v>
   <v>       0.83248957       0.39864150       0.49187692 </v>
   <v>       0.80064617       0.30920880       0.49757407 </v>
   <v>       0.66991182       0.31481837       0.52200077 </v>
   <v>       0.74788396       0.48293298       0.47819541 </v>
   <v>       0.54191335       0.36550295       0.51885213 </v>
   <v>       0.61993234       0.53287581       0.47537108 </v>
   <v>       0.51600128       0.47524907       0.49673967 </v>
   <v>       0.00243083       0.24417673       0.55696076 </v>
   <v>       0.02326464       0.77332806       0.56002723 </v>
   <v>       0.47974700       0.23385544       0.55812140 </v>
   <v>       0.49016609       0.75951671       0.55758107 </v>
   <v>       0.24413964       0.50843987       0.55818281 </v>
   <v>       0.25754098       0.98786774       0.55729390 </v>
   <v>       0.76574032       0.98479510       0.55991308 </v>
   <v>       0.00288653       0.24679024       0.65106058 </v>
   <v>       0.01194182       0.76339998       0.65173375 </v>
   <v>       0.49181086       0.24332880       0.65121039 </v>
   <v>       0.49829074       0.75322480       0.65186170 </v>
   <v>       0.25487716       0.49990834       0.64970069 </v>
   <v>       0.24953884       0.99787836       0.64983017 </v>
   <v>       0.75065266       0.51316891       0.65072201 </v>
   <v>       0.75269322       0.00309290       0.65028345 </v>
   <v>       0.49998898       0.24999498       0.74327702 </v>
   <v>       0.49998903       0.74999496       0.74327702 </v>
   <v>       0.99998898       0.24999498       0.74327702 </v>
   <v>       0.99998903       0.74999496       0.74327702 </v>
   <v>       0.25000050       0.00000100       0.74325596 </v>
   <v>       0.25000052       0.50000100       0.74325596 </v>
   <v>       0.75000050       0.00000100       0.74325596 </v>
   <v>       0.75000049       0.50000100       0.74325596 </v>
   <v>       0.71828375       0.39500971       0.50034837 </v>
   <v>       0.65855057       0.36256961       0.51155721 </v>
   <v>       0.70228795       0.45563018       0.48697472 </v>
   <v>       0.58670075       0.39094925       0.50977811 </v>
   <v>       0.63000359       0.48490461       0.48549512 </v>
   <v>       0.57156565       0.45175415       0.49706039 </v>
   <v>       0.75828539       0.48399295       0.53813711 </v>
   <v>       0.68321184       0.58285285       0.55310306 </v>
   <v>       0.77656979       0.52494090       0.57594759 </v>
   <v>       0.82216900       0.59809808       0.54388784 </v>
   <v>       0.83376176       0.44746639       0.53436133 </v>
   <v>       0.82845727       0.36971655       0.52486536 </v>
   <v>       0.64919238       0.59688901       0.53104597 </v>
   <v>       0.72843775       0.46049512       0.58374475 </v>
   <v>       0.86254390       0.65641800       0.55668153 </v>
   <v>       0.79572172       0.36743846       0.50245700 </v>
   <v>       0.06329191       0.21635922       0.56463802 </v>
   <v>       0.05210582       0.71088147       0.56742459 </v>
   <v>       0.54171243       0.21153385       0.56617098 </v>
   <v>       0.50989058       0.70884628       0.57141141 </v>
   <v>       0.43518481       0.28112865       0.56730707 </v>
   <v>       0.45929534       0.82310341       0.56241254 </v>
   <v>       0.94592940       0.26607893       0.56906737 </v>
   <v>       0.97840258       0.81615386       0.57127509 </v>
   <v>       0.21934196       0.44715161       0.56709902 </v>
   <v>       0.19269644       0.96911912       0.56483960 </v>
   <v>       0.70734603       0.94985826       0.56738210 </v>
   <v>       0.30895444       0.02586756       0.56726495 </v>
   <v>       0.28549809       0.55882419       0.56710928 </v>
   <v>       0.79753442       0.04248603       0.56845543 </v>
   <v>       0.05253851       0.20032298       0.65756774 </v>
   <v>       0.05061971       0.71485861       0.66225758 </v>
   <v>       0.54121393       0.20193375       0.66040510 </v>
   <v>       0.53538701       0.70857009       0.66466669 </v>
   <v>       0.21398801       0.44628668       0.65811686 </v>
   <v>       0.20452343       0.95431669       0.66062438 </v>
   <v>       0.70890326       0.46658470       0.66185229 </v>
   <v>       0.70144494       0.96314002       0.65991648 </v>
   <v>       0.45096271       0.29466907       0.66038910 </v>
   <v>       0.45147912       0.80517077       0.65755956 </v>
   <v>       0.95761304       0.28786728       0.66324667 </v>
   <v>       0.95642086       0.80311214       0.65918727 </v>
   <v>       0.29805137       0.04473645       0.65792072 </v>
   <v>       0.29177755       0.54877668       0.66031164 </v>
   <v>       0.80361831       0.04451181       0.65955843 </v>
   <v>       0.81326563       0.54359622       0.65694145 </v>
   <v>       0.04586250       0.20411950       0.75272599 </v>
   <v>       0.04586250       0.70411946       0.75272599 </v>
   <v>       0.54586251       0.20411950       0.75272599 </v>
   <v>       0.54586250       0.70411946       0.75272599 </v>
   <v>       0.20411900       0.45410100       0.75270499 </v>
   <v>       0.20411899       0.95410095       0.75270499 </v>
   <v>       0.70411898       0.45410100       0.75270499 </v>
   <v>       0.70411896       0.95410095       0.75270499 </v>
   <v>       0.45414002       0.29588849       0.75272697 </v>
   <v>       0.45414001       0.79588852       0.75272697 </v>
   <v>       0.95414002       0.29588849       0.75272697 </v>
   <v>       0.95414006       0.79588852       0.75272697 </v>
   <v>       0.29588249       0.04590050       0.75270499 </v>
   <v>       0.29588248       0.54590053       0.75270499 </v>
   <v>       0.79588244       0.04590050       0.75270499 </v>
   <v>       0.79588248       0.54590053       0.75270499 </v>
   <v>       0.76235915       0.54880878       0.55315831 </v>
   <v>       0.48777133       0.01548686       0.55155337 </v>
   <v>       0.48251583       0.51838215       0.55635975 </v>
   <v>       0.98737659       0.00648121       0.55278219 </v>
   <v>       0.03019709       0.50631925       0.55547072 </v>
   <v>       0.24997177       0.24816686       0.55165221 </v>
   <v>       0.25251141       0.75128407       0.55283488 </v>
   <v>       0.73716457       0.21823267       0.55923099 </v>
   <v>       0.71867456       0.78245229       0.54604495 </v>
   <v>       0.00194299       0.00447542       0.65476695 </v>
   <v>       0.01639077       0.49702717       0.65619588 </v>
   <v>       0.49860599       0.99710270       0.65423150 </v>
   <v>       0.50032616       0.48972778       0.65544634 </v>
   <v>       0.25402646       0.24460748       0.65342391 </v>
   <v>       0.25515946       0.75432115       0.65492298 </v>
   <v>       0.73995754       0.25597683       0.65676069 </v>
   <v>       0.75642002       0.75397205       0.65399433 </v>
   <v>       0.14384843       0.10807990       0.60759223 </v>
   <v>       0.14665259       0.61163911       0.60981313 </v>
   <v>       0.64430874       0.10461802       0.61002484 </v>
   <v>       0.61914503       0.63267820       0.61529348 </v>
   <v>       0.35454872       0.39279735       0.60785589 </v>
   <v>       0.36635989       0.88884267       0.60766158 </v>
   <v>       0.88031586       0.37229659       0.61363311 </v>
   <v>       0.86056360       0.89526118       0.60941010 </v>
   <v>       0.11438447       0.35435791       0.60799734 </v>
   <v>       0.11535336       0.86771810       0.60906823 </v>
   <v>       0.58758597       0.34140267       0.60868870 </v>
   <v>       0.60896442       0.86328785       0.60961131 </v>
   <v>       0.38856112       0.14132844       0.60948653 </v>
   <v>       0.38335267       0.63647456       0.61286056 </v>
   <v>       0.88493537       0.13823798       0.61279377 </v>
   <v>       0.91538301       0.65052155       0.61622732 </v>
   <v>       0.00000000       0.00000000       0.75492797 </v>
   <v>       0.00000000       0.50000000       0.75492797 </v>
   <v>       0.50000000       0.00000000       0.75492797 </v>
   <v>       0.49999999       0.50000000       0.75492797 </v>
   <v>       0.25000050       0.25000000       0.75493902 </v>
   <v>       0.25000051       0.74999997       0.75493902 </v>
   <v>       0.75000047       0.25000000       0.75493902 </v>
   <v>       0.75000046       0.74999997       0.75493902 </v>
   <v>       0.13579050       0.11421000       0.70478299 </v>
   <v>       0.13579050       0.61420998       0.70478299 </v>
   <v>       0.63579045       0.11421000       0.70478299 </v>
   <v>       0.63579049       0.61420998       0.70478299 </v>
   <v>       0.36420952       0.38578999       0.70478299 </v>
   <v>       0.36420950       0.88578996       0.70478299 </v>
   <v>       0.86420954       0.38578999       0.70478299 </v>
   <v>       0.86420953       0.88578996       0.70478299 </v>
   <v>       0.11421799       0.36421899       0.70478098 </v>
   <v>       0.11421799       0.86421899       0.70478098 </v>
   <v>       0.61421800       0.36421899       0.70478098 </v>
   <v>       0.61421799       0.86421899       0.70478098 </v>
   <v>       0.38578201       0.13578149       0.70478202 </v>
   <v>       0.38578200       0.63578149       0.70478202 </v>
   <v>       0.88578199       0.13578149       0.70478202 </v>
   <v>       0.88578203       0.63578149       0.70478202 </v>
   <v>       0.13466700       0.11533200       0.80125603 </v>
   <v>       0.13466699       0.61533199       0.80125603 </v>
   <v>       0.63466699       0.11533200       0.80125603 </v>
   <v>       0.63466698       0.61533199       0.80125603 </v>
   <v>       0.36533300       0.38466799       0.80125603 </v>
   <v>       0.36533299       0.88466796       0.80125603 </v>
   <v>       0.86533295       0.38466799       0.80125603 </v>
   <v>       0.86533294       0.88466796       0.80125603 </v>
   <v>       0.11532850       0.36533700       0.80126500 </v>
   <v>       0.11532850       0.86533698       0.80126500 </v>
   <v>       0.61532850       0.36533700       0.80126500 </v>
   <v>       0.61532849       0.86533698       0.80126500 </v>
   <v>       0.38467151       0.13466300       0.80126500 </v>
   <v>       0.38467150       0.63466297       0.80126500 </v>
   <v>       0.88467149       0.13466300       0.80126500 </v>
   <v>       0.88467153       0.63466297       0.80126500 </v>
   <v>       0.99519189       0.00530713       0.60418481 </v>
   <v>       0.00739015       0.50223577       0.60547749 </v>
   <v>       0.50052136       0.00690032       0.60329926 </v>
   <v>       0.49788599       0.50095390       0.60451611 </v>
   <v>       0.24946462       0.24748279       0.60291747 </v>
   <v>       0.25264483       0.75249366       0.60304426 </v>
   <v>       0.74577249       0.25251375       0.60737930 </v>
   <v>       0.74238303       0.76051252       0.60385155 </v>
   <v>       0.00000050       0.00000050       0.70482896 </v>
   <v>       0.00000050       0.50000048       0.70482896 </v>
   <v>       0.50000048       0.00000050       0.70482896 </v>
   <v>       0.50000046       0.50000048       0.70482896 </v>
   <v>       0.24999999       0.24999947       0.70482499 </v>
   <v>       0.25000001       0.74999950       0.70482499 </v>
   <v>       0.74999999       0.24999947       0.70482499 </v>
   <v>       0.74999998       0.74999950       0.70482499 </v>
   <v>       0.00000000       0.00000000       0.80731797 </v>
   <v>       0.00000000       0.50000000       0.80731797 </v>
   <v>       0.50000000       0.00000000       0.80731797 </v>
   <v>       0.49999999       0.50000000       0.80731797 </v>
   <v>       0.24999999       0.25000000       0.80731797 </v>
   <v>       0.25000001       0.74999997       0.80731797 </v>
   <v>       0.74999999       0.25000000       0.80731797 </v>
   <v>       0.74999998       0.74999997       0.80731797 </v>
  </varray>
 </structure>
</modeling>
