<?xml version="1.0" encoding="ISO-8859-1"?>
<modeling>
 <generator>
  <i name="program" type="string">vasp </i>
  <i name="version" type="string">6.2.1  </i>
  <i name="subversion" type="string">16May21 (build Nov 15 2021 14:57:28) complex                          parallel </i>
  <i name="platform" type="string">LinuxPGI </i>
  <i name="date" type="string">2023 07 30 </i>
  <i name="time" type="string">15:23:17 </i>
 </generator>
 <incar>
  <i type="string" name="SYSTEM">PSC</i>
  <i type="int" name="ISTART">     1</i>
  <i type="string" name="PREC">Normal</i>
  <i name="BMIX">      0.01000000</i>
  <i name="AMIN">      0.01000000</i>
  <i type="int" name="ICHARG">     1</i>
  <i type="int" name="NELM">   600</i>
  <i type="int" name="ISYM">     0</i>
  <i name="ENCUT">    500.00000000</i>
  <i type="string" name="LREAL">Auto</i>
  <i type="int" name="ISMEAR">     0</i>
  <i name="SIGMA">      0.05000000</i>
  <i type="logical" name="LWAVE"> F  </i>
  <i type="logical" name="LVTOT"> T  </i>
  <i type="logical" name="GGA_COMPAT"> F  </i>
  <i type="logical" name="LDIPOL"> T  </i>
  <i type="int" name="IDIPOL">     3</i>
  <i type="int" name="IVDW">    12</i>
 </incar>
 <primitive_cell>
  <structure name="primitive_cell" >
   <crystal>
    <varray name="basis" >
     <v>      18.06080055       0.00000000       0.00000000 </v>
     <v>      -0.00491865      18.06279945       0.00000000 </v>
     <v>       0.00000000       0.00000000      62.48749924 </v>
    </varray>
    <i name="volume">  20385.21054034 </i>
    <varray name="rec_basis" >
     <v>       0.05536853       0.00001508      -0.00000000 </v>
     <v>       0.00000000       0.05536240       0.00000000 </v>
     <v>       0.00000000      -0.00000000       0.01600320 </v>
    </varray>
   </crystal>
   <varray name="positions" >
    <v>       0.40430067       0.28442616       0.55872424 </v>
    <v>       0.41812754       0.69845606       0.57070479 </v>
    <v>       0.92258085       0.29251744       0.57824383 </v>
    <v>       0.92289190       0.81267739       0.57309784 </v>
    <v>       0.31943229       0.09136815       0.56161282 </v>
    <v>       0.32792516       0.56618900       0.56602361 </v>
    <v>       0.79106654       0.10696805       0.56306404 </v>
    <v>       0.10715276       0.24003604       0.56120533 </v>
    <v>       0.07851137       0.68597484       0.56833200 </v>
    <v>       0.57966568       0.18543641       0.56478923 </v>
    <v>       0.59948079       0.77524213       0.56001808 </v>
    <v>       0.38038656       0.02008233       0.55464231 </v>
    <v>       0.25790354       0.61950971       0.55454536 </v>
    <v>       0.87163603       0.05690739       0.55652800 </v>
    <v>       0.06066422       0.29092041       0.58077766 </v>
    <v>       0.99154590       0.69358885       0.58044453 </v>
    <v>       0.48477849       0.17242171       0.56889974 </v>
    <v>       0.55468039       0.70477077       0.57386582 </v>
    <v>       0.30207798       0.43232132       0.57143571 </v>
    <v>       0.18841243       0.05847260       0.56820844 </v>
    <v>       0.68053440       0.02724775       0.57325931 </v>
    <v>       0.45472919       0.36583489       0.55375346 </v>
    <v>       0.37450924       0.76017715       0.55358643 </v>
    <v>       0.88261450       0.24510594       0.55686321 </v>
    <v>       0.96698354       0.87448624       0.55598401 </v>
    <v>       0.22165176       0.39806609       0.56013523 </v>
    <v>       0.16259771       0.96824365       0.56278639 </v>
    <v>       0.69063029       0.93306244       0.56725750 </v>
    <v>       0.56824389       0.30696722       0.55505706 </v>
    <v>       0.48817391       0.81899485       0.54484946 </v>
    <v>       0.99833456       0.20429523       0.54410456 </v>
    <v>       0.06716734       0.79672990       0.55004764 </v>
    <v>       0.18188619       0.51534623       0.54880423 </v>
    <v>       0.28303985       0.93170337       0.55393281 </v>
    <v>       0.81161866       0.94361145       0.55710264 </v>
    <v>       0.45646633       0.30384471       0.67305155 </v>
    <v>       0.43839727       0.81394940       0.67055520 </v>
    <v>       0.95532340       0.28296681       0.67614940 </v>
    <v>       0.91027514       0.74842718       0.65869840 </v>
    <v>       0.29466134       0.04281589       0.67488370 </v>
    <v>       0.30193141       0.56273856       0.67234102 </v>
    <v>       0.79908465       0.05325539       0.67397855 </v>
    <v>       0.83397379       0.46656728       0.66373279 </v>
    <v>       0.09009881       0.17021837       0.64685008 </v>
    <v>       0.10624043       0.69744065       0.65551740 </v>
    <v>       0.57529476       0.16760216       0.64653996 </v>
    <v>       0.57646184       0.68008626       0.65131020 </v>
    <v>       0.18507799       0.41242936       0.65173283 </v>
    <v>       0.16292938       0.93247326       0.64358795 </v>
    <v>       0.63454824       0.48258035       0.65629710 </v>
    <v>       0.67236093       0.91687712       0.64991441 </v>
    <v>       0.06282685       0.18809228       0.67308323 </v>
    <v>       0.01920572       0.65619123       0.65684756 </v>
    <v>       0.54993137       0.19630409       0.67214805 </v>
    <v>       0.54489113       0.71791798       0.67518540 </v>
    <v>       0.21204397       0.45195963       0.67599690 </v>
    <v>       0.18290677       0.95525414       0.67018672 </v>
    <v>       0.70078115       0.42614760       0.66826519 </v>
    <v>       0.70303552       0.94655702       0.67514242 </v>
    <v>       0.43162618       0.33769854       0.64804948 </v>
    <v>       0.41324133       0.82902990       0.64396730 </v>
    <v>       0.92361363       0.31618799       0.65147527 </v>
    <v>       0.93637095       0.84125632       0.65638104 </v>
    <v>       0.34143882       0.06408445       0.65148748 </v>
    <v>       0.32307368       0.58628686       0.64600873 </v>
    <v>       0.82105856       0.08263203       0.64811150 </v>
    <v>       0.84924412       0.54303271       0.64760866 </v>
    <v>       0.00559943       0.24870408       0.63172804 </v>
    <v>       0.06089256       0.81659382       0.65406533 </v>
    <v>       0.50423664       0.25514178       0.62935604 </v>
    <v>       0.49560153       0.74496540       0.63019746 </v>
    <v>       0.26033428       0.99842411       0.62967215 </v>
    <v>       0.25244750       0.49386216       0.63121005 </v>
    <v>       0.74437594       0.99988084       0.63146956 </v>
    <v>       0.72277219       0.56166740       0.64141204 </v>
    <v>       0.44874502       0.30128397       0.76888902 </v>
    <v>       0.44874501       0.80128391       0.76888902 </v>
    <v>       0.94874497       0.30128397       0.76888902 </v>
    <v>       0.94874501       0.80128391       0.76888902 </v>
    <v>       0.30127600       0.05129450       0.76887296 </v>
    <v>       0.30127601       0.55129450       0.76887296 </v>
    <v>       0.80127594       0.05129450       0.76887296 </v>
    <v>       0.80127598       0.55129450       0.76887296 </v>
    <v>       0.07877100       0.17118050       0.74344197 </v>
    <v>       0.07877101       0.67118045       0.74344197 </v>
    <v>       0.57877100       0.17118050       0.74344197 </v>
    <v>       0.57877099       0.67118045       0.74344197 </v>
    <v>       0.17119950       0.42117448       0.74342103 </v>
    <v>       0.17119950       0.92117451       0.74342103 </v>
    <v>       0.67119951       0.42117448       0.74342103 </v>
    <v>       0.67119950       0.92117451       0.74342103 </v>
    <v>       0.05125600       0.19871499       0.76888902 </v>
    <v>       0.05125600       0.69871493       0.76888902 </v>
    <v>       0.55125603       0.19871499       0.76888902 </v>
    <v>       0.55125602       0.69871493       0.76888902 </v>
    <v>       0.19872349       0.44870397       0.76887205 </v>
    <v>       0.19872349       0.94870397       0.76887205 </v>
    <v>       0.69872352       0.44870397       0.76887205 </v>
    <v>       0.69872351       0.94870397       0.76887205 </v>
    <v>       0.42123152       0.32881747       0.74344197 </v>
    <v>       0.42123151       0.82881744       0.74344197 </v>
    <v>       0.92123147       0.32881747       0.74344197 </v>
    <v>       0.92123151       0.82881744       0.74344197 </v>
    <v>       0.32880050       0.07882500       0.74342103 </v>
    <v>       0.32880049       0.57882496       0.74342103 </v>
    <v>       0.82880048       0.07882500       0.74342103 </v>
    <v>       0.82880052       0.57882496       0.74342103 </v>
    <v>       0.00000350       0.25000148       0.72582199 </v>
    <v>       0.00000350       0.75000145       0.72582199 </v>
    <v>       0.50000351       0.25000148       0.72582199 </v>
    <v>       0.50000350       0.75000145       0.72582199 </v>
    <v>       0.25000050       0.00000000       0.72580398 </v>
    <v>       0.25000052       0.50000000       0.72580398 </v>
    <v>       0.75000050       0.00000000       0.72580398 </v>
    <v>       0.75000049       0.50000000       0.72580398 </v>
    <v>       0.80117840       0.50688704       0.51297888 </v>
    <v>       0.87864030       0.49932081       0.53058171 </v>
    <v>       0.75677358       0.61683524       0.53153380 </v>
    <v>       0.75048240       0.61585020       0.55958928 </v>
    <v>       0.68585903       0.43624873       0.54727896 </v>
    <v>       0.66363777       0.52759762       0.55485445 </v>
    <v>       0.79362097       0.41836435       0.56489576 </v>
    <v>       0.86162379       0.48908640       0.56777769 </v>
    <v>       0.86093542       0.37306263       0.53695054 </v>
    <v>       0.76678226       0.37283309       0.52990793 </v>
    <v>       0.79111574       0.38435450       0.49253293 </v>
    <v>       0.88398000       0.40932705       0.49647787 </v>
    <v>       0.89556367       0.61229781       0.53312763 </v>
    <v>       0.89207558       0.60537318       0.56151893 </v>
    <v>       0.85789265       0.68551587       0.54846456 </v>
    <v>       0.60206572       0.50063246       0.52171720 </v>
    <v>       0.68477272       0.47218337       0.50851571 </v>
    <v>       0.67019419       0.56701174       0.51551308 </v>
    <v>       0.70224476       0.49304586       0.58585631 </v>
    <v>       0.76862296       0.56564576       0.58902644 </v>
    <v>       0.78483996       0.47733368       0.60007248 </v>
    <v>       0.82540994       0.25788452       0.51070145 </v>
    <v>       0.85131849       0.27386900       0.48401414 </v>
    <v>       0.92591354       0.15697494       0.49960441 </v>
    <v>       0.97838602       0.38464692       0.51393916 </v>
    <v>       0.05668810       0.12255646       0.50572908 </v>
    <v>       0.10806419       0.35030581       0.52000855 </v>
    <v>       0.14974910       0.22001067       0.51525937 </v>
    <v>       0.99528267       0.23939825       0.55821651 </v>
    <v>       0.02179964       0.77830239       0.56031080 </v>
    <v>       0.51806658       0.27514997       0.55825949 </v>
    <v>       0.48778117       0.77036658       0.55527873 </v>
    <v>       0.23658787       0.50905312       0.55610482 </v>
    <v>       0.27201128       0.98950253       0.55788411 </v>
    <v>       0.78137611       0.99363384       0.56138035 </v>
    <v>       0.00695551       0.24322687       0.64909766 </v>
    <v>       0.02219685       0.77019346       0.65547613 </v>
    <v>       0.50387679       0.25267732       0.64688097 </v>
    <v>       0.49396795       0.75351704       0.64750958 </v>
    <v>       0.25410342       0.49908417       0.64861575 </v>
    <v>       0.25156831       0.99918882       0.64702211 </v>
    <v>       0.74099305       0.51473980       0.65113243 </v>
    <v>       0.74674633       0.99962114       0.64892765 </v>
    <v>       0.49998898       0.24999498       0.74327702 </v>
    <v>       0.49998903       0.74999496       0.74327702 </v>
    <v>       0.99998898       0.24999498       0.74327702 </v>
    <v>       0.99998903       0.74999496       0.74327702 </v>
    <v>       0.25000050       0.00000100       0.74325596 </v>
    <v>       0.25000052       0.50000100       0.74325596 </v>
    <v>       0.75000050       0.00000100       0.74325596 </v>
    <v>       0.75000049       0.50000100       0.74325596 </v>
    <v>       0.94226566       0.27339123       0.50564557 </v>
    <v>       0.96585325       0.19983123       0.50391713 </v>
    <v>       0.99466455       0.32700756       0.51171752 </v>
    <v>       0.03999731       0.18030175       0.50723207 </v>
    <v>       0.06866051       0.30772312       0.51511969 </v>
    <v>       0.09181898       0.23443236       0.51271546 </v>
    <v>       0.82161160       0.48080751       0.52772573 </v>
    <v>       0.78381422       0.59628902       0.54606863 </v>
    <v>       0.69333201       0.49466754       0.54285113 </v>
    <v>       0.80174818       0.47829333       0.56685062 </v>
    <v>       0.82064028       0.39685069       0.52573479 </v>
    <v>       0.83972392       0.37380974       0.50275788 </v>
    <v>       0.86239616       0.62503916       0.54732511 </v>
    <v>       0.66221966       0.50949213       0.52074710 </v>
    <v>       0.76118037       0.50636777       0.58626173 </v>
    <v>       0.86190270       0.29209614       0.50055999 </v>
    <v>       0.05772053       0.25679000       0.56766090 </v>
    <v>       0.02928834       0.71353725       0.56949379 </v>
    <v>       0.52696001       0.20492987       0.56315652 </v>
    <v>       0.55091882       0.74761262       0.56320292 </v>
    <v>       0.45444079       0.30968002       0.55647049 </v>
    <v>       0.42334053       0.73903167       0.55923814 </v>
    <v>       0.92963331       0.26078723       0.56475010 </v>
    <v>       0.96351880       0.82143057       0.56194791 </v>
    <v>       0.25587157       0.44218393       0.56232139 </v>
    <v>       0.20362737       0.00687052       0.56289567 </v>
    <v>       0.71211819       0.98530932       0.56714707 </v>
    <v>       0.32673626       0.03707496       0.55723810 </v>
    <v>       0.27784815       0.56801865       0.55847913 </v>
    <v>       0.81650248       0.05692499       0.56034401 </v>
    <v>       0.05594576       0.19755261       0.65709401 </v>
    <v>       0.05006564       0.70345616       0.65598051 </v>
    <v>       0.54586721       0.20276370       0.65599956 </v>
    <v>       0.54097904       0.71488834       0.65906517 </v>
    <v>       0.21538966       0.45149037       0.65975317 </v>
    <v>       0.19553905       0.96024411       0.65433357 </v>
    <v>       0.68954616       0.47100947       0.65888807 </v>
    <v>       0.70560974       0.95100876       0.65889351 </v>
    <v>       0.46160552       0.30084171       0.65685849 </v>
    <v>       0.44524990       0.80115181       0.65477397 </v>
    <v>       0.95943512       0.28344626       0.65989413 </v>
    <v>       0.95151314       0.78684744       0.65661772 </v>
    <v>       0.29780855       0.03841210       0.65862832 </v>
    <v>       0.29519051       0.55283751       0.65646089 </v>
    <v>       0.79099476       0.04854044       0.65795393 </v>
    <v>       0.81254710       0.50702442       0.65421343 </v>
    <v>       0.04586250       0.20411950       0.75272599 </v>
    <v>       0.04586250       0.70411946       0.75272599 </v>
    <v>       0.54586251       0.20411950       0.75272599 </v>
    <v>       0.54586250       0.70411946       0.75272599 </v>
    <v>       0.20411900       0.45410100       0.75270499 </v>
    <v>       0.20411899       0.95410095       0.75270499 </v>
    <v>       0.70411898       0.45410100       0.75270499 </v>
    <v>       0.70411896       0.95410095       0.75270499 </v>
    <v>       0.45414002       0.29588849       0.75272697 </v>
    <v>       0.45414001       0.79588852       0.75272697 </v>
    <v>       0.95414002       0.29588849       0.75272697 </v>
    <v>       0.95414006       0.79588852       0.75272697 </v>
    <v>       0.29588249       0.04590050       0.75270499 </v>
    <v>       0.29588248       0.54590053       0.75270499 </v>
    <v>       0.79588244       0.04590050       0.75270499 </v>
    <v>       0.79588248       0.54590053       0.75270499 </v>
    <v>       0.77542815       0.51244257       0.54576749 </v>
    <v>       0.51531940       0.98462171       0.55328321 </v>
    <v>       0.47489286       0.50873675       0.55300001 </v>
    <v>       0.00493184       0.01337610       0.55187332 </v>
    <v>       0.02869033       0.48300949       0.55378703 </v>
    <v>       0.25915759       0.23587936       0.55386145 </v>
    <v>       0.22845623       0.76390858       0.55089888 </v>
    <v>       0.73245271       0.23436874       0.55422016 </v>
    <v>       0.73832749       0.79400802       0.55354388 </v>
    <v>       0.99506793       0.98758486       0.65438107 </v>
    <v>       0.00878261       0.50469588       0.65486951 </v>
    <v>       0.49695230       0.00393558       0.65454284 </v>
    <v>       0.49560176       0.50771522       0.65427051 </v>
    <v>       0.26156550       0.24242701       0.65492622 </v>
    <v>       0.24482045       0.75413688       0.65365784 </v>
    <v>       0.74555646       0.27225716       0.65510802 </v>
    <v>       0.75357762       0.73463452       0.65404445 </v>
    <v>       0.13574894       0.11693065       0.60791804 </v>
    <v>       0.14655657       0.60859674       0.60534324 </v>
    <v>       0.63605335       0.11554984       0.60762709 </v>
    <v>       0.61945905       0.63207942       0.60609052 </v>
    <v>       0.36829266       0.38423790       0.60734664 </v>
    <v>       0.36490964       0.88362029       0.60424433 </v>
    <v>       0.88871469       0.36864314       0.61050077 </v>
    <v>       0.86164139       0.89145616       0.60698493 </v>
    <v>       0.12549067       0.36633800       0.61126624 </v>
    <v>       0.11441145       0.87323715       0.60513526 </v>
    <v>       0.60986070       0.36440148       0.60244386 </v>
    <v>       0.61903801       0.86501655       0.61201920 </v>
    <v>       0.39431639       0.13569197       0.60408451 </v>
    <v>       0.37985933       0.63533213       0.60662750 </v>
    <v>       0.88089463       0.13649038       0.61218971 </v>
    <v>       0.90158185       0.64547224       0.60915016 </v>
    <v>       0.00000000       0.00000000       0.75492797 </v>
    <v>       0.00000000       0.50000000       0.75492797 </v>
    <v>       0.50000000       0.00000000       0.75492797 </v>
    <v>       0.49999999       0.50000000       0.75492797 </v>
    <v>       0.25000050       0.25000000       0.75493902 </v>
    <v>       0.25000051       0.74999997       0.75493902 </v>
    <v>       0.75000047       0.25000000       0.75493902 </v>
    <v>       0.75000046       0.74999997       0.75493902 </v>
    <v>       0.13579050       0.11421000       0.70478299 </v>
    <v>       0.13579050       0.61420998       0.70478299 </v>
    <v>       0.63579045       0.11421000       0.70478299 </v>
    <v>       0.63579049       0.61420998       0.70478299 </v>
    <v>       0.36420952       0.38578999       0.70478299 </v>
    <v>       0.36420950       0.88578996       0.70478299 </v>
    <v>       0.86420954       0.38578999       0.70478299 </v>
    <v>       0.86420953       0.88578996       0.70478299 </v>
    <v>       0.11421799       0.36421899       0.70478098 </v>
    <v>       0.11421799       0.86421899       0.70478098 </v>
    <v>       0.61421800       0.36421899       0.70478098 </v>
    <v>       0.61421799       0.86421899       0.70478098 </v>
    <v>       0.38578201       0.13578149       0.70478202 </v>
    <v>       0.38578200       0.63578149       0.70478202 </v>
    <v>       0.88578199       0.13578149       0.70478202 </v>
    <v>       0.88578203       0.63578149       0.70478202 </v>
    <v>       0.13466700       0.11533200       0.80125603 </v>
    <v>       0.13466699       0.61533199       0.80125603 </v>
    <v>       0.63466699       0.11533200       0.80125603 </v>
    <v>       0.63466698       0.61533199       0.80125603 </v>
    <v>       0.36533300       0.38466799       0.80125603 </v>
    <v>       0.36533299       0.88466796       0.80125603 </v>
    <v>       0.86533295       0.38466799       0.80125603 </v>
    <v>       0.86533294       0.88466796       0.80125603 </v>
    <v>       0.11532850       0.36533700       0.80126500 </v>
    <v>       0.11532850       0.86533698       0.80126500 </v>
    <v>       0.61532850       0.36533700       0.80126500 </v>
    <v>       0.61532849       0.86533698       0.80126500 </v>
    <v>       0.38467151       0.13466300       0.80126500 </v>
    <v>       0.38467150       0.63466297       0.80126500 </v>
    <v>       0.88467149       0.13466300       0.80126500 </v>
    <v>       0.88467153       0.63466297       0.80126500 </v>
    <v>       0.99579834       0.00732080       0.60403079 </v>
    <v>       0.01054508       0.49967123       0.60337679 </v>
    <v>       0.50167345       0.99245615       0.60375192 </v>
    <v>       0.49986324       0.50160114       0.60298407 </v>
    <v>       0.25646198       0.24649030       0.60536333 </v>
    <v>       0.24251219       0.75508117       0.60299396 </v>
    <v>       0.74680588       0.25339183       0.60556021 </v>
    <v>       0.75315858       0.75656389       0.60374643 </v>
    <v>       0.00000050       0.00000050       0.70482896 </v>
    <v>       0.00000050       0.50000048       0.70482896 </v>
    <v>       0.50000048       0.00000050       0.70482896 </v>
    <v>       0.50000046       0.50000048       0.70482896 </v>
    <v>       0.24999999       0.24999947       0.70482499 </v>
    <v>       0.25000001       0.74999950       0.70482499 </v>
    <v>       0.74999999       0.24999947       0.70482499 </v>
    <v>       0.74999998       0.74999950       0.70482499 </v>
    <v>       0.00000000       0.00000000       0.80731797 </v>
    <v>       0.00000000       0.50000000       0.80731797 </v>
    <v>       0.50000000       0.00000000       0.80731797 </v>
    <v>       0.49999999       0.50000000       0.80731797 </v>
    <v>       0.24999999       0.25000000       0.80731797 </v>
    <v>       0.25000001       0.74999997       0.80731797 </v>
    <v>       0.74999999       0.25000000       0.80731797 </v>
    <v>       0.74999998       0.74999997       0.80731797 </v>
   </varray>
  </structure>
  <varray name="primitive_index" >
   <v type="int" >        1 </v>
   <v type="int" >        2 </v>
   <v type="int" >        3 </v>
   <v type="int" >        4 </v>
   <v type="int" >        5 </v>
   <v type="int" >        6 </v>
   <v type="int" >        7 </v>
   <v type="int" >        8 </v>
   <v type="int" >        9 </v>
   <v type="int" >       10 </v>
   <v type="int" >       11 </v>
   <v type="int" >       12 </v>
   <v type="int" >       13 </v>
   <v type="int" >       14 </v>
   <v type="int" >       15 </v>
   <v type="int" >       16 </v>
   <v type="int" >       17 </v>
   <v type="int" >       18 </v>
   <v type="int" >       19 </v>
   <v type="int" >       20 </v>
   <v type="int" >       21 </v>
   <v type="int" >       22 </v>
   <v type="int" >       23 </v>
   <v type="int" >       24 </v>
   <v type="int" >       25 </v>
   <v type="int" >       26 </v>
   <v type="int" >       27 </v>
   <v type="int" >       28 </v>
   <v type="int" >       29 </v>
   <v type="int" >       30 </v>
   <v type="int" >       31 </v>
   <v type="int" >       32 </v>
   <v type="int" >       33 </v>
   <v type="int" >       34 </v>
   <v type="int" >       35 </v>
   <v type="int" >       36 </v>
   <v type="int" >       37 </v>
   <v type="int" >       38 </v>
   <v type="int" >       39 </v>
   <v type="int" >       40 </v>
   <v type="int" >       41 </v>
   <v type="int" >       42 </v>
   <v type="int" >       43 </v>
   <v type="int" >       44 </v>
   <v type="int" >       45 </v>
   <v type="int" >       46 </v>
   <v type="int" >       47 </v>
   <v type="int" >       48 </v>
   <v type="int" >       49 </v>
   <v type="int" >       50 </v>
   <v type="int" >       51 </v>
   <v type="int" >       52 </v>
   <v type="int" >       53 </v>
   <v type="int" >       54 </v>
   <v type="int" >       55 </v>
   <v type="int" >       56 </v>
   <v type="int" >       57 </v>
   <v type="int" >       58 </v>
   <v type="int" >       59 </v>
   <v type="int" >       60 </v>
   <v type="int" >       61 </v>
   <v type="int" >       62 </v>
   <v type="int" >       63 </v>
   <v type="int" >       64 </v>
   <v type="int" >       65 </v>
   <v type="int" >       66 </v>
   <v type="int" >       67 </v>
   <v type="int" >       68 </v>
   <v type="int" >       69 </v>
   <v type="int" >       70 </v>
   <v type="int" >       71 </v>
   <v type="int" >       72 </v>
   <v type="int" >       73 </v>
   <v type="int" >       74 </v>
   <v type="int" >       75 </v>
   <v type="int" >       76 </v>
   <v type="int" >       77 </v>
   <v type="int" >       78 </v>
   <v type="int" >       79 </v>
   <v type="int" >       80 </v>
   <v type="int" >       81 </v>
   <v type="int" >       82 </v>
   <v type="int" >       83 </v>
   <v type="int" >       84 </v>
   <v type="int" >       85 </v>
   <v type="int" >       86 </v>
   <v type="int" >       87 </v>
   <v type="int" >       88 </v>
   <v type="int" >       89 </v>
   <v type="int" >       90 </v>
   <v type="int" >       91 </v>
   <v type="int" >       92 </v>
   <v type="int" >       93 </v>
   <v type="int" >       94 </v>
   <v type="int" >       95 </v>
   <v type="int" >       96 </v>
   <v type="int" >       97 </v>
   <v type="int" >       98 </v>
   <v type="int" >       99 </v>
   <v type="int" >      100 </v>
   <v type="int" >      101 </v>
   <v type="int" >      102 </v>
   <v type="int" >      103 </v>
   <v type="int" >      104 </v>
   <v type="int" >      105 </v>
   <v type="int" >      106 </v>
   <v type="int" >      107 </v>
   <v type="int" >      108 </v>
   <v type="int" >      109 </v>
   <v type="int" >      110 </v>
   <v type="int" >      111 </v>
   <v type="int" >      112 </v>
   <v type="int" >      113 </v>
   <v type="int" >      114 </v>
   <v type="int" >      115 </v>
   <v type="int" >      116 </v>
   <v type="int" >      117 </v>
   <v type="int" >      118 </v>
   <v type="int" >      119 </v>
   <v type="int" >      120 </v>
   <v type="int" >      121 </v>
   <v type="int" >      122 </v>
   <v type="int" >      123 </v>
   <v type="int" >      124 </v>
   <v type="int" >      125 </v>
   <v type="int" >      126 </v>
   <v type="int" >      127 </v>
   <v type="int" >      128 </v>
   <v type="int" >      129 </v>
   <v type="int" >      130 </v>
   <v type="int" >      131 </v>
   <v type="int" >      132 </v>
   <v type="int" >      133 </v>
   <v type="int" >      134 </v>
   <v type="int" >      135 </v>
   <v type="int" >      136 </v>
   <v type="int" >      137 </v>
   <v type="int" >      138 </v>
   <v type="int" >      139 </v>
   <v type="int" >      140 </v>
   <v type="int" >      141 </v>
   <v type="int" >      142 </v>
   <v type="int" >      143 </v>
   <v type="int" >      144 </v>
   <v type="int" >      145 </v>
   <v type="int" >      146 </v>
   <v type="int" >      147 </v>
   <v type="int" >      148 </v>
   <v type="int" >      149 </v>
   <v type="int" >      150 </v>
   <v type="int" >      151 </v>
   <v type="int" >      152 </v>
   <v type="int" >      153 </v>
   <v type="int" >      154 </v>
   <v type="int" >      155 </v>
   <v type="int" >      156 </v>
   <v type="int" >      157 </v>
   <v type="int" >      158 </v>
   <v type="int" >      159 </v>
   <v type="int" >      160 </v>
   <v type="int" >      161 </v>
   <v type="int" >      162 </v>
   <v type="int" >      163 </v>
   <v type="int" >      164 </v>
   <v type="int" >      165 </v>
   <v type="int" >      166 </v>
   <v type="int" >      167 </v>
   <v type="int" >      168 </v>
   <v type="int" >      169 </v>
   <v type="int" >      170 </v>
   <v type="int" >      171 </v>
   <v type="int" >      172 </v>
   <v type="int" >      173 </v>
   <v type="int" >      174 </v>
   <v type="int" >      175 </v>
   <v type="int" >      176 </v>
   <v type="int" >      177 </v>
   <v type="int" >      178 </v>
   <v type="int" >      179 </v>
   <v type="int" >      180 </v>
   <v type="int" >      181 </v>
   <v type="int" >      182 </v>
   <v type="int" >      183 </v>
   <v type="int" >      184 </v>
   <v type="int" >      185 </v>
   <v type="int" >      186 </v>
   <v type="int" >      187 </v>
   <v type="int" >      188 </v>
   <v type="int" >      189 </v>
   <v type="int" >      190 </v>
   <v type="int" >      191 </v>
   <v type="int" >      192 </v>
   <v type="int" >      193 </v>
   <v type="int" >      194 </v>
   <v type="int" >      195 </v>
   <v type="int" >      196 </v>
   <v type="int" >      197 </v>
   <v type="int" >      198 </v>
   <v type="int" >      199 </v>
   <v type="int" >      200 </v>
   <v type="int" >      201 </v>
   <v type="int" >      202 </v>
   <v type="int" >      203 </v>
   <v type="int" >      204 </v>
   <v type="int" >      205 </v>
   <v type="int" >      206 </v>
   <v type="int" >      207 </v>
   <v type="int" >      208 </v>
   <v type="int" >      209 </v>
   <v type="int" >      210 </v>
   <v type="int" >      211 </v>
   <v type="int" >      212 </v>
   <v type="int" >      213 </v>
   <v type="int" >      214 </v>
   <v type="int" >      215 </v>
   <v type="int" >      216 </v>
   <v type="int" >      217 </v>
   <v type="int" >      218 </v>
   <v type="int" >      219 </v>
   <v type="int" >      220 </v>
   <v type="int" >      221 </v>
   <v type="int" >      222 </v>
   <v type="int" >      223 </v>
   <v type="int" >      224 </v>
   <v type="int" >      225 </v>
   <v type="int" >      226 </v>
   <v type="int" >      227 </v>
   <v type="int" >      228 </v>
   <v type="int" >      229 </v>
   <v type="int" >      230 </v>
   <v type="int" >      231 </v>
   <v type="int" >      232 </v>
   <v type="int" >      233 </v>
   <v type="int" >      234 </v>
   <v type="int" >      235 </v>
   <v type="int" >      236 </v>
   <v type="int" >      237 </v>
   <v type="int" >      238 </v>
   <v type="int" >      239 </v>
   <v type="int" >      240 </v>
   <v type="int" >      241 </v>
   <v type="int" >      242 </v>
   <v type="int" >      243 </v>
   <v type="int" >      244 </v>
   <v type="int" >      245 </v>
   <v type="int" >      246 </v>
   <v type="int" >      247 </v>
   <v type="int" >      248 </v>
   <v type="int" >      249 </v>
   <v type="int" >      250 </v>
   <v type="int" >      251 </v>
   <v type="int" >      252 </v>
   <v type="int" >      253 </v>
   <v type="int" >      254 </v>
   <v type="int" >      255 </v>
   <v type="int" >      256 </v>
   <v type="int" >      257 </v>
   <v type="int" >      258 </v>
   <v type="int" >      259 </v>
   <v type="int" >      260 </v>
   <v type="int" >      261 </v>
   <v type="int" >      262 </v>
   <v type="int" >      263 </v>
   <v type="int" >      264 </v>
   <v type="int" >      265 </v>
   <v type="int" >      266 </v>
   <v type="int" >      267 </v>
   <v type="int" >      268 </v>
   <v type="int" >      269 </v>
   <v type="int" >      270 </v>
   <v type="int" >      271 </v>
   <v type="int" >      272 </v>
   <v type="int" >      273 </v>
   <v type="int" >      274 </v>
   <v type="int" >      275 </v>
   <v type="int" >      276 </v>
   <v type="int" >      277 </v>
   <v type="int" >      278 </v>
   <v type="int" >      279 </v>
   <v type="int" >      280 </v>
   <v type="int" >      281 </v>
   <v type="int" >      282 </v>
   <v type="int" >      283 </v>
   <v type="int" >      284 </v>
   <v type="int" >      285 </v>
   <v type="int" >      286 </v>
   <v type="int" >      287 </v>
   <v type="int" >      288 </v>
   <v type="int" >      289 </v>
   <v type="int" >      290 </v>
   <v type="int" >      291 </v>
   <v type="int" >      292 </v>
   <v type="int" >      293 </v>
   <v type="int" >      294 </v>
   <v type="int" >      295 </v>
   <v type="int" >      296 </v>
   <v type="int" >      297 </v>
   <v type="int" >      298 </v>
   <v type="int" >      299 </v>
   <v type="int" >      300 </v>
   <v type="int" >      301 </v>
   <v type="int" >      302 </v>
   <v type="int" >      303 </v>
   <v type="int" >      304 </v>
   <v type="int" >      305 </v>
   <v type="int" >      306 </v>
   <v type="int" >      307 </v>
   <v type="int" >      308 </v>
   <v type="int" >      309 </v>
   <v type="int" >      310 </v>
   <v type="int" >      311 </v>
   <v type="int" >      312 </v>
   <v type="int" >      313 </v>
   <v type="int" >      314 </v>
   <v type="int" >      315 </v>
   <v type="int" >      316 </v>
   <v type="int" >      317 </v>
   <v type="int" >      318 </v>
   <v type="int" >      319 </v>
   <v type="int" >      320 </v>
   <v type="int" >      321 </v>
   <v type="int" >      322 </v>
   <v type="int" >      323 </v>
   <v type="int" >      324 </v>
   <v type="int" >      325 </v>
  </varray>
 </primitive_cell>
 <kpoints>
  <generation param="Gamma">
   <v type="int" name="divisions">       3        3        1 </v>
   <v name="usershift">      0.00000000       0.00000000       0.00000000 </v>
   <v name="genvec1">      0.33333333       0.00000000       0.00000000 </v>
   <v name="genvec2">      0.00000000       0.33333333       0.00000000 </v>
   <v name="genvec3">      0.00000000       0.00000000       1.00000000 </v>
   <v name="shift">      0.00000000       0.00000000       0.00000000 </v>
  </generation>
  <varray name="kpointlist" >
   <v>       0.00000000       0.00000000       0.00000000 </v>
   <v>       0.33333333       0.00000000       0.00000000 </v>
   <v>       0.00000000       0.33333333       0.00000000 </v>
   <v>       0.33333333       0.33333333       0.00000000 </v>
   <v>      -0.33333333       0.33333333       0.00000000 </v>
  </varray>
  <varray name="weights" >
   <v>       0.11111111 </v>
   <v>       0.22222222 </v>
   <v>       0.22222222 </v>
   <v>       0.22222222 </v>
   <v>       0.22222222 </v>
  </varray>
 </kpoints>
 <parameters>
  <separator name="general" >
   <i type="string" name="SYSTEM">PSC</i>
   <i type="logical" name="LCOMPAT"> F  </i>
  </separator>
  <separator name="electronic" >
   <i type="string" name="PREC">normal</i>
   <i name="ENMAX">    500.00000000</i>
   <i name="ENAUG">    644.87300000</i>
   <i name="EDIFF">      0.00010000</i>
   <i type="int" name="IALGO">    38</i>
   <i type="int" name="IWAVPR">    10</i>
   <i type="int" name="NBANDS">   732</i>
   <i type="int" name="NBANDSLOW">    -1</i>
   <i type="int" name="NBANDSHIGH">    -1</i>
   <i name="NELECT">   1134.00000000</i>
   <i type="int" name="TURBO">     0</i>
   <i type="int" name="IRESTART">     0</i>
   <i type="int" name="NREBOOT">     0</i>
   <i type="int" name="NMIN">     0</i>
   <i name="EREF">      0.00000000</i>
   <separator name="electronic smearing" >
    <i type="int" name="ISMEAR">     0</i>
    <i name="SIGMA">      0.05000000</i>
    <i name="KSPACING">      0.50000000</i>
    <i type="logical" name="KGAMMA"> T  </i>
    <i type="logical" name="KBLOWUP"> T  </i>
   </separator>
   <separator name="electronic projectors" >
    <i type="logical" name="LREAL"> T  </i>
    <v name="ROPT">     -0.00050000     -0.00050000     -0.00050000     -0.00050000     -0.00050000</v>
    <i type="int" name="LMAXPAW">  -100</i>
    <i type="int" name="LMAXMIX">     2</i>
    <i type="logical" name="NLSPLINE"> F  </i>
   </separator>
   <separator name="electronic startup" >
    <i type="int" name="ISTART">     0</i>
    <i type="int" name="ICHARG">     1</i>
    <i type="int" name="INIWAV">     1</i>
   </separator>
   <separator name="electronic spin" >
    <i type="int" name="ISPIN">     1</i>
    <i type="logical" name="LNONCOLLINEAR"> F  </i>
    <v name="MAGMOM">      1.00000000      1.00000000      1.00000000      1.00000000      1.00000000      1.00000000      1.00000000      1.00000000      1.00000000      1.00000000      1.00000000      1.00000000      1.00000000      1.00000000      1.00000000      1.00000000      1.00000000      1.00000000      1.00000000      1.00000000
      1.00000000      1.00000000      1.00000000      1.00000000      1.00000000      1.00000000      1.00000000      1.00000000      1.00000000      1.00000000      1.00000000      1.00000000      1.00000000      1.00000000      1.00000000      1.00000000      1.00000000      1.00000000      1.00000000      1.00000000
      1.00000000      1.00000000      1.00000000      1.00000000      1.00000000      1.00000000      1.00000000      1.00000000      1.00000000      1.00000000      1.00000000      1.00000000      1.00000000      1.00000000      1.00000000      1.00000000      1.00000000      1.00000000      1.00000000      1.00000000
      1.00000000      1.00000000      1.00000000      1.00000000      1.00000000      1.00000000      1.00000000      1.00000000      1.00000000      1.00000000      1.00000000      1.00000000      1.00000000      1.00000000      1.00000000      1.00000000      1.00000000      1.00000000      1.00000000      1.00000000
      1.00000000      1.00000000      1.00000000      1.00000000      1.00000000      1.00000000      1.00000000      1.00000000      1.00000000      1.00000000      1.00000000      1.00000000      1.00000000      1.00000000      1.00000000      1.00000000      1.00000000      1.00000000      1.00000000      1.00000000
      1.00000000      1.00000000      1.00000000      1.00000000      1.00000000      1.00000000      1.00000000      1.00000000      1.00000000      1.00000000      1.00000000      1.00000000      1.00000000      1.00000000      1.00000000      1.00000000      1.00000000      1.00000000      1.00000000      1.00000000
      1.00000000      1.00000000      1.00000000      1.00000000      1.00000000      1.00000000      1.00000000      1.00000000      1.00000000      1.00000000      1.00000000      1.00000000      1.00000000      1.00000000      1.00000000      1.00000000      1.00000000      1.00000000      1.00000000      1.00000000
      1.00000000      1.00000000      1.00000000      1.00000000      1.00000000      1.00000000      1.00000000      1.00000000      1.00000000      1.00000000      1.00000000      1.00000000      1.00000000      1.00000000      1.00000000      1.00000000      1.00000000      1.00000000      1.00000000      1.00000000
      1.00000000      1.00000000      1.00000000      1.00000000      1.00000000      1.00000000      1.00000000      1.00000000      1.00000000      1.00000000      1.00000000      1.00000000      1.00000000      1.00000000      1.00000000      1.00000000      1.00000000      1.00000000      1.00000000      1.00000000
      1.00000000      1.00000000      1.00000000      1.00000000      1.00000000      1.00000000      1.00000000      1.00000000      1.00000000      1.00000000      1.00000000      1.00000000      1.00000000      1.00000000      1.00000000      1.00000000      1.00000000      1.00000000      1.00000000      1.00000000
      1.00000000      1.00000000      1.00000000      1.00000000      1.00000000      1.00000000      1.00000000      1.00000000      1.00000000      1.00000000      1.00000000      1.00000000      1.00000000      1.00000000      1.00000000      1.00000000      1.00000000      1.00000000      1.00000000      1.00000000
      1.00000000      1.00000000      1.00000000      1.00000000      1.00000000      1.00000000      1.00000000      1.00000000      1.00000000      1.00000000      1.00000000      1.00000000      1.00000000      1.00000000      1.00000000      1.00000000      1.00000000      1.00000000      1.00000000      1.00000000
      1.00000000      1.00000000      1.00000000      1.00000000      1.00000000      1.00000000      1.00000000      1.00000000      1.00000000      1.00000000      1.00000000      1.00000000      1.00000000      1.00000000      1.00000000      1.00000000      1.00000000      1.00000000      1.00000000      1.00000000
      1.00000000      1.00000000      1.00000000      1.00000000      1.00000000      1.00000000      1.00000000      1.00000000      1.00000000      1.00000000      1.00000000      1.00000000      1.00000000      1.00000000      1.00000000      1.00000000      1.00000000      1.00000000      1.00000000      1.00000000
      1.00000000      1.00000000      1.00000000      1.00000000      1.00000000      1.00000000      1.00000000      1.00000000      1.00000000      1.00000000      1.00000000      1.00000000      1.00000000      1.00000000      1.00000000      1.00000000      1.00000000      1.00000000      1.00000000      1.00000000
      1.00000000      1.00000000      1.00000000      1.00000000      1.00000000      1.00000000      1.00000000      1.00000000      1.00000000      1.00000000      1.00000000      1.00000000      1.00000000      1.00000000      1.00000000      1.00000000      1.00000000      1.00000000      1.00000000      1.00000000
      1.00000000      1.00000000      1.00000000      1.00000000      1.00000000</v>
    <i name="NUPDOWN">     -1.00000000</i>
    <i type="logical" name="LSORBIT"> F  </i>
    <v name="SAXIS">      0.00000000      0.00000000      1.00000000</v>
    <i type="logical" name="LSPIRAL"> F  </i>
    <v name="QSPIRAL">      0.00000000      0.00000000      0.00000000</v>
    <i type="logical" name="LZEROZ"> F  </i>
   </separator>
   <separator name="electronic exchange-correlation" >
    <i type="logical" name="LASPH"> F  </i>
    <i type="logical" name="LMETAGGA"> F  </i>
   </separator>
   <separator name="electronic convergence" >
    <i type="int" name="NELM">   600</i>
    <i type="int" name="NELMDL">     0</i>
    <i type="int" name="NELMIN">     2</i>
    <i name="ENINI">    500.00000000</i>
    <separator name="electronic convergence detail" >
     <i type="logical" name="LDIAG"> T  </i>
     <i type="logical" name="LSUBROT"> F  </i>
     <i name="WEIMIN">      0.00000000</i>
     <i name="EBREAK">      0.00000003</i>
     <i name="DEPER">      0.30000000</i>
     <i type="int" name="NRMM">     4</i>
     <i name="TIME">      0.40000000</i>
    </separator>
   </separator>
   <separator name="electronic mixer" >
    <i name="AMIX">      0.40000000</i>
    <i name="BMIX">      0.01000000</i>
    <i name="AMIN">      0.01000000</i>
    <i name="AMIX_MAG">      1.60000000</i>
    <i name="BMIX_MAG">      0.01000000</i>
    <separator name="electronic mixer details" >
     <i type="int" name="IMIX">     4</i>
     <i type="logical" name="MIXFIRST"> F  </i>
     <i type="int" name="MAXMIX">   -45</i>
     <i name="WC">    100.00000000</i>
     <i type="int" name="INIMIX">     1</i>
     <i type="int" name="MIXPRE">     1</i>
     <i type="int" name="MREMOVE">     5</i>
    </separator>
   </separator>
   <separator name="electronic dipolcorrection" >
    <i type="logical" name="LDIPOL"> T  </i>
    <i type="logical" name="LMONO"> F  </i>
    <i type="int" name="IDIPOL">     3</i>
    <i name="EPSILON">      1.00000000</i>
    <v name="DIPOL">   -100.00000000   -100.00000000   -100.00000000</v>
    <i name="EFIELD">      0.00000000</i>
   </separator>
  </separator>
  <separator name="grids" >
   <i type="int" name="NGX">   100</i>
   <i type="int" name="NGY">   100</i>
   <i type="int" name="NGZ">   350</i>
   <i type="int" name="NGXF">   200</i>
   <i type="int" name="NGYF">   200</i>
   <i type="int" name="NGZF">   700</i>
   <i type="logical" name="ADDGRID"> F  </i>
  </separator>
  <separator name="ionic" >
   <i type="int" name="NSW">     0</i>
   <i type="int" name="IBRION">    -1</i>
   <i type="int" name="MDALGO">     0</i>
   <i type="int" name="ISIF">     2</i>
   <i name="PSTRESS">      0.00000000</i>
   <i name="EDIFFG">      0.00100000</i>
   <i type="int" name="NFREE">     0</i>
   <i name="POTIM">      0.50000000</i>
   <i name="SMASS">     -3.00000000</i>
   <i name="SCALEE">      1.00000000</i>
  </separator>
  <separator name="ionic md" >
   <i name="TEBEG">      0.00010000</i>
   <i name="TEEND">      0.00010000</i>
   <i type="int" name="NBLOCK">     1</i>
   <i type="int" name="KBLOCK">     1</i>
   <i type="int" name="NPACO">   256</i>
   <i name="APACO">     16.00000000</i>
  </separator>
  <separator name="symmetry" >
   <i type="int" name="ISYM">     0</i>
   <i name="SYMPREC">      0.00001000</i>
  </separator>
  <separator name="dos" >
   <i type="int" name="LORBIT">     0</i>
   <v name="RWIGS">     -1.00000000     -1.00000000     -1.00000000     -1.00000000     -1.00000000</v>
   <i type="int" name="NEDOS">   301</i>
   <i name="EMIN">     10.00000000</i>
   <i name="EMAX">    -10.00000000</i>
   <i name="EFERMI">      0.00000000</i>
  </separator>
  <separator name="writing" >
   <i type="int" name="NWRITE">     2</i>
   <i type="logical" name="LWAVE"> F  </i>
   <i type="logical" name="LDOWNSAMPLE"> F  </i>
   <i type="logical" name="LCHARG"> T  </i>
   <i type="logical" name="LPARD"> F  </i>
   <i type="logical" name="LVTOT"> T  </i>
   <i type="logical" name="LVHAR"> F  </i>
   <i type="logical" name="LELF"> F  </i>
   <i type="logical" name="LOPTICS"> F  </i>
   <v name="STM">      0.00000000      0.00000000      0.00000000      0.00000000      0.00000000      0.00000000      0.00000000</v>
  </separator>
  <separator name="performance" >
   <i type="int" name="NPAR">     4</i>
   <i type="int" name="NSIM">     4</i>
   <i type="int" name="NBLK">    -1</i>
   <i type="logical" name="LPLANE"> T  </i>
   <i type="logical" name="LSCALAPACK"> T  </i>
   <i type="logical" name="LSCAAWARE"> F  </i>
   <i type="logical" name="LSCALU"> F  </i>
   <i type="logical" name="LASYNC"> F  </i>
   <i type="logical" name="LORBITALREAL"> F  </i>
  </separator>
  <separator name="miscellaneous" >
   <i type="int" name="IDIOT">     3</i>
   <i type="int" name="PHON_NSTRUCT">    -1</i>
   <i type="logical" name="LMUSIC"> F  </i>
   <v name="POMASS">      1.00000000     12.01100000     14.00100000    126.90400000    207.20000000</v>
   <v name="DARWINR">      0.00000000      0.00000000      0.00000000      0.00000000      0.00000000</v>
   <v name="DARWINV">      1.00000000      1.00000000      1.00000000      1.00000000      1.00000000</v>
   <i type="logical" name="LCORR"> T  </i>
  </separator>
  <i type="logical" name="GGA_COMPAT"> F  </i>
  <i type="logical" name="LBERRY"> F  </i>
  <i type="int" name="ICORELEVEL">     0</i>
  <i type="logical" name="LDAU"> F  </i>
  <i type="int" name="I_CONSTRAINED_M">     0</i>
  <separator name="electronic exchange-correlation" >
   <i type="string" name="GGA">--</i>
   <i type="int" name="VOSKOWN">     0</i>
   <i type="logical" name="LHFCALC"> F  </i>
   <i type="string" name="PRECFOCK"></i>
   <i type="logical" name="LSYMGRAD"> F  </i>
   <i type="logical" name="LHFONE"> F  </i>
   <i type="logical" name="LRHFCALC"> F  </i>
   <i type="logical" name="LTHOMAS"> F  </i>
   <i type="logical" name="LMODELHF"> F  </i>
   <i type="logical" name="LFOCKACE"> F  </i>
   <i name="ENCUT4O">     -1.00000000</i>
   <i type="int" name="EXXOEP">     0</i>
   <i type="int" name="FOURORBIT">     0</i>
   <i name="AEXX">      0.00000000</i>
   <i name="HFALPHA">      0.00000000</i>
   <i name="MCALPHA">      0.00000000</i>
   <i name="ALDAX">      1.00000000</i>
   <i name="AGGAX">      1.00000000</i>
   <i name="ALDAC">      1.00000000</i>
   <i name="AGGAC">      1.00000000</i>
   <i type="int" name="NKREDX">     1</i>
   <i type="int" name="NKREDY">     1</i>
   <i type="int" name="NKREDZ">     1</i>
   <i type="logical" name="SHIFTRED"> F  </i>
   <i type="logical" name="ODDONLY"> F  </i>
   <i type="logical" name="EVENONLY"> F  </i>
   <i type="int" name="LMAXFOCK">     0</i>
   <i type="int" name="NMAXFOCKAE">     0</i>
   <i type="logical" name="LFOCKAEDFT"> F  </i>
   <i name="HFSCREEN">      0.00000000</i>
   <i name="HFSCREENC">      0.00000000</i>
   <i type="int" name="NBANDSGWLOW">     0</i>
  </separator>
  <separator name="vdW DFT" >
   <i type="logical" name="LUSE_VDW"> F  </i>
   <i name="Zab_VDW">     -0.84910000</i>
   <i name="PARAM1">      0.12340000</i>
   <i name="PARAM2">      1.00000000</i>
   <i name="PARAM3">      0.00000000</i>
  </separator>
  <separator name="model GW" >
   <i type="int" name="MODEL_GW">     0</i>
   <i name="MODEL_EPS0">     37.63423484</i>
   <i name="MODEL_ALPHA">      1.00000000</i>
  </separator>
  <separator name="linear response parameters" >
   <i type="logical" name="LEPSILON"> F  </i>
   <i type="logical" name="LRPA"> F  </i>
   <i type="logical" name="LNABLA"> F  </i>
   <i type="logical" name="LVEL"> F  </i>
   <i type="int" name="KINTER">     0</i>
   <i name="CSHIFT">      0.10000000</i>
   <i name="OMEGAMAX">     -1.00000000</i>
   <i name="DEG_THRESHOLD">      0.00200000</i>
   <i name="RTIME">     -0.10000000</i>
   <i name="WPLASMAI">      0.00000000</i>
   <v name="DFIELD">      0.00000000      0.00000000      0.00000000</v>
   <v name="WPLASMA">      0.00000000      0.00000000      0.00000000      0.00000000      0.00000000      0.00000000      0.00000000      0.00000000      0.00000000</v>
  </separator>
  <separator name="orbital magnetization" >
   <i type="logical" name="NUCIND"> F  </i>
   <v name="MAGPOS">      0.00000000      0.00000000      0.00000000</v>
   <i type="logical" name="LNICSALL"> T  </i>
   <i type="logical" name="ORBITALMAG"> F  </i>
   <i type="logical" name="LMAGBLOCH"> F  </i>
   <i type="logical" name="LCHIMAG"> F  </i>
   <i type="logical" name="LGAUGE"> T  </i>
   <i type="int" name="MAGATOM">     0</i>
   <v name="MAGDIPOL">      0.00000000      0.00000000      0.00000000</v>
   <v name="AVECCONST">      0.00000000      0.00000000      0.00000000</v>
  </separator>
  <separator name="response functions" >
   <i type="logical" name="LFINITE_TEMPERATURE"> F  </i>
   <i type="logical" name="LADDER"> F  </i>
   <i type="logical" name="LRPAFORCE"> F  </i>
   <i type="logical" name="LFXC"> F  </i>
   <i type="logical" name="LHARTREE"> T  </i>
   <i type="int" name="IBSE">     0</i>
   <v type="int" name="KPOINT">    -1     0     0     0</v>
   <i type="logical" name="LTCTC"> F  </i>
   <i type="logical" name="LTCTE"> F  </i>
   <i type="logical" name="LTETE"> F  </i>
   <i type="logical" name="LTRIPLET"> F  </i>
   <i type="logical" name="LFXCEPS"> F  </i>
   <i type="logical" name="LFXHEG"> F  </i>
   <i type="int" name="NATURALO">     2</i>
   <i type="logical" name="LHOLEGF"> F  </i>
   <i type="logical" name="L2ORDER"> F  </i>
   <i type="logical" name="LDMP1"> F  </i>
   <i type="logical" name="LMP2LT"> F  </i>
   <i type="logical" name="LSMP2LT"> F  </i>
   <i type="logical" name="LGWLF"> F  </i>
   <i name="ENCUTGW">     -2.00000000</i>
   <i name="ENCUTGWSOFT">     -2.00000000</i>
   <i name="ENCUTLF">     -1.00000000</i>
   <i type="logical" name="LESF_SPLINES"> F  </i>
   <i type="int" name="LMAXMP2">    -1</i>
   <i name="SCISSOR">      0.00000000</i>
   <i type="int" name="NOMEGA">     0</i>
   <i type="int" name="NOMEGAR">     0</i>
   <i type="int" name="NBANDSGW">    -1</i>
   <i type="int" name="NBANDSO">    -1</i>
   <i type="int" name="NBANDSV">    -1</i>
   <i type="int" name="NELM">   600</i>
   <i type="int" name="NELMHF">     1</i>
   <i type="int" name="DIM">     3</i>
   <i type="int" name="IESPILON">     4</i>
   <i type="int" name="ANTIRES">     0</i>
   <i name="OMEGAMAX">    -30.00000000</i>
   <i name="OMEGAMIN">    -30.00000000</i>
   <i name="OMEGATL">   -200.00000000</i>
   <i type="int" name="OMEGAGRID">     0</i>
   <i name="CSHIFT">     -0.10000000</i>
   <i type="logical" name="LSELFENERGY"> F  </i>
   <i type="logical" name="LSPECTRAL"> F  </i>
   <i type="logical" name="LSPECTRALGW"> F  </i>
   <i type="logical" name="LSINGLES"> F  </i>
   <i type="logical" name="LFERMIGW"> F  </i>
   <i type="logical" name="ODDONLYGW"> F  </i>
   <i type="logical" name="EVENONLYGW"> F  </i>
   <i type="int" name="NKREDLFX">     1</i>
   <i type="int" name="NKREDLFY">     1</i>
   <i type="int" name="NKREDLFZ">     1</i>
   <i type="int" name="MAXMEM">  2800</i>
   <i type="int" name="TELESCOPE">     0</i>
   <i type="int" name="NTAUPAR">    -1</i>
   <i type="int" name="NOMEGAPAR">    -1</i>
   <i name="DAMP_NEWTON">      0.80000001</i>
   <i name="LAMBDA">      1.00000000</i>
  </separator>
  <separator name="External order field" >
   <i name="OFIELD_KAPPA">      0.00000000</i>
   <v name="OFIELD_K">      0.00000000      0.00000000      0.00000000</v>
   <i name="OFIELD_Q6_NEAR">      0.00000000</i>
   <i name="OFIELD_Q6_FAR">      0.00000000</i>
   <i name="OFIELD_A">      0.00000000</i>
  </separator>
 </parameters>
 <atominfo>
  <atoms>     325 </atoms>
  <types>       5 </types>
  <array name="atoms" >
   <dimension dim="1">ion</dimension>
   <field type="string">element</field>
   <field type="int">atomtype</field>
   <set>
    <rc><c>H </c><c>   1</c></rc>
    <rc><c>H </c><c>   1</c></rc>
    <rc><c>H </c><c>   1</c></rc>
    <rc><c>H </c><c>   1</c></rc>
    <rc><c>H </c><c>   1</c></rc>
    <rc><c>H </c><c>   1</c></rc>
    <rc><c>H </c><c>   1</c></rc>
    <rc><c>H </c><c>   1</c></rc>
    <rc><c>H </c><c>   1</c></rc>
    <rc><c>H </c><c>   1</c></rc>
    <rc><c>H </c><c>   1</c></rc>
    <rc><c>H </c><c>   1</c></rc>
    <rc><c>H </c><c>   1</c></rc>
    <rc><c>H </c><c>   1</c></rc>
    <rc><c>H </c><c>   1</c></rc>
    <rc><c>H </c><c>   1</c></rc>
    <rc><c>H </c><c>   1</c></rc>
    <rc><c>H </c><c>   1</c></rc>
    <rc><c>H </c><c>   1</c></rc>
    <rc><c>H </c><c>   1</c></rc>
    <rc><c>H </c><c>   1</c></rc>
    <rc><c>H </c><c>   1</c></rc>
    <rc><c>H </c><c>   1</c></rc>
    <rc><c>H </c><c>   1</c></rc>
    <rc><c>H </c><c>   1</c></rc>
    <rc><c>H </c><c>   1</c></rc>
    <rc><c>H </c><c>   1</c></rc>
    <rc><c>H </c><c>   1</c></rc>
    <rc><c>H </c><c>   1</c></rc>
    <rc><c>H </c><c>   1</c></rc>
    <rc><c>H </c><c>   1</c></rc>
    <rc><c>H </c><c>   1</c></rc>
    <rc><c>H </c><c>   1</c></rc>
    <rc><c>H </c><c>   1</c></rc>
    <rc><c>H </c><c>   1</c></rc>
    <rc><c>H </c><c>   1</c></rc>
    <rc><c>H </c><c>   1</c></rc>
    <rc><c>H </c><c>   1</c></rc>
    <rc><c>H </c><c>   1</c></rc>
    <rc><c>H </c><c>   1</c></rc>
    <rc><c>H </c><c>   1</c></rc>
    <rc><c>H </c><c>   1</c></rc>
    <rc><c>H </c><c>   1</c></rc>
    <rc><c>H </c><c>   1</c></rc>
    <rc><c>H </c><c>   1</c></rc>
    <rc><c>H </c><c>   1</c></rc>
    <rc><c>H </c><c>   1</c></rc>
    <rc><c>H </c><c>   1</c></rc>
    <rc><c>H </c><c>   1</c></rc>
    <rc><c>H </c><c>   1</c></rc>
    <rc><c>H </c><c>   1</c></rc>
    <rc><c>H </c><c>   1</c></rc>
    <rc><c>H </c><c>   1</c></rc>
    <rc><c>H </c><c>   1</c></rc>
    <rc><c>H </c><c>   1</c></rc>
    <rc><c>H </c><c>   1</c></rc>
    <rc><c>H </c><c>   1</c></rc>
    <rc><c>H </c><c>   1</c></rc>
    <rc><c>H </c><c>   1</c></rc>
    <rc><c>H </c><c>   1</c></rc>
    <rc><c>H </c><c>   1</c></rc>
    <rc><c>H </c><c>   1</c></rc>
    <rc><c>H </c><c>   1</c></rc>
    <rc><c>H </c><c>   1</c></rc>
    <rc><c>H </c><c>   1</c></rc>
    <rc><c>H </c><c>   1</c></rc>
    <rc><c>H </c><c>   1</c></rc>
    <rc><c>H </c><c>   1</c></rc>
    <rc><c>H </c><c>   1</c></rc>
    <rc><c>H </c><c>   1</c></rc>
    <rc><c>H </c><c>   1</c></rc>
    <rc><c>H </c><c>   1</c></rc>
    <rc><c>H </c><c>   1</c></rc>
    <rc><c>H </c><c>   1</c></rc>
    <rc><c>H </c><c>   1</c></rc>
    <rc><c>H </c><c>   1</c></rc>
    <rc><c>H </c><c>   1</c></rc>
    <rc><c>H </c><c>   1</c></rc>
    <rc><c>H </c><c>   1</c></rc>
    <rc><c>H </c><c>   1</c></rc>
    <rc><c>H </c><c>   1</c></rc>
    <rc><c>H </c><c>   1</c></rc>
    <rc><c>H </c><c>   1</c></rc>
    <rc><c>H </c><c>   1</c></rc>
    <rc><c>H </c><c>   1</c></rc>
    <rc><c>H </c><c>   1</c></rc>
    <rc><c>H </c><c>   1</c></rc>
    <rc><c>H </c><c>   1</c></rc>
    <rc><c>H </c><c>   1</c></rc>
    <rc><c>H </c><c>   1</c></rc>
    <rc><c>H </c><c>   1</c></rc>
    <rc><c>H </c><c>   1</c></rc>
    <rc><c>H </c><c>   1</c></rc>
    <rc><c>H </c><c>   1</c></rc>
    <rc><c>H </c><c>   1</c></rc>
    <rc><c>H </c><c>   1</c></rc>
    <rc><c>H </c><c>   1</c></rc>
    <rc><c>H </c><c>   1</c></rc>
    <rc><c>H </c><c>   1</c></rc>
    <rc><c>H </c><c>   1</c></rc>
    <rc><c>H </c><c>   1</c></rc>
    <rc><c>H </c><c>   1</c></rc>
    <rc><c>H </c><c>   1</c></rc>
    <rc><c>H </c><c>   1</c></rc>
    <rc><c>H </c><c>   1</c></rc>
    <rc><c>H </c><c>   1</c></rc>
    <rc><c>H </c><c>   1</c></rc>
    <rc><c>H </c><c>   1</c></rc>
    <rc><c>H </c><c>   1</c></rc>
    <rc><c>H </c><c>   1</c></rc>
    <rc><c>H </c><c>   1</c></rc>
    <rc><c>H </c><c>   1</c></rc>
    <rc><c>H </c><c>   1</c></rc>
    <rc><c>H </c><c>   1</c></rc>
    <rc><c>H </c><c>   1</c></rc>
    <rc><c>H </c><c>   1</c></rc>
    <rc><c>H </c><c>   1</c></rc>
    <rc><c>H </c><c>   1</c></rc>
    <rc><c>H </c><c>   1</c></rc>
    <rc><c>H </c><c>   1</c></rc>
    <rc><c>H </c><c>   1</c></rc>
    <rc><c>H </c><c>   1</c></rc>
    <rc><c>H </c><c>   1</c></rc>
    <rc><c>H </c><c>   1</c></rc>
    <rc><c>H </c><c>   1</c></rc>
    <rc><c>H </c><c>   1</c></rc>
    <rc><c>H </c><c>   1</c></rc>
    <rc><c>H </c><c>   1</c></rc>
    <rc><c>H </c><c>   1</c></rc>
    <rc><c>H </c><c>   1</c></rc>
    <rc><c>H </c><c>   1</c></rc>
    <rc><c>H </c><c>   1</c></rc>
    <rc><c>H </c><c>   1</c></rc>
    <rc><c>H </c><c>   1</c></rc>
    <rc><c>H </c><c>   1</c></rc>
    <rc><c>H </c><c>   1</c></rc>
    <rc><c>H </c><c>   1</c></rc>
    <rc><c>H </c><c>   1</c></rc>
    <rc><c>H </c><c>   1</c></rc>
    <rc><c>H </c><c>   1</c></rc>
    <rc><c>H </c><c>   1</c></rc>
    <rc><c>H </c><c>   1</c></rc>
    <rc><c>H </c><c>   1</c></rc>
    <rc><c>C </c><c>   2</c></rc>
    <rc><c>C </c><c>   2</c></rc>
    <rc><c>C </c><c>   2</c></rc>
    <rc><c>C </c><c>   2</c></rc>
    <rc><c>C </c><c>   2</c></rc>
    <rc><c>C </c><c>   2</c></rc>
    <rc><c>C </c><c>   2</c></rc>
    <rc><c>C </c><c>   2</c></rc>
    <rc><c>C </c><c>   2</c></rc>
    <rc><c>C </c><c>   2</c></rc>
    <rc><c>C </c><c>   2</c></rc>
    <rc><c>C </c><c>   2</c></rc>
    <rc><c>C </c><c>   2</c></rc>
    <rc><c>C </c><c>   2</c></rc>
    <rc><c>C </c><c>   2</c></rc>
    <rc><c>C </c><c>   2</c></rc>
    <rc><c>C </c><c>   2</c></rc>
    <rc><c>C </c><c>   2</c></rc>
    <rc><c>C </c><c>   2</c></rc>
    <rc><c>C </c><c>   2</c></rc>
    <rc><c>C </c><c>   2</c></rc>
    <rc><c>C </c><c>   2</c></rc>
    <rc><c>C </c><c>   2</c></rc>
    <rc><c>C </c><c>   2</c></rc>
    <rc><c>C </c><c>   2</c></rc>
    <rc><c>C </c><c>   2</c></rc>
    <rc><c>C </c><c>   2</c></rc>
    <rc><c>C </c><c>   2</c></rc>
    <rc><c>C </c><c>   2</c></rc>
    <rc><c>C </c><c>   2</c></rc>
    <rc><c>C </c><c>   2</c></rc>
    <rc><c>C </c><c>   2</c></rc>
    <rc><c>C </c><c>   2</c></rc>
    <rc><c>C </c><c>   2</c></rc>
    <rc><c>C </c><c>   2</c></rc>
    <rc><c>C </c><c>   2</c></rc>
    <rc><c>C </c><c>   2</c></rc>
    <rc><c>C </c><c>   2</c></rc>
    <rc><c>C </c><c>   2</c></rc>
    <rc><c>N </c><c>   3</c></rc>
    <rc><c>N </c><c>   3</c></rc>
    <rc><c>N </c><c>   3</c></rc>
    <rc><c>N </c><c>   3</c></rc>
    <rc><c>N </c><c>   3</c></rc>
    <rc><c>N </c><c>   3</c></rc>
    <rc><c>N </c><c>   3</c></rc>
    <rc><c>N </c><c>   3</c></rc>
    <rc><c>N </c><c>   3</c></rc>
    <rc><c>N </c><c>   3</c></rc>
    <rc><c>N </c><c>   3</c></rc>
    <rc><c>N </c><c>   3</c></rc>
    <rc><c>N </c><c>   3</c></rc>
    <rc><c>N </c><c>   3</c></rc>
    <rc><c>N </c><c>   3</c></rc>
    <rc><c>N </c><c>   3</c></rc>
    <rc><c>N </c><c>   3</c></rc>
    <rc><c>N </c><c>   3</c></rc>
    <rc><c>N </c><c>   3</c></rc>
    <rc><c>N </c><c>   3</c></rc>
    <rc><c>N </c><c>   3</c></rc>
    <rc><c>N </c><c>   3</c></rc>
    <rc><c>N </c><c>   3</c></rc>
    <rc><c>N </c><c>   3</c></rc>
    <rc><c>N </c><c>   3</c></rc>
    <rc><c>N </c><c>   3</c></rc>
    <rc><c>N </c><c>   3</c></rc>
    <rc><c>N </c><c>   3</c></rc>
    <rc><c>N </c><c>   3</c></rc>
    <rc><c>N </c><c>   3</c></rc>
    <rc><c>N </c><c>   3</c></rc>
    <rc><c>N </c><c>   3</c></rc>
    <rc><c>N </c><c>   3</c></rc>
    <rc><c>N </c><c>   3</c></rc>
    <rc><c>N </c><c>   3</c></rc>
    <rc><c>N </c><c>   3</c></rc>
    <rc><c>N </c><c>   3</c></rc>
    <rc><c>N </c><c>   3</c></rc>
    <rc><c>N </c><c>   3</c></rc>
    <rc><c>N </c><c>   3</c></rc>
    <rc><c>N </c><c>   3</c></rc>
    <rc><c>N </c><c>   3</c></rc>
    <rc><c>N </c><c>   3</c></rc>
    <rc><c>N </c><c>   3</c></rc>
    <rc><c>N </c><c>   3</c></rc>
    <rc><c>N </c><c>   3</c></rc>
    <rc><c>N </c><c>   3</c></rc>
    <rc><c>I </c><c>   4</c></rc>
    <rc><c>I </c><c>   4</c></rc>
    <rc><c>I </c><c>   4</c></rc>
    <rc><c>I </c><c>   4</c></rc>
    <rc><c>I </c><c>   4</c></rc>
    <rc><c>I </c><c>   4</c></rc>
    <rc><c>I </c><c>   4</c></rc>
    <rc><c>I </c><c>   4</c></rc>
    <rc><c>I </c><c>   4</c></rc>
    <rc><c>I </c><c>   4</c></rc>
    <rc><c>I </c><c>   4</c></rc>
    <rc><c>I </c><c>   4</c></rc>
    <rc><c>I </c><c>   4</c></rc>
    <rc><c>I </c><c>   4</c></rc>
    <rc><c>I </c><c>   4</c></rc>
    <rc><c>I </c><c>   4</c></rc>
    <rc><c>I </c><c>   4</c></rc>
    <rc><c>I </c><c>   4</c></rc>
    <rc><c>I </c><c>   4</c></rc>
    <rc><c>I </c><c>   4</c></rc>
    <rc><c>I </c><c>   4</c></rc>
    <rc><c>I </c><c>   4</c></rc>
    <rc><c>I </c><c>   4</c></rc>
    <rc><c>I </c><c>   4</c></rc>
    <rc><c>I </c><c>   4</c></rc>
    <rc><c>I </c><c>   4</c></rc>
    <rc><c>I </c><c>   4</c></rc>
    <rc><c>I </c><c>   4</c></rc>
    <rc><c>I </c><c>   4</c></rc>
    <rc><c>I </c><c>   4</c></rc>
    <rc><c>I </c><c>   4</c></rc>
    <rc><c>I </c><c>   4</c></rc>
    <rc><c>I </c><c>   4</c></rc>
    <rc><c>I </c><c>   4</c></rc>
    <rc><c>I </c><c>   4</c></rc>
    <rc><c>I </c><c>   4</c></rc>
    <rc><c>I </c><c>   4</c></rc>
    <rc><c>I </c><c>   4</c></rc>
    <rc><c>I </c><c>   4</c></rc>
    <rc><c>I </c><c>   4</c></rc>
    <rc><c>I </c><c>   4</c></rc>
    <rc><c>I </c><c>   4</c></rc>
    <rc><c>I </c><c>   4</c></rc>
    <rc><c>I </c><c>   4</c></rc>
    <rc><c>I </c><c>   4</c></rc>
    <rc><c>I </c><c>   4</c></rc>
    <rc><c>I </c><c>   4</c></rc>
    <rc><c>I </c><c>   4</c></rc>
    <rc><c>I </c><c>   4</c></rc>
    <rc><c>I </c><c>   4</c></rc>
    <rc><c>I </c><c>   4</c></rc>
    <rc><c>I </c><c>   4</c></rc>
    <rc><c>I </c><c>   4</c></rc>
    <rc><c>I </c><c>   4</c></rc>
    <rc><c>I </c><c>   4</c></rc>
    <rc><c>I </c><c>   4</c></rc>
    <rc><c>I </c><c>   4</c></rc>
    <rc><c>I </c><c>   4</c></rc>
    <rc><c>I </c><c>   4</c></rc>
    <rc><c>I </c><c>   4</c></rc>
    <rc><c>I </c><c>   4</c></rc>
    <rc><c>I </c><c>   4</c></rc>
    <rc><c>I </c><c>   4</c></rc>
    <rc><c>I </c><c>   4</c></rc>
    <rc><c>I </c><c>   4</c></rc>
    <rc><c>I </c><c>   4</c></rc>
    <rc><c>I </c><c>   4</c></rc>
    <rc><c>I </c><c>   4</c></rc>
    <rc><c>I </c><c>   4</c></rc>
    <rc><c>I </c><c>   4</c></rc>
    <rc><c>I </c><c>   4</c></rc>
    <rc><c>I </c><c>   4</c></rc>
    <rc><c>Pb</c><c>   5</c></rc>
    <rc><c>Pb</c><c>   5</c></rc>
    <rc><c>Pb</c><c>   5</c></rc>
    <rc><c>Pb</c><c>   5</c></rc>
    <rc><c>Pb</c><c>   5</c></rc>
    <rc><c>Pb</c><c>   5</c></rc>
    <rc><c>Pb</c><c>   5</c></rc>
    <rc><c>Pb</c><c>   5</c></rc>
    <rc><c>Pb</c><c>   5</c></rc>
    <rc><c>Pb</c><c>   5</c></rc>
    <rc><c>Pb</c><c>   5</c></rc>
    <rc><c>Pb</c><c>   5</c></rc>
    <rc><c>Pb</c><c>   5</c></rc>
    <rc><c>Pb</c><c>   5</c></rc>
    <rc><c>Pb</c><c>   5</c></rc>
    <rc><c>Pb</c><c>   5</c></rc>
    <rc><c>Pb</c><c>   5</c></rc>
    <rc><c>Pb</c><c>   5</c></rc>
    <rc><c>Pb</c><c>   5</c></rc>
    <rc><c>Pb</c><c>   5</c></rc>
    <rc><c>Pb</c><c>   5</c></rc>
    <rc><c>Pb</c><c>   5</c></rc>
    <rc><c>Pb</c><c>   5</c></rc>
    <rc><c>Pb</c><c>   5</c></rc>
   </set>
  </array>
  <array name="atomtypes" >
   <dimension dim="1">type</dimension>
   <field type="int">atomspertype</field>
   <field type="string">element</field>
   <field>mass</field>
   <field>valence</field>
   <field type="string">pseudopotential</field>
   <set>
    <rc><c> 143</c><c>H </c><c>      1.00000000</c><c>      1.00000000</c><c>  PAW_PBE H 15Jun2001                   </c></rc>
    <rc><c>  39</c><c>C </c><c>     12.01100000</c><c>      4.00000000</c><c>  PAW_PBE C 08Apr2002                   </c></rc>
    <rc><c>  47</c><c>N </c><c>     14.00100000</c><c>      5.00000000</c><c>  PAW_PBE N 08Apr2002                   </c></rc>
    <rc><c>  72</c><c>I </c><c>    126.90400000</c><c>      7.00000000</c><c>  PAW_PBE I 08Apr2002                   </c></rc>
    <rc><c>  24</c><c>Pb</c><c>    207.20000000</c><c>      4.00000000</c><c>  PAW_PBE Pb 08Apr2002                  </c></rc>
   </set>
  </array>
 </atominfo>
 <structure name="initialpos" >
  <crystal>
   <varray name="basis" >
    <v>      18.06080055       0.00000000       0.00000000 </v>
    <v>      -0.00491865      18.06279945       0.00000000 </v>
    <v>       0.00000000       0.00000000      62.48749924 </v>
   </varray>
   <i name="volume">  20385.21054034 </i>
   <varray name="rec_basis" >
    <v>       0.05536853       0.00001508      -0.00000000 </v>
    <v>       0.00000000       0.05536240       0.00000000 </v>
    <v>       0.00000000      -0.00000000       0.01600320 </v>
   </varray>
  </crystal>
  <varray name="positions" >
   <v>       0.40430067       0.28442616       0.55872424 </v>
   <v>       0.41812754       0.69845606       0.57070479 </v>
   <v>       0.92258085       0.29251744       0.57824383 </v>
   <v>       0.92289190       0.81267739       0.57309784 </v>
   <v>       0.31943229       0.09136815       0.56161282 </v>
   <v>       0.32792516       0.56618900       0.56602361 </v>
   <v>       0.79106654       0.10696805       0.56306404 </v>
   <v>       0.10715276       0.24003604       0.56120533 </v>
   <v>       0.07851137       0.68597484       0.56833200 </v>
   <v>       0.57966568       0.18543641       0.56478923 </v>
   <v>       0.59948079       0.77524213       0.56001808 </v>
   <v>       0.38038656       0.02008233       0.55464231 </v>
   <v>       0.25790354       0.61950971       0.55454536 </v>
   <v>       0.87163603       0.05690739       0.55652800 </v>
   <v>       0.06066422       0.29092041       0.58077766 </v>
   <v>       0.99154590       0.69358885       0.58044453 </v>
   <v>       0.48477849       0.17242171       0.56889974 </v>
   <v>       0.55468039       0.70477077       0.57386582 </v>
   <v>       0.30207798       0.43232132       0.57143571 </v>
   <v>       0.18841243       0.05847260       0.56820844 </v>
   <v>       0.68053440       0.02724775       0.57325931 </v>
   <v>       0.45472919       0.36583489       0.55375346 </v>
   <v>       0.37450924       0.76017715       0.55358643 </v>
   <v>       0.88261450       0.24510594       0.55686321 </v>
   <v>       0.96698354       0.87448624       0.55598401 </v>
   <v>       0.22165176       0.39806609       0.56013523 </v>
   <v>       0.16259771       0.96824365       0.56278639 </v>
   <v>       0.69063029       0.93306244       0.56725750 </v>
   <v>       0.56824389       0.30696722       0.55505706 </v>
   <v>       0.48817391       0.81899485       0.54484946 </v>
   <v>       0.99833456       0.20429523       0.54410456 </v>
   <v>       0.06716734       0.79672990       0.55004764 </v>
   <v>       0.18188619       0.51534623       0.54880423 </v>
   <v>       0.28303985       0.93170337       0.55393281 </v>
   <v>       0.81161866       0.94361145       0.55710264 </v>
   <v>       0.45646633       0.30384471       0.67305155 </v>
   <v>       0.43839727       0.81394940       0.67055520 </v>
   <v>       0.95532340       0.28296681       0.67614940 </v>
   <v>       0.91027514       0.74842718       0.65869840 </v>
   <v>       0.29466134       0.04281589       0.67488370 </v>
   <v>       0.30193141       0.56273856       0.67234102 </v>
   <v>       0.79908465       0.05325539       0.67397855 </v>
   <v>       0.83397379       0.46656728       0.66373279 </v>
   <v>       0.09009881       0.17021837       0.64685008 </v>
   <v>       0.10624043       0.69744065       0.65551740 </v>
   <v>       0.57529476       0.16760216       0.64653996 </v>
   <v>       0.57646184       0.68008626       0.65131020 </v>
   <v>       0.18507799       0.41242936       0.65173283 </v>
   <v>       0.16292938       0.93247326       0.64358795 </v>
   <v>       0.63454824       0.48258035       0.65629710 </v>
   <v>       0.67236093       0.91687712       0.64991441 </v>
   <v>       0.06282685       0.18809228       0.67308323 </v>
   <v>       0.01920572       0.65619123       0.65684756 </v>
   <v>       0.54993137       0.19630409       0.67214805 </v>
   <v>       0.54489113       0.71791798       0.67518540 </v>
   <v>       0.21204397       0.45195963       0.67599690 </v>
   <v>       0.18290677       0.95525414       0.67018672 </v>
   <v>       0.70078115       0.42614760       0.66826519 </v>
   <v>       0.70303552       0.94655702       0.67514242 </v>
   <v>       0.43162618       0.33769854       0.64804948 </v>
   <v>       0.41324133       0.82902990       0.64396730 </v>
   <v>       0.92361363       0.31618799       0.65147527 </v>
   <v>       0.93637095       0.84125632       0.65638104 </v>
   <v>       0.34143882       0.06408445       0.65148748 </v>
   <v>       0.32307368       0.58628686       0.64600873 </v>
   <v>       0.82105856       0.08263203       0.64811150 </v>
   <v>       0.84924412       0.54303271       0.64760866 </v>
   <v>       0.00559943       0.24870408       0.63172804 </v>
   <v>       0.06089256       0.81659382       0.65406533 </v>
   <v>       0.50423664       0.25514178       0.62935604 </v>
   <v>       0.49560153       0.74496540       0.63019746 </v>
   <v>       0.26033428       0.99842411       0.62967215 </v>
   <v>       0.25244750       0.49386216       0.63121005 </v>
   <v>       0.74437594       0.99988084       0.63146956 </v>
   <v>       0.72277219       0.56166740       0.64141204 </v>
   <v>       0.44874502       0.30128397       0.76888902 </v>
   <v>       0.44874501       0.80128391       0.76888902 </v>
   <v>       0.94874497       0.30128397       0.76888902 </v>
   <v>       0.94874501       0.80128391       0.76888902 </v>
   <v>       0.30127600       0.05129450       0.76887296 </v>
   <v>       0.30127601       0.55129450       0.76887296 </v>
   <v>       0.80127594       0.05129450       0.76887296 </v>
   <v>       0.80127598       0.55129450       0.76887296 </v>
   <v>       0.07877100       0.17118050       0.74344197 </v>
   <v>       0.07877101       0.67118045       0.74344197 </v>
   <v>       0.57877100       0.17118050       0.74344197 </v>
   <v>       0.57877099       0.67118045       0.74344197 </v>
   <v>       0.17119950       0.42117448       0.74342103 </v>
   <v>       0.17119950       0.92117451       0.74342103 </v>
   <v>       0.67119951       0.42117448       0.74342103 </v>
   <v>       0.67119950       0.92117451       0.74342103 </v>
   <v>       0.05125600       0.19871499       0.76888902 </v>
   <v>       0.05125600       0.69871493       0.76888902 </v>
   <v>       0.55125603       0.19871499       0.76888902 </v>
   <v>       0.55125602       0.69871493       0.76888902 </v>
   <v>       0.19872349       0.44870397       0.76887205 </v>
   <v>       0.19872349       0.94870397       0.76887205 </v>
   <v>       0.69872352       0.44870397       0.76887205 </v>
   <v>       0.69872351       0.94870397       0.76887205 </v>
   <v>       0.42123152       0.32881747       0.74344197 </v>
   <v>       0.42123151       0.82881744       0.74344197 </v>
   <v>       0.92123147       0.32881747       0.74344197 </v>
   <v>       0.92123151       0.82881744       0.74344197 </v>
   <v>       0.32880050       0.07882500       0.74342103 </v>
   <v>       0.32880049       0.57882496       0.74342103 </v>
   <v>       0.82880048       0.07882500       0.74342103 </v>
   <v>       0.82880052       0.57882496       0.74342103 </v>
   <v>       0.00000350       0.25000148       0.72582199 </v>
   <v>       0.00000350       0.75000145       0.72582199 </v>
   <v>       0.50000351       0.25000148       0.72582199 </v>
   <v>       0.50000350       0.75000145       0.72582199 </v>
   <v>       0.25000050       0.00000000       0.72580398 </v>
   <v>       0.25000052       0.50000000       0.72580398 </v>
   <v>       0.75000050       0.00000000       0.72580398 </v>
   <v>       0.75000049       0.50000000       0.72580398 </v>
   <v>       0.80117840       0.50688704       0.51297888 </v>
   <v>       0.87864030       0.49932081       0.53058171 </v>
   <v>       0.75677358       0.61683524       0.53153380 </v>
   <v>       0.75048240       0.61585020       0.55958928 </v>
   <v>       0.68585903       0.43624873       0.54727896 </v>
   <v>       0.66363777       0.52759762       0.55485445 </v>
   <v>       0.79362097       0.41836435       0.56489576 </v>
   <v>       0.86162379       0.48908640       0.56777769 </v>
   <v>       0.86093542       0.37306263       0.53695054 </v>
   <v>       0.76678226       0.37283309       0.52990793 </v>
   <v>       0.79111574       0.38435450       0.49253293 </v>
   <v>       0.88398000       0.40932705       0.49647787 </v>
   <v>       0.89556367       0.61229781       0.53312763 </v>
   <v>       0.89207558       0.60537318       0.56151893 </v>
   <v>       0.85789265       0.68551587       0.54846456 </v>
   <v>       0.60206572       0.50063246       0.52171720 </v>
   <v>       0.68477272       0.47218337       0.50851571 </v>
   <v>       0.67019419       0.56701174       0.51551308 </v>
   <v>       0.70224476       0.49304586       0.58585631 </v>
   <v>       0.76862296       0.56564576       0.58902644 </v>
   <v>       0.78483996       0.47733368       0.60007248 </v>
   <v>       0.82540994       0.25788452       0.51070145 </v>
   <v>       0.85131849       0.27386900       0.48401414 </v>
   <v>       0.92591354       0.15697494       0.49960441 </v>
   <v>       0.97838602       0.38464692       0.51393916 </v>
   <v>       0.05668810       0.12255646       0.50572908 </v>
   <v>       0.10806419       0.35030581       0.52000855 </v>
   <v>       0.14974910       0.22001067       0.51525937 </v>
   <v>       0.99528267       0.23939825       0.55821651 </v>
   <v>       0.02179964       0.77830239       0.56031080 </v>
   <v>       0.51806658       0.27514997       0.55825949 </v>
   <v>       0.48778117       0.77036658       0.55527873 </v>
   <v>       0.23658787       0.50905312       0.55610482 </v>
   <v>       0.27201128       0.98950253       0.55788411 </v>
   <v>       0.78137611       0.99363384       0.56138035 </v>
   <v>       0.00695551       0.24322687       0.64909766 </v>
   <v>       0.02219685       0.77019346       0.65547613 </v>
   <v>       0.50387679       0.25267732       0.64688097 </v>
   <v>       0.49396795       0.75351704       0.64750958 </v>
   <v>       0.25410342       0.49908417       0.64861575 </v>
   <v>       0.25156831       0.99918882       0.64702211 </v>
   <v>       0.74099305       0.51473980       0.65113243 </v>
   <v>       0.74674633       0.99962114       0.64892765 </v>
   <v>       0.49998898       0.24999498       0.74327702 </v>
   <v>       0.49998903       0.74999496       0.74327702 </v>
   <v>       0.99998898       0.24999498       0.74327702 </v>
   <v>       0.99998903       0.74999496       0.74327702 </v>
   <v>       0.25000050       0.00000100       0.74325596 </v>
   <v>       0.25000052       0.50000100       0.74325596 </v>
   <v>       0.75000050       0.00000100       0.74325596 </v>
   <v>       0.75000049       0.50000100       0.74325596 </v>
   <v>       0.94226566       0.27339123       0.50564557 </v>
   <v>       0.96585325       0.19983123       0.50391713 </v>
   <v>       0.99466455       0.32700756       0.51171752 </v>
   <v>       0.03999731       0.18030175       0.50723207 </v>
   <v>       0.06866051       0.30772312       0.51511969 </v>
   <v>       0.09181898       0.23443236       0.51271546 </v>
   <v>       0.82161160       0.48080751       0.52772573 </v>
   <v>       0.78381422       0.59628902       0.54606863 </v>
   <v>       0.69333201       0.49466754       0.54285113 </v>
   <v>       0.80174818       0.47829333       0.56685062 </v>
   <v>       0.82064028       0.39685069       0.52573479 </v>
   <v>       0.83972392       0.37380974       0.50275788 </v>
   <v>       0.86239616       0.62503916       0.54732511 </v>
   <v>       0.66221966       0.50949213       0.52074710 </v>
   <v>       0.76118037       0.50636777       0.58626173 </v>
   <v>       0.86190270       0.29209614       0.50055999 </v>
   <v>       0.05772053       0.25679000       0.56766090 </v>
   <v>       0.02928834       0.71353725       0.56949379 </v>
   <v>       0.52696001       0.20492987       0.56315652 </v>
   <v>       0.55091882       0.74761262       0.56320292 </v>
   <v>       0.45444079       0.30968002       0.55647049 </v>
   <v>       0.42334053       0.73903167       0.55923814 </v>
   <v>       0.92963331       0.26078723       0.56475010 </v>
   <v>       0.96351880       0.82143057       0.56194791 </v>
   <v>       0.25587157       0.44218393       0.56232139 </v>
   <v>       0.20362737       0.00687052       0.56289567 </v>
   <v>       0.71211819       0.98530932       0.56714707 </v>
   <v>       0.32673626       0.03707496       0.55723810 </v>
   <v>       0.27784815       0.56801865       0.55847913 </v>
   <v>       0.81650248       0.05692499       0.56034401 </v>
   <v>       0.05594576       0.19755261       0.65709401 </v>
   <v>       0.05006564       0.70345616       0.65598051 </v>
   <v>       0.54586721       0.20276370       0.65599956 </v>
   <v>       0.54097904       0.71488834       0.65906517 </v>
   <v>       0.21538966       0.45149037       0.65975317 </v>
   <v>       0.19553905       0.96024411       0.65433357 </v>
   <v>       0.68954616       0.47100947       0.65888807 </v>
   <v>       0.70560974       0.95100876       0.65889351 </v>
   <v>       0.46160552       0.30084171       0.65685849 </v>
   <v>       0.44524990       0.80115181       0.65477397 </v>
   <v>       0.95943512       0.28344626       0.65989413 </v>
   <v>       0.95151314       0.78684744       0.65661772 </v>
   <v>       0.29780855       0.03841210       0.65862832 </v>
   <v>       0.29519051       0.55283751       0.65646089 </v>
   <v>       0.79099476       0.04854044       0.65795393 </v>
   <v>       0.81254710       0.50702442       0.65421343 </v>
   <v>       0.04586250       0.20411950       0.75272599 </v>
   <v>       0.04586250       0.70411946       0.75272599 </v>
   <v>       0.54586251       0.20411950       0.75272599 </v>
   <v>       0.54586250       0.70411946       0.75272599 </v>
   <v>       0.20411900       0.45410100       0.75270499 </v>
   <v>       0.20411899       0.95410095       0.75270499 </v>
   <v>       0.70411898       0.45410100       0.75270499 </v>
   <v>       0.70411896       0.95410095       0.75270499 </v>
   <v>       0.45414002       0.29588849       0.75272697 </v>
   <v>       0.45414001       0.79588852       0.75272697 </v>
   <v>       0.95414002       0.29588849       0.75272697 </v>
[...]
   <v>       0.57966568       0.18543641       0.56478923 </v>
   <v>       0.59948079       0.77524213       0.56001808 </v>
   <v>       0.38038656       0.02008233       0.55464231 </v>
   <v>       0.25790354       0.61950971       0.55454536 </v>
   <v>       0.87163603       0.05690739       0.55652800 </v>
   <v>       0.06066422       0.29092041       0.58077766 </v>
   <v>       0.99154590       0.69358885       0.58044453 </v>
   <v>       0.48477849       0.17242171       0.56889974 </v>
   <v>       0.55468039       0.70477077       0.57386582 </v>
   <v>       0.30207798       0.43232132       0.57143571 </v>
   <v>       0.18841243       0.05847260       0.56820844 </v>
   <v>       0.68053440       0.02724775       0.57325931 </v>
   <v>       0.45472919       0.36583489       0.55375346 </v>
   <v>       0.37450924       0.76017715       0.55358643 </v>
   <v>       0.88261450       0.24510594       0.55686321 </v>
   <v>       0.96698354       0.87448624       0.55598401 </v>
   <v>       0.22165176       0.39806609       0.56013523 </v>
   <v>       0.16259771       0.96824365       0.56278639 </v>
   <v>       0.69063029       0.93306244       0.56725750 </v>
   <v>       0.56824389       0.30696722       0.55505706 </v>
   <v>       0.48817391       0.81899485       0.54484946 </v>
   <v>       0.99833456       0.20429523       0.54410456 </v>
   <v>       0.06716734       0.79672990       0.55004764 </v>
   <v>       0.18188619       0.51534623       0.54880423 </v>
   <v>       0.28303985       0.93170337       0.55393281 </v>
   <v>       0.81161866       0.94361145       0.55710264 </v>
   <v>       0.45646633       0.30384471       0.67305155 </v>
   <v>       0.43839727       0.81394940       0.67055520 </v>
   <v>       0.95532340       0.28296681       0.67614940 </v>
   <v>       0.91027514       0.74842718       0.65869840 </v>
   <v>       0.29466134       0.04281589       0.67488370 </v>
   <v>       0.30193141       0.56273856       0.67234102 </v>
   <v>       0.79908465       0.05325539       0.67397855 </v>
   <v>       0.83397379       0.46656728       0.66373279 </v>
   <v>       0.09009881       0.17021837       0.64685008 </v>
   <v>       0.10624043       0.69744065       0.65551740 </v>
   <v>       0.57529476       0.16760216       0.64653996 </v>
   <v>       0.57646184       0.68008626       0.65131020 </v>
   <v>       0.18507799       0.41242936       0.65173283 </v>
   <v>       0.16292938       0.93247326       0.64358795 </v>
   <v>       0.63454824       0.48258035       0.65629710 </v>
   <v>       0.67236093       0.91687712       0.64991441 </v>
   <v>       0.06282685       0.18809228       0.67308323 </v>
   <v>       0.01920572       0.65619123       0.65684756 </v>
   <v>       0.54993137       0.19630409       0.67214805 </v>
   <v>       0.54489113       0.71791798       0.67518540 </v>
   <v>       0.21204397       0.45195963       0.67599690 </v>
   <v>       0.18290677       0.95525414       0.67018672 </v>
   <v>       0.70078115       0.42614760       0.66826519 </v>
   <v>       0.70303552       0.94655702       0.67514242 </v>
   <v>       0.43162618       0.33769854       0.64804948 </v>
   <v>       0.41324133       0.82902990       0.64396730 </v>
   <v>       0.92361363       0.31618799       0.65147527 </v>
   <v>       0.93637095       0.84125632       0.65638104 </v>
   <v>       0.34143882       0.06408445       0.65148748 </v>
   <v>       0.32307368       0.58628686       0.64600873 </v>
   <v>       0.82105856       0.08263203       0.64811150 </v>
   <v>       0.84924412       0.54303271       0.64760866 </v>
   <v>       0.00559943       0.24870408       0.63172804 </v>
   <v>       0.06089256       0.81659382       0.65406533 </v>
   <v>       0.50423664       0.25514178       0.62935604 </v>
   <v>       0.49560153       0.74496540       0.63019746 </v>
   <v>       0.26033428       0.99842411       0.62967215 </v>
   <v>       0.25244750       0.49386216       0.63121005 </v>
   <v>       0.74437594       0.99988084       0.63146956 </v>
   <v>       0.72277219       0.56166740       0.64141204 </v>
   <v>       0.44874502       0.30128397       0.76888902 </v>
   <v>       0.44874501       0.80128391       0.76888902 </v>
   <v>       0.94874497       0.30128397       0.76888902 </v>
   <v>       0.94874501       0.80128391       0.76888902 </v>
   <v>       0.30127600       0.05129450       0.76887296 </v>
   <v>       0.30127601       0.55129450       0.76887296 </v>
   <v>       0.80127594       0.05129450       0.76887296 </v>
   <v>       0.80127598       0.55129450       0.76887296 </v>
   <v>       0.07877100       0.17118050       0.74344197 </v>
   <v>       0.07877101       0.67118045       0.74344197 </v>
   <v>       0.57877100       0.17118050       0.74344197 </v>
   <v>       0.57877099       0.67118045       0.74344197 </v>
   <v>       0.17119950       0.42117448       0.74342103 </v>
   <v>       0.17119950       0.92117451       0.74342103 </v>
   <v>       0.67119951       0.42117448       0.74342103 </v>
   <v>       0.67119950       0.92117451       0.74342103 </v>
   <v>       0.05125600       0.19871499       0.76888902 </v>
   <v>       0.05125600       0.69871493       0.76888902 </v>
   <v>       0.55125603       0.19871499       0.76888902 </v>
   <v>       0.55125602       0.69871493       0.76888902 </v>
   <v>       0.19872349       0.44870397       0.76887205 </v>
   <v>       0.19872349       0.94870397       0.76887205 </v>
   <v>       0.69872352       0.44870397       0.76887205 </v>
   <v>       0.69872351       0.94870397       0.76887205 </v>
   <v>       0.42123152       0.32881747       0.74344197 </v>
   <v>       0.42123151       0.82881744       0.74344197 </v>
   <v>       0.92123147       0.32881747       0.74344197 </v>
   <v>       0.92123151       0.82881744       0.74344197 </v>
   <v>       0.32880050       0.07882500       0.74342103 </v>
   <v>       0.32880049       0.57882496       0.74342103 </v>
   <v>       0.82880048       0.07882500       0.74342103 </v>
   <v>       0.82880052       0.57882496       0.74342103 </v>
   <v>       0.00000350       0.25000148       0.72582199 </v>
   <v>       0.00000350       0.75000145       0.72582199 </v>
   <v>       0.50000351       0.25000148       0.72582199 </v>
   <v>       0.50000350       0.75000145       0.72582199 </v>
   <v>       0.25000050       0.00000000       0.72580398 </v>
   <v>       0.25000052       0.50000000       0.72580398 </v>
   <v>       0.75000050       0.00000000       0.72580398 </v>
   <v>       0.75000049       0.50000000       0.72580398 </v>
   <v>       0.80117840       0.50688704       0.51297888 </v>
   <v>       0.87864030       0.49932081       0.53058171 </v>
   <v>       0.75677358       0.61683524       0.53153380 </v>
   <v>       0.75048240       0.61585020       0.55958928 </v>
   <v>       0.68585903       0.43624873       0.54727896 </v>
   <v>       0.66363777       0.52759762       0.55485445 </v>
   <v>       0.79362097       0.41836435       0.56489576 </v>
   <v>       0.86162379       0.48908640       0.56777769 </v>
   <v>       0.86093542       0.37306263       0.53695054 </v>
   <v>       0.76678226       0.37283309       0.52990793 </v>
   <v>       0.79111574       0.38435450       0.49253293 </v>
   <v>       0.88398000       0.40932705       0.49647787 </v>
   <v>       0.89556367       0.61229781       0.53312763 </v>
   <v>       0.89207558       0.60537318       0.56151893 </v>
   <v>       0.85789265       0.68551587       0.54846456 </v>
   <v>       0.60206572       0.50063246       0.52171720 </v>
   <v>       0.68477272       0.47218337       0.50851571 </v>
   <v>       0.67019419       0.56701174       0.51551308 </v>
   <v>       0.70224476       0.49304586       0.58585631 </v>
   <v>       0.76862296       0.56564576       0.58902644 </v>
   <v>       0.78483996       0.47733368       0.60007248 </v>
   <v>       0.82540994       0.25788452       0.51070145 </v>
   <v>       0.85131849       0.27386900       0.48401414 </v>
   <v>       0.92591354       0.15697494       0.49960441 </v>
   <v>       0.97838602       0.38464692       0.51393916 </v>
   <v>       0.05668810       0.12255646       0.50572908 </v>
   <v>       0.10806419       0.35030581       0.52000855 </v>
   <v>       0.14974910       0.22001067       0.51525937 </v>
   <v>       0.99528267       0.23939825       0.55821651 </v>
   <v>       0.02179964       0.77830239       0.56031080 </v>
   <v>       0.51806658       0.27514997       0.55825949 </v>
   <v>       0.48778117       0.77036658       0.55527873 </v>
   <v>       0.23658787       0.50905312       0.55610482 </v>
   <v>       0.27201128       0.98950253       0.55788411 </v>
   <v>       0.78137611       0.99363384       0.56138035 </v>
   <v>       0.00695551       0.24322687       0.64909766 </v>
   <v>       0.02219685       0.77019346       0.65547613 </v>
   <v>       0.50387679       0.25267732       0.64688097 </v>
   <v>       0.49396795       0.75351704       0.64750958 </v>
   <v>       0.25410342       0.49908417       0.64861575 </v>
   <v>       0.25156831       0.99918882       0.64702211 </v>
   <v>       0.74099305       0.51473980       0.65113243 </v>
   <v>       0.74674633       0.99962114       0.64892765 </v>
   <v>       0.49998898       0.24999498       0.74327702 </v>
   <v>       0.49998903       0.74999496       0.74327702 </v>
   <v>       0.99998898       0.24999498       0.74327702 </v>
   <v>       0.99998903       0.74999496       0.74327702 </v>
   <v>       0.25000050       0.00000100       0.74325596 </v>
   <v>       0.25000052       0.50000100       0.74325596 </v>
   <v>       0.75000050       0.00000100       0.74325596 </v>
   <v>       0.75000049       0.50000100       0.74325596 </v>
   <v>       0.94226566       0.27339123       0.50564557 </v>
   <v>       0.96585325       0.19983123       0.50391713 </v>
   <v>       0.99466455       0.32700756       0.51171752 </v>
   <v>       0.03999731       0.18030175       0.50723207 </v>
   <v>       0.06866051       0.30772312       0.51511969 </v>
   <v>       0.09181898       0.23443236       0.51271546 </v>
   <v>       0.82161160       0.48080751       0.52772573 </v>
   <v>       0.78381422       0.59628902       0.54606863 </v>
   <v>       0.69333201       0.49466754       0.54285113 </v>
   <v>       0.80174818       0.47829333       0.56685062 </v>
   <v>       0.82064028       0.39685069       0.52573479 </v>
   <v>       0.83972392       0.37380974       0.50275788 </v>
   <v>       0.86239616       0.62503916       0.54732511 </v>
   <v>       0.66221966       0.50949213       0.52074710 </v>
   <v>       0.76118037       0.50636777       0.58626173 </v>
   <v>       0.86190270       0.29209614       0.50055999 </v>
   <v>       0.05772053       0.25679000       0.56766090 </v>
   <v>       0.02928834       0.71353725       0.56949379 </v>
   <v>       0.52696001       0.20492987       0.56315652 </v>
   <v>       0.55091882       0.74761262       0.56320292 </v>
   <v>       0.45444079       0.30968002       0.55647049 </v>
   <v>       0.42334053       0.73903167       0.55923814 </v>
   <v>       0.92963331       0.26078723       0.56475010 </v>
   <v>       0.96351880       0.82143057       0.56194791 </v>
   <v>       0.25587157       0.44218393       0.56232139 </v>
   <v>       0.20362737       0.00687052       0.56289567 </v>
   <v>       0.71211819       0.98530932       0.56714707 </v>
   <v>       0.32673626       0.03707496       0.55723810 </v>
   <v>       0.27784815       0.56801865       0.55847913 </v>
   <v>       0.81650248       0.05692499       0.56034401 </v>
   <v>       0.05594576       0.19755261       0.65709401 </v>
   <v>       0.05006564       0.70345616       0.65598051 </v>
   <v>       0.54586721       0.20276370       0.65599956 </v>
   <v>       0.54097904       0.71488834       0.65906517 </v>
   <v>       0.21538966       0.45149037       0.65975317 </v>
   <v>       0.19553905       0.96024411       0.65433357 </v>
   <v>       0.68954616       0.47100947       0.65888807 </v>
   <v>       0.70560974       0.95100876       0.65889351 </v>
   <v>       0.46160552       0.30084171       0.65685849 </v>
   <v>       0.44524990       0.80115181       0.65477397 </v>
   <v>       0.95943512       0.28344626       0.65989413 </v>
   <v>       0.95151314       0.78684744       0.65661772 </v>
   <v>       0.29780855       0.03841210       0.65862832 </v>
   <v>       0.29519051       0.55283751       0.65646089 </v>
   <v>       0.79099476       0.04854044       0.65795393 </v>
   <v>       0.81254710       0.50702442       0.65421343 </v>
   <v>       0.04586250       0.20411950       0.75272599 </v>
   <v>       0.04586250       0.70411946       0.75272599 </v>
   <v>       0.54586251       0.20411950       0.75272599 </v>
   <v>       0.54586250       0.70411946       0.75272599 </v>
   <v>       0.20411900       0.45410100       0.75270499 </v>
   <v>       0.20411899       0.95410095       0.75270499 </v>
   <v>       0.70411898       0.45410100       0.75270499 </v>
   <v>       0.70411896       0.95410095       0.75270499 </v>
   <v>       0.45414002       0.29588849       0.75272697 </v>
   <v>       0.45414001       0.79588852       0.75272697 </v>
   <v>       0.95414002       0.29588849       0.75272697 </v>
   <v>       0.95414006       0.79588852       0.75272697 </v>
   <v>       0.29588249       0.04590050       0.75270499 </v>
   <v>       0.29588248       0.54590053       0.75270499 </v>
   <v>       0.79588244       0.04590050       0.75270499 </v>
   <v>       0.79588248       0.54590053       0.75270499 </v>
   <v>       0.77542815       0.51244257       0.54576749 </v>
   <v>       0.51531940       0.98462171       0.55328321 </v>
   <v>       0.47489286       0.50873675       0.55300001 </v>
   <v>       0.00493184       0.01337610       0.55187332 </v>
   <v>       0.02869033       0.48300949       0.55378703 </v>
   <v>       0.25915759       0.23587936       0.55386145 </v>
   <v>       0.22845623       0.76390858       0.55089888 </v>
   <v>       0.73245271       0.23436874       0.55422016 </v>
   <v>       0.73832749       0.79400802       0.55354388 </v>
   <v>       0.99506793       0.98758486       0.65438107 </v>
   <v>       0.00878261       0.50469588       0.65486951 </v>
   <v>       0.49695230       0.00393558       0.65454284 </v>
   <v>       0.49560176       0.50771522       0.65427051 </v>
   <v>       0.26156550       0.24242701       0.65492622 </v>
   <v>       0.24482045       0.75413688       0.65365784 </v>
   <v>       0.74555646       0.27225716       0.65510802 </v>
   <v>       0.75357762       0.73463452       0.65404445 </v>
   <v>       0.13574894       0.11693065       0.60791804 </v>
   <v>       0.14655657       0.60859674       0.60534324 </v>
   <v>       0.63605335       0.11554984       0.60762709 </v>
   <v>       0.61945905       0.63207942       0.60609052 </v>
   <v>       0.36829266       0.38423790       0.60734664 </v>
   <v>       0.36490964       0.88362029       0.60424433 </v>
   <v>       0.88871469       0.36864314       0.61050077 </v>
   <v>       0.86164139       0.89145616       0.60698493 </v>
   <v>       0.12549067       0.36633800       0.61126624 </v>
   <v>       0.11441145       0.87323715       0.60513526 </v>
   <v>       0.60986070       0.36440148       0.60244386 </v>
   <v>       0.61903801       0.86501655       0.61201920 </v>
   <v>       0.39431639       0.13569197       0.60408451 </v>
   <v>       0.37985933       0.63533213       0.60662750 </v>
   <v>       0.88089463       0.13649038       0.61218971 </v>
   <v>       0.90158185       0.64547224       0.60915016 </v>
   <v>       0.00000000       0.00000000       0.75492797 </v>
   <v>       0.00000000       0.50000000       0.75492797 </v>
   <v>       0.50000000       0.00000000       0.75492797 </v>
   <v>       0.49999999       0.50000000       0.75492797 </v>
   <v>       0.25000050       0.25000000       0.75493902 </v>
   <v>       0.25000051       0.74999997       0.75493902 </v>
   <v>       0.75000047       0.25000000       0.75493902 </v>
   <v>       0.75000046       0.74999997       0.75493902 </v>
   <v>       0.13579050       0.11421000       0.70478299 </v>
   <v>       0.13579050       0.61420998       0.70478299 </v>
   <v>       0.63579045       0.11421000       0.70478299 </v>
   <v>       0.63579049       0.61420998       0.70478299 </v>
   <v>       0.36420952       0.38578999       0.70478299 </v>
   <v>       0.36420950       0.88578996       0.70478299 </v>
   <v>       0.86420954       0.38578999       0.70478299 </v>
   <v>       0.86420953       0.88578996       0.70478299 </v>
   <v>       0.11421799       0.36421899       0.70478098 </v>
   <v>       0.11421799       0.86421899       0.70478098 </v>
   <v>       0.61421800       0.36421899       0.70478098 </v>
   <v>       0.61421799       0.86421899       0.70478098 </v>
   <v>       0.38578201       0.13578149       0.70478202 </v>
   <v>       0.38578200       0.63578149       0.70478202 </v>
   <v>       0.88578199       0.13578149       0.70478202 </v>
   <v>       0.88578203       0.63578149       0.70478202 </v>
   <v>       0.13466700       0.11533200       0.80125603 </v>
   <v>       0.13466699       0.61533199       0.80125603 </v>
   <v>       0.63466699       0.11533200       0.80125603 </v>
   <v>       0.63466698       0.61533199       0.80125603 </v>
   <v>       0.36533300       0.38466799       0.80125603 </v>
   <v>       0.36533299       0.88466796       0.80125603 </v>
   <v>       0.86533295       0.38466799       0.80125603 </v>
   <v>       0.86533294       0.88466796       0.80125603 </v>
   <v>       0.11532850       0.36533700       0.80126500 </v>
   <v>       0.11532850       0.86533698       0.80126500 </v>
   <v>       0.61532850       0.36533700       0.80126500 </v>
   <v>       0.61532849       0.86533698       0.80126500 </v>
   <v>       0.38467151       0.13466300       0.80126500 </v>
   <v>       0.38467150       0.63466297       0.80126500 </v>
   <v>       0.88467149       0.13466300       0.80126500 </v>
   <v>       0.88467153       0.63466297       0.80126500 </v>
   <v>       0.99579834       0.00732080       0.60403079 </v>
   <v>       0.01054508       0.49967123       0.60337679 </v>
   <v>       0.50167345       0.99245615       0.60375192 </v>
   <v>       0.49986324       0.50160114       0.60298407 </v>
   <v>       0.25646198       0.24649030       0.60536333 </v>
   <v>       0.24251219       0.75508117       0.60299396 </v>
   <v>       0.74680588       0.25339183       0.60556021 </v>
   <v>       0.75315858       0.75656389       0.60374643 </v>
   <v>       0.00000050       0.00000050       0.70482896 </v>
   <v>       0.00000050       0.50000048       0.70482896 </v>
   <v>       0.50000048       0.00000050       0.70482896 </v>
   <v>       0.50000046       0.50000048       0.70482896 </v>
   <v>       0.24999999       0.24999947       0.70482499 </v>
   <v>       0.25000001       0.74999950       0.70482499 </v>
   <v>       0.74999999       0.24999947       0.70482499 </v>
   <v>       0.74999998       0.74999950       0.70482499 </v>
   <v>       0.00000000       0.00000000       0.80731797 </v>
   <v>       0.00000000       0.50000000       0.80731797 </v>
   <v>       0.50000000       0.00000000       0.80731797 </v>
   <v>       0.49999999       0.50000000       0.80731797 </v>
   <v>       0.24999999       0.25000000       0.80731797 </v>
   <v>       0.25000001       0.74999997       0.80731797 </v>
   <v>       0.74999999       0.25000000       0.80731797 </v>
   <v>       0.74999998       0.74999997       0.80731797 </v>
  </varray>
 </structure>
</modeling>
