<?xml version="1.0" encoding="ISO-8859-1"?>
<modeling>
 <generator>
  <i name="program" type="string">vasp </i>
  <i name="version" type="string">6.2.1  </i>
  <i name="subversion" type="string">16May21 (build Nov 15 2021 14:57:28) complex                          parallel </i>
  <i name="platform" type="string">LinuxPGI </i>
  <i name="date" type="string">2023 07 30 </i>
  <i name="time" type="string">11:57:33 </i>
 </generator>
 <incar>
  <i type="string" name="SYSTEM">PSC</i>
  <i type="int" name="ISTART">     1</i>
  <i type="string" name="PREC">Normal</i>
  <i name="BMIX">      0.01000000</i>
  <i name="AMIN">      0.01000000</i>
  <i type="int" name="ICHARG">     1</i>
  <i type="int" name="NELM">   600</i>
  <i type="int" name="ISYM">     0</i>
  <i name="ENCUT">    500.00000000</i>
  <i type="string" name="LREAL">Auto</i>
  <i type="int" name="ISMEAR">     0</i>
  <i name="SIGMA">      0.05000000</i>
  <i type="logical" name="LWAVE"> F  </i>
  <i type="logical" name="LVTOT"> T  </i>
  <i type="logical" name="GGA_COMPAT"> F  </i>
  <i type="logical" name="LDIPOL"> T  </i>
  <i type="int" name="IDIPOL">     3</i>
  <i type="int" name="IVDW">    12</i>
 </incar>
 <primitive_cell>
  <structure name="primitive_cell" >
   <crystal>
    <varray name="basis" >
     <v>      18.06080055       0.00000000       0.00000000 </v>
     <v>      -0.00491865      18.06279945       0.00000000 </v>
     <v>       0.00000000       0.00000000      62.48749924 </v>
    </varray>
    <i name="volume">  20385.21054034 </i>
    <varray name="rec_basis" >
     <v>       0.05536853       0.00001508      -0.00000000 </v>
     <v>       0.00000000       0.05536240       0.00000000 </v>
     <v>       0.00000000      -0.00000000       0.01600320 </v>
    </varray>
   </crystal>
   <varray name="positions" >
    <v>       0.42097527       0.25642234       0.57597708 </v>
    <v>       0.41005540       0.71996062       0.57450089 </v>
    <v>       0.92122456       0.28096794       0.58097130 </v>
    <v>       0.93901540       0.81555577       0.57626846 </v>
    <v>       0.31744938       0.07523952       0.57319643 </v>
    <v>       0.30867575       0.58108935       0.57260989 </v>
    <v>       0.79913552       0.07947362       0.57708234 </v>
    <v>       0.10866248       0.22672931       0.56522334 </v>
    <v>       0.08077407       0.67381252       0.56949507 </v>
    <v>       0.61021977       0.20057451       0.56537095 </v>
    <v>       0.60194812       0.74257419       0.56088519 </v>
    <v>       0.37434279       0.01248351       0.55932562 </v>
    <v>       0.25359596       0.62225361       0.55266834 </v>
    <v>       0.87258796       0.03376750       0.56391180 </v>
    <v>       0.05988722       0.27834009       0.58419692 </v>
    <v>       0.99808220       0.69073872       0.58311529 </v>
    <v>       0.52747808       0.17298985       0.57868648 </v>
    <v>       0.54346738       0.68880443       0.57725041 </v>
    <v>       0.29243711       0.44598388       0.57909721 </v>
    <v>       0.18189871       0.05137870       0.57175858 </v>
    <v>       0.67631832       0.02189680       0.57426806 </v>
    <v>       0.43535215       0.34048945       0.56145403 </v>
    <v>       0.38507528       0.79166275       0.55694178 </v>
    <v>       0.88282692       0.23011686       0.56018400 </v>
    <v>       0.98562817       0.87301044       0.55864164 </v>
    <v>       0.22190200       0.40323401       0.56465817 </v>
    <v>       0.15217065       0.97899054       0.55552872 </v>
    <v>       0.67342296       0.93525733       0.56076084 </v>
    <v>       0.55619004       0.30591712       0.55134819 </v>
    <v>       0.50995980       0.81141769       0.54657032 </v>
    <v>       0.99991636       0.19271342       0.54684161 </v>
    <v>       0.07951656       0.78725467       0.55167736 </v>
    <v>       0.18916951       0.51035622       0.54603884 </v>
    <v>       0.27448403       0.94408232       0.54638193 </v>
    <v>       0.79577576       0.93630930       0.55222910 </v>
    <v>       0.44451081       0.28289268       0.67615166 </v>
    <v>       0.43126065       0.82135760       0.67185472 </v>
    <v>       0.97194510       0.27608959       0.68149617 </v>
    <v>       0.92734756       0.76762078       0.67331759 </v>
    <v>       0.29433996       0.04694688       0.67534632 </v>
    <v>       0.30764029       0.55360825       0.67262477 </v>
    <v>       0.79458657       0.06077765       0.67506404 </v>
    <v>       0.81521881       0.53905335       0.67499292 </v>
    <v>       0.08604920       0.16493433       0.64503447 </v>
    <v>       0.10063619       0.68847259       0.65308735 </v>
    <v>       0.58079387       0.17374256       0.64633057 </v>
    <v>       0.56262175       0.67692262       0.65613539 </v>
    <v>       0.18114292       0.40755946       0.65451543 </v>
    <v>       0.16538029       0.92318894       0.64800699 </v>
    <v>       0.65996526       0.44045890       0.64992223 </v>
    <v>       0.67009578       0.92081654       0.65238219 </v>
    <v>       0.07184568       0.17722641       0.67255102 </v>
    <v>       0.03425801       0.67070479       0.67250609 </v>
    <v>       0.54075773       0.17816479       0.67172585 </v>
    <v>       0.52532821       0.71636836       0.67912344 </v>
    <v>       0.21921853       0.44297394       0.67808136 </v>
    <v>       0.18706274       0.95390587       0.67386336 </v>
    <v>       0.70656414       0.44397298       0.67430589 </v>
    <v>       0.69519874       0.95823533       0.67711083 </v>
    <v>       0.43184061       0.33825321       0.65356090 </v>
    <v>       0.41606856       0.83890840       0.64443212 </v>
    <v>       0.93252849       0.31754524       0.65956716 </v>
    <v>       0.93430765       0.83748693       0.65438888 </v>
    <v>       0.33563346       0.06482425       0.65082317 </v>
    <v>       0.31499185       0.58304973       0.64606965 </v>
    <v>       0.82643773       0.07843307       0.64895457 </v>
    <v>       0.82890320       0.58710127       0.65197385 </v>
    <v>       0.99990121       0.25236410       0.63479872 </v>
    <v>       0.04296511       0.79146338       0.63951957 </v>
    <v>       0.51542344       0.27493575       0.63296101 </v>
    <v>       0.49780220       0.74935605       0.63273257 </v>
    <v>       0.25716667       0.98852254       0.63194372 </v>
    <v>       0.23669342       0.49158473       0.63277879 </v>
    <v>       0.75012635       0.99154031       0.63310490 </v>
    <v>       0.73123525       0.53134061       0.63400712 </v>
    <v>       0.44874502       0.30128397       0.76888902 </v>
    <v>       0.44874501       0.80128391       0.76888902 </v>
    <v>       0.94874497       0.30128397       0.76888902 </v>
    <v>       0.94874501       0.80128391       0.76888902 </v>
    <v>       0.30127600       0.05129450       0.76887296 </v>
    <v>       0.30127601       0.55129450       0.76887296 </v>
    <v>       0.80127594       0.05129450       0.76887296 </v>
    <v>       0.80127598       0.55129450       0.76887296 </v>
    <v>       0.07877100       0.17118050       0.74344197 </v>
    <v>       0.07877101       0.67118045       0.74344197 </v>
    <v>       0.57877100       0.17118050       0.74344197 </v>
    <v>       0.57877099       0.67118045       0.74344197 </v>
    <v>       0.17119950       0.42117448       0.74342103 </v>
    <v>       0.17119950       0.92117451       0.74342103 </v>
    <v>       0.67119951       0.42117448       0.74342103 </v>
    <v>       0.67119950       0.92117451       0.74342103 </v>
    <v>       0.05125600       0.19871499       0.76888902 </v>
    <v>       0.05125600       0.69871493       0.76888902 </v>
    <v>       0.55125603       0.19871499       0.76888902 </v>
    <v>       0.55125602       0.69871493       0.76888902 </v>
    <v>       0.19872349       0.44870397       0.76887205 </v>
    <v>       0.19872349       0.94870397       0.76887205 </v>
    <v>       0.69872352       0.44870397       0.76887205 </v>
    <v>       0.69872351       0.94870397       0.76887205 </v>
    <v>       0.42123152       0.32881747       0.74344197 </v>
    <v>       0.42123151       0.82881744       0.74344197 </v>
    <v>       0.92123147       0.32881747       0.74344197 </v>
    <v>       0.92123151       0.82881744       0.74344197 </v>
    <v>       0.32880050       0.07882500       0.74342103 </v>
    <v>       0.32880049       0.57882496       0.74342103 </v>
    <v>       0.82880048       0.07882500       0.74342103 </v>
    <v>       0.82880052       0.57882496       0.74342103 </v>
    <v>       0.00000350       0.25000148       0.72582199 </v>
    <v>       0.00000350       0.75000145       0.72582199 </v>
    <v>       0.50000351       0.25000148       0.72582199 </v>
    <v>       0.50000350       0.75000145       0.72582199 </v>
    <v>       0.25000050       0.00000000       0.72580398 </v>
    <v>       0.25000052       0.50000000       0.72580398 </v>
    <v>       0.75000050       0.00000000       0.72580398 </v>
    <v>       0.75000049       0.50000000       0.72580398 </v>
    <v>       0.79326730       0.50953405       0.51687023 </v>
    <v>       0.87327306       0.50484630       0.53293747 </v>
    <v>       0.75598202       0.62793997       0.53623848 </v>
    <v>       0.76754224       0.62483769       0.56408206 </v>
    <v>       0.68362191       0.45312921       0.55375364 </v>
    <v>       0.66961873       0.54564377       0.56138255 </v>
    <v>       0.79897872       0.42995894       0.56916059 </v>
    <v>       0.86617785       0.50037312       0.57079562 </v>
    <v>       0.86084760       0.37883466       0.54029898 </v>
    <v>       0.76581605       0.37417851       0.53506106 </v>
    <v>       0.77781727       0.37949640       0.49806770 </v>
    <v>       0.86874466       0.41440500       0.49864655 </v>
    <v>       0.89696970       0.61453590       0.53152166 </v>
    <v>       0.90336289       0.60930460       0.56005208 </v>
    <v>       0.87052632       0.69057864       0.54760495 </v>
    <v>       0.59504892       0.52041888       0.52898239 </v>
    <v>       0.67485896       0.48652381       0.51498069 </v>
    <v>       0.66562604       0.58209024       0.52189094 </v>
    <v>       0.71578498       0.49022002       0.59436613 </v>
    <v>       0.76546743       0.57636301       0.59186405 </v>
    <v>       0.80655663       0.50021621       0.60409806 </v>
    <v>       0.82916472       0.26049658       0.51516255 </v>
    <v>       0.84708615       0.27780118       0.48819213 </v>
    <v>       0.93255994       0.16750395       0.49988868 </v>
    <v>       0.97225664       0.39571530       0.51623759 </v>
    <v>       0.06768645       0.14197201       0.50286224 </v>
    <v>       0.10720898       0.36970839       0.51897575 </v>
    <v>       0.15533558       0.24355950       0.51186990 </v>
    <v>       0.99611213       0.22704609       0.56124598 </v>
    <v>       0.03274509       0.77217005       0.56229569 </v>
    <v>       0.52275040       0.26927409       0.56136796 </v>
    <v>       0.49567657       0.76690817       0.55770682 </v>
    <v>       0.23394488       0.51248893       0.55782977 </v>
    <v>       0.26396035       0.99289085       0.55646097 </v>
    <v>       0.77311769       0.98353359       0.56115521 </v>
    <v>       0.00903998       0.24133962       0.65179461 </v>
    <v>       0.01771053       0.76266482       0.65298003 </v>
    <v>       0.50666993       0.25651561       0.64945265 </v>
    <v>       0.49011396       0.75789566       0.64977407 </v>
    <v>       0.24811049       0.49493686       0.64982651 </v>
    <v>       0.25056252       0.99410984       0.64900365 </v>
    <v>       0.74408398       0.51444413       0.65028149 </v>
    <v>       0.74846594       0.99907805       0.65034431 </v>
    <v>       0.49998898       0.24999498       0.74327702 </v>
    <v>       0.49998903       0.74999496       0.74327702 </v>
    <v>       0.99998898       0.24999498       0.74327702 </v>
    <v>       0.99998903       0.74999496       0.74327702 </v>
    <v>       0.25000050       0.00000100       0.74325596 </v>
    <v>       0.25000052       0.50000100       0.74325596 </v>
    <v>       0.75000050       0.00000100       0.74325596 </v>
    <v>       0.75000049       0.50000100       0.74325596 </v>
    <v>       0.94278853       0.28428361       0.50778546 </v>
    <v>       0.97093376       0.21249936       0.50426217 </v>
    <v>       0.99253933       0.34026995       0.51314469 </v>
    <v>       0.04635712       0.19792574       0.50554658 </v>
    <v>       0.06824417       0.32543628       0.51501671 </v>
    <v>       0.09611154       0.25477706       0.51088868 </v>
    <v>       0.81650449       0.48484542       0.53123559 </v>
    <v>       0.79025053       0.60492588       0.54898816 </v>
    <v>       0.69250729       0.51002750       0.54884946 </v>
    <v>       0.80631028       0.48928159       0.57077017 </v>
    <v>       0.81716255       0.40021709       0.52975769 </v>
    <v>       0.83112587       0.37537931       0.50655188 </v>
    <v>       0.87011108       0.62992226       0.54673680 </v>
    <v>       0.65578707       0.52534174       0.52733716 </v>
    <v>       0.76990831       0.51642632       0.59106573 </v>
    <v>       0.86068880       0.29676282       0.50440789 </v>
    <v>       0.05761739       0.24257577       0.57155121 </v>
    <v>       0.03610140       0.70744122       0.57175053 </v>
    <v>       0.55443527       0.20780753       0.56807029 </v>
    <v>       0.54950663       0.72544207       0.56491139 </v>
    <v>       0.45380367       0.28892880       0.56607685 </v>
    <v>       0.42636963       0.76054331       0.56344369 </v>
    <v>       0.93000375       0.25096897       0.56709292 </v>
    <v>       0.97913061       0.82072683       0.56478295 </v>
    <v>       0.24945292       0.45096762       0.56822065 </v>
    <v>       0.19458497       0.00854321       0.56149231 </v>
    <v>       0.70138074       0.98177276       0.56491487 </v>
    <v>       0.32190650       0.03112307       0.56283395 </v>
    <v>       0.26783618       0.57658191       0.56094960 </v>
    <v>       0.81802407       0.03636473       0.56777366 </v>
    <v>       0.05808403       0.19188057       0.65714279 </v>
    <v>       0.05199779       0.70361714       0.66019235 </v>
    <v>       0.54408746       0.19927594       0.65648390 </v>
    <v>       0.52920027       0.71551362       0.66256019 </v>
    <v>       0.21414777       0.44495253       0.66167659 </v>
    <v>       0.19688263       0.95447716       0.65765534 </v>
    <v>       0.70159325       0.46331304       0.65886494 </v>
    <v>       0.70165375       0.95642256       0.66074001 </v>
    <v>       0.45791967       0.29442148       0.66061809 </v>
    <v>       0.44337931       0.80937331       0.65600786 </v>
    <v>       0.96887161       0.28066364       0.66544779 </v>
    <v>       0.95553080       0.78985912       0.66053623 </v>
    <v>       0.29709361       0.03819856       0.65907207 </v>
    <v>       0.29306690       0.54671071       0.65684799 </v>
    <v>       0.79233764       0.04864749       0.65896945 </v>
    <v>       0.79935482       0.54756746       0.65961838 </v>
    <v>       0.04586250       0.20411950       0.75272599 </v>
    <v>       0.04586250       0.70411946       0.75272599 </v>
    <v>       0.54586251       0.20411950       0.75272599 </v>
    <v>       0.54586250       0.70411946       0.75272599 </v>
    <v>       0.20411900       0.45410100       0.75270499 </v>
    <v>       0.20411899       0.95410095       0.75270499 </v>
    <v>       0.70411898       0.45410100       0.75270499 </v>
    <v>       0.70411896       0.95410095       0.75270499 </v>
    <v>       0.45414002       0.29588849       0.75272697 </v>
    <v>       0.45414001       0.79588852       0.75272697 </v>
    <v>       0.95414002       0.29588849       0.75272697 </v>
    <v>       0.95414006       0.79588852       0.75272697 </v>
    <v>       0.29588249       0.04590050       0.75270499 </v>
    <v>       0.29588248       0.54590053       0.75270499 </v>
    <v>       0.79588244       0.04590050       0.75270499 </v>
    <v>       0.79588248       0.54590053       0.75270499 </v>
    <v>       0.77635201       0.52120039       0.54981145 </v>
    <v>       0.50601719       0.97717233       0.55494992 </v>
    <v>       0.45552607       0.48457605       0.55443755 </v>
    <v>       0.00399531       0.01589724       0.55300215 </v>
    <v>       0.03756128       0.49374189       0.55595312 </v>
    <v>       0.24967662       0.24581995       0.55630847 </v>
    <v>       0.23417734       0.76821333       0.55199725 </v>
    <v>       0.74337221       0.22308389       0.55526139 </v>
    <v>       0.71593894       0.79494587       0.54837598 </v>
    <v>       0.99848026       0.99065766       0.65477842 </v>
    <v>       0.00451660       0.50103024       0.65610187 </v>
    <v>       0.49798581       0.00755818       0.65570500 </v>
    <v>       0.49872222       0.50240546       0.65443711 </v>
    <v>       0.25888072       0.23782419       0.65614173 </v>
    <v>       0.24716891       0.74946101       0.65402211 </v>
    <v>       0.74064147       0.25389642       0.65542058 </v>
    <v>       0.75339159       0.75108724       0.65408981 </v>
    <v>       0.14367957       0.10948862       0.60897440 </v>
    <v>       0.14339119       0.61081372       0.61013339 </v>
    <v>       0.64521206       0.10736353       0.60908624 </v>
    <v>       0.61149612       0.63734794       0.61329460 </v>
    <v>       0.36433089       0.38530723       0.61327311 </v>
    <v>       0.36379252       0.88659117       0.60692797 </v>
    <v>       0.89046321       0.36043397       0.61568107 </v>
    <v>       0.86617143       0.88571826       0.60754321 </v>
    <v>       0.11955907       0.36443057       0.61336841 </v>
    <v>       0.11871004       0.87648975       0.60710367 </v>
    <v>       0.61553566       0.36965153       0.60650986 </v>
    <v>       0.62036389       0.86862928       0.61189766 </v>
    <v>       0.39725011       0.14279317       0.60569317 </v>
    <v>       0.37728585       0.63480204       0.60640046 </v>
    <v>       0.88643072       0.13750607       0.61397015 </v>
    <v>       0.91214090       0.66069768       0.61341236 </v>
    <v>       0.00000000       0.00000000       0.75492797 </v>
    <v>       0.00000000       0.50000000       0.75492797 </v>
    <v>       0.50000000       0.00000000       0.75492797 </v>
    <v>       0.49999999       0.50000000       0.75492797 </v>
    <v>       0.25000050       0.25000000       0.75493902 </v>
    <v>       0.25000051       0.74999997       0.75493902 </v>
    <v>       0.75000047       0.25000000       0.75493902 </v>
    <v>       0.75000046       0.74999997       0.75493902 </v>
    <v>       0.13579050       0.11421000       0.70478299 </v>
    <v>       0.13579050       0.61420998       0.70478299 </v>
    <v>       0.63579045       0.11421000       0.70478299 </v>
    <v>       0.63579049       0.61420998       0.70478299 </v>
    <v>       0.36420952       0.38578999       0.70478299 </v>
    <v>       0.36420950       0.88578996       0.70478299 </v>
    <v>       0.86420954       0.38578999       0.70478299 </v>
    <v>       0.86420953       0.88578996       0.70478299 </v>
    <v>       0.11421799       0.36421899       0.70478098 </v>
    <v>       0.11421799       0.86421899       0.70478098 </v>
    <v>       0.61421800       0.36421899       0.70478098 </v>
    <v>       0.61421799       0.86421899       0.70478098 </v>
    <v>       0.38578201       0.13578149       0.70478202 </v>
    <v>       0.38578200       0.63578149       0.70478202 </v>
    <v>       0.88578199       0.13578149       0.70478202 </v>
    <v>       0.88578203       0.63578149       0.70478202 </v>
    <v>       0.13466700       0.11533200       0.80125603 </v>
    <v>       0.13466699       0.61533199       0.80125603 </v>
    <v>       0.63466699       0.11533200       0.80125603 </v>
    <v>       0.63466698       0.61533199       0.80125603 </v>
    <v>       0.36533300       0.38466799       0.80125603 </v>
    <v>       0.36533299       0.88466796       0.80125603 </v>
    <v>       0.86533295       0.38466799       0.80125603 </v>
    <v>       0.86533294       0.88466796       0.80125603 </v>
    <v>       0.11532850       0.36533700       0.80126500 </v>
    <v>       0.11532850       0.86533698       0.80126500 </v>
    <v>       0.61532850       0.36533700       0.80126500 </v>
    <v>       0.61532849       0.86533698       0.80126500 </v>
    <v>       0.38467151       0.13466300       0.80126500 </v>
    <v>       0.38467150       0.63466297       0.80126500 </v>
    <v>       0.88467149       0.13466300       0.80126500 </v>
    <v>       0.88467153       0.63466297       0.80126500 </v>
    <v>       0.99896760       0.00777286       0.60494100 </v>
    <v>       0.00791408       0.50366627       0.60529526 </v>
    <v>       0.50462095       0.99399655       0.60469956 </v>
    <v>       0.49382325       0.49907097       0.60317997 </v>
    <v>       0.25261587       0.25083859       0.60635040 </v>
    <v>       0.24187109       0.75706869       0.60350828 </v>
    <v>       0.75078106       0.25387815       0.60615810 </v>
    <v>       0.74988665       0.75556754       0.60402065 </v>
    <v>       0.00000050       0.00000050       0.70482896 </v>
    <v>       0.00000050       0.50000048       0.70482896 </v>
    <v>       0.50000048       0.00000050       0.70482896 </v>
    <v>       0.50000046       0.50000048       0.70482896 </v>
    <v>       0.24999999       0.24999947       0.70482499 </v>
    <v>       0.25000001       0.74999950       0.70482499 </v>
    <v>       0.74999999       0.24999947       0.70482499 </v>
    <v>       0.74999998       0.74999950       0.70482499 </v>
    <v>       0.00000000       0.00000000       0.80731797 </v>
    <v>       0.00000000       0.50000000       0.80731797 </v>
    <v>       0.50000000       0.00000000       0.80731797 </v>
    <v>       0.49999999       0.50000000       0.80731797 </v>
    <v>       0.24999999       0.25000000       0.80731797 </v>
    <v>       0.25000001       0.74999997       0.80731797 </v>
    <v>       0.74999999       0.25000000       0.80731797 </v>
    <v>       0.74999998       0.74999997       0.80731797 </v>
   </varray>
  </structure>
  <varray name="primitive_index" >
   <v type="int" >        1 </v>
   <v type="int" >        2 </v>
   <v type="int" >        3 </v>
   <v type="int" >        4 </v>
   <v type="int" >        5 </v>
   <v type="int" >        6 </v>
   <v type="int" >        7 </v>
   <v type="int" >        8 </v>
   <v type="int" >        9 </v>
   <v type="int" >       10 </v>
   <v type="int" >       11 </v>
   <v type="int" >       12 </v>
   <v type="int" >       13 </v>
   <v type="int" >       14 </v>
   <v type="int" >       15 </v>
   <v type="int" >       16 </v>
   <v type="int" >       17 </v>
   <v type="int" >       18 </v>
   <v type="int" >       19 </v>
   <v type="int" >       20 </v>
   <v type="int" >       21 </v>
   <v type="int" >       22 </v>
   <v type="int" >       23 </v>
   <v type="int" >       24 </v>
   <v type="int" >       25 </v>
   <v type="int" >       26 </v>
   <v type="int" >       27 </v>
   <v type="int" >       28 </v>
   <v type="int" >       29 </v>
   <v type="int" >       30 </v>
   <v type="int" >       31 </v>
   <v type="int" >       32 </v>
   <v type="int" >       33 </v>
   <v type="int" >       34 </v>
   <v type="int" >       35 </v>
   <v type="int" >       36 </v>
   <v type="int" >       37 </v>
   <v type="int" >       38 </v>
   <v type="int" >       39 </v>
   <v type="int" >       40 </v>
   <v type="int" >       41 </v>
   <v type="int" >       42 </v>
   <v type="int" >       43 </v>
   <v type="int" >       44 </v>
   <v type="int" >       45 </v>
   <v type="int" >       46 </v>
   <v type="int" >       47 </v>
   <v type="int" >       48 </v>
   <v type="int" >       49 </v>
   <v type="int" >       50 </v>
   <v type="int" >       51 </v>
   <v type="int" >       52 </v>
   <v type="int" >       53 </v>
   <v type="int" >       54 </v>
   <v type="int" >       55 </v>
   <v type="int" >       56 </v>
   <v type="int" >       57 </v>
   <v type="int" >       58 </v>
   <v type="int" >       59 </v>
   <v type="int" >       60 </v>
   <v type="int" >       61 </v>
   <v type="int" >       62 </v>
   <v type="int" >       63 </v>
   <v type="int" >       64 </v>
   <v type="int" >       65 </v>
   <v type="int" >       66 </v>
   <v type="int" >       67 </v>
   <v type="int" >       68 </v>
   <v type="int" >       69 </v>
   <v type="int" >       70 </v>
   <v type="int" >       71 </v>
   <v type="int" >       72 </v>
   <v type="int" >       73 </v>
   <v type="int" >       74 </v>
   <v type="int" >       75 </v>
   <v type="int" >       76 </v>
   <v type="int" >       77 </v>
   <v type="int" >       78 </v>
   <v type="int" >       79 </v>
   <v type="int" >       80 </v>
   <v type="int" >       81 </v>
   <v type="int" >       82 </v>
   <v type="int" >       83 </v>
   <v type="int" >       84 </v>
   <v type="int" >       85 </v>
   <v type="int" >       86 </v>
   <v type="int" >       87 </v>
   <v type="int" >       88 </v>
   <v type="int" >       89 </v>
   <v type="int" >       90 </v>
   <v type="int" >       91 </v>
   <v type="int" >       92 </v>
   <v type="int" >       93 </v>
   <v type="int" >       94 </v>
   <v type="int" >       95 </v>
   <v type="int" >       96 </v>
   <v type="int" >       97 </v>
   <v type="int" >       98 </v>
   <v type="int" >       99 </v>
   <v type="int" >      100 </v>
   <v type="int" >      101 </v>
   <v type="int" >      102 </v>
   <v type="int" >      103 </v>
   <v type="int" >      104 </v>
   <v type="int" >      105 </v>
   <v type="int" >      106 </v>
   <v type="int" >      107 </v>
   <v type="int" >      108 </v>
   <v type="int" >      109 </v>
   <v type="int" >      110 </v>
   <v type="int" >      111 </v>
   <v type="int" >      112 </v>
   <v type="int" >      113 </v>
   <v type="int" >      114 </v>
   <v type="int" >      115 </v>
   <v type="int" >      116 </v>
   <v type="int" >      117 </v>
   <v type="int" >      118 </v>
   <v type="int" >      119 </v>
   <v type="int" >      120 </v>
   <v type="int" >      121 </v>
   <v type="int" >      122 </v>
   <v type="int" >      123 </v>
   <v type="int" >      124 </v>
   <v type="int" >      125 </v>
   <v type="int" >      126 </v>
   <v type="int" >      127 </v>
   <v type="int" >      128 </v>
   <v type="int" >      129 </v>
   <v type="int" >      130 </v>
   <v type="int" >      131 </v>
   <v type="int" >      132 </v>
   <v type="int" >      133 </v>
   <v type="int" >      134 </v>
   <v type="int" >      135 </v>
   <v type="int" >      136 </v>
   <v type="int" >      137 </v>
   <v type="int" >      138 </v>
   <v type="int" >      139 </v>
   <v type="int" >      140 </v>
   <v type="int" >      141 </v>
   <v type="int" >      142 </v>
   <v type="int" >      143 </v>
   <v type="int" >      144 </v>
   <v type="int" >      145 </v>
   <v type="int" >      146 </v>
   <v type="int" >      147 </v>
   <v type="int" >      148 </v>
   <v type="int" >      149 </v>
   <v type="int" >      150 </v>
   <v type="int" >      151 </v>
   <v type="int" >      152 </v>
   <v type="int" >      153 </v>
   <v type="int" >      154 </v>
   <v type="int" >      155 </v>
   <v type="int" >      156 </v>
   <v type="int" >      157 </v>
   <v type="int" >      158 </v>
   <v type="int" >      159 </v>
   <v type="int" >      160 </v>
   <v type="int" >      161 </v>
   <v type="int" >      162 </v>
   <v type="int" >      163 </v>
   <v type="int" >      164 </v>
   <v type="int" >      165 </v>
   <v type="int" >      166 </v>
   <v type="int" >      167 </v>
   <v type="int" >      168 </v>
   <v type="int" >      169 </v>
   <v type="int" >      170 </v>
   <v type="int" >      171 </v>
   <v type="int" >      172 </v>
   <v type="int" >      173 </v>
   <v type="int" >      174 </v>
   <v type="int" >      175 </v>
   <v type="int" >      176 </v>
   <v type="int" >      177 </v>
   <v type="int" >      178 </v>
   <v type="int" >      179 </v>
   <v type="int" >      180 </v>
   <v type="int" >      181 </v>
   <v type="int" >      182 </v>
   <v type="int" >      183 </v>
   <v type="int" >      184 </v>
   <v type="int" >      185 </v>
   <v type="int" >      186 </v>
   <v type="int" >      187 </v>
   <v type="int" >      188 </v>
   <v type="int" >      189 </v>
   <v type="int" >      190 </v>
   <v type="int" >      191 </v>
   <v type="int" >      192 </v>
   <v type="int" >      193 </v>
   <v type="int" >      194 </v>
   <v type="int" >      195 </v>
   <v type="int" >      196 </v>
   <v type="int" >      197 </v>
   <v type="int" >      198 </v>
   <v type="int" >      199 </v>
   <v type="int" >      200 </v>
   <v type="int" >      201 </v>
   <v type="int" >      202 </v>
   <v type="int" >      203 </v>
   <v type="int" >      204 </v>
   <v type="int" >      205 </v>
   <v type="int" >      206 </v>
   <v type="int" >      207 </v>
   <v type="int" >      208 </v>
   <v type="int" >      209 </v>
   <v type="int" >      210 </v>
   <v type="int" >      211 </v>
   <v type="int" >      212 </v>
   <v type="int" >      213 </v>
   <v type="int" >      214 </v>
   <v type="int" >      215 </v>
   <v type="int" >      216 </v>
   <v type="int" >      217 </v>
   <v type="int" >      218 </v>
   <v type="int" >      219 </v>
   <v type="int" >      220 </v>
   <v type="int" >      221 </v>
   <v type="int" >      222 </v>
   <v type="int" >      223 </v>
   <v type="int" >      224 </v>
   <v type="int" >      225 </v>
   <v type="int" >      226 </v>
   <v type="int" >      227 </v>
   <v type="int" >      228 </v>
   <v type="int" >      229 </v>
   <v type="int" >      230 </v>
   <v type="int" >      231 </v>
   <v type="int" >      232 </v>
   <v type="int" >      233 </v>
   <v type="int" >      234 </v>
   <v type="int" >      235 </v>
   <v type="int" >      236 </v>
   <v type="int" >      237 </v>
   <v type="int" >      238 </v>
   <v type="int" >      239 </v>
   <v type="int" >      240 </v>
   <v type="int" >      241 </v>
   <v type="int" >      242 </v>
   <v type="int" >      243 </v>
   <v type="int" >      244 </v>
   <v type="int" >      245 </v>
   <v type="int" >      246 </v>
   <v type="int" >      247 </v>
   <v type="int" >      248 </v>
   <v type="int" >      249 </v>
   <v type="int" >      250 </v>
   <v type="int" >      251 </v>
   <v type="int" >      252 </v>
   <v type="int" >      253 </v>
   <v type="int" >      254 </v>
   <v type="int" >      255 </v>
   <v type="int" >      256 </v>
   <v type="int" >      257 </v>
   <v type="int" >      258 </v>
   <v type="int" >      259 </v>
   <v type="int" >      260 </v>
   <v type="int" >      261 </v>
   <v type="int" >      262 </v>
   <v type="int" >      263 </v>
   <v type="int" >      264 </v>
   <v type="int" >      265 </v>
   <v type="int" >      266 </v>
   <v type="int" >      267 </v>
   <v type="int" >      268 </v>
   <v type="int" >      269 </v>
   <v type="int" >      270 </v>
   <v type="int" >      271 </v>
   <v type="int" >      272 </v>
   <v type="int" >      273 </v>
   <v type="int" >      274 </v>
   <v type="int" >      275 </v>
   <v type="int" >      276 </v>
   <v type="int" >      277 </v>
   <v type="int" >      278 </v>
   <v type="int" >      279 </v>
   <v type="int" >      280 </v>
   <v type="int" >      281 </v>
   <v type="int" >      282 </v>
   <v type="int" >      283 </v>
   <v type="int" >      284 </v>
   <v type="int" >      285 </v>
   <v type="int" >      286 </v>
   <v type="int" >      287 </v>
   <v type="int" >      288 </v>
   <v type="int" >      289 </v>
   <v type="int" >      290 </v>
   <v type="int" >      291 </v>
   <v type="int" >      292 </v>
   <v type="int" >      293 </v>
   <v type="int" >      294 </v>
   <v type="int" >      295 </v>
   <v type="int" >      296 </v>
   <v type="int" >      297 </v>
   <v type="int" >      298 </v>
   <v type="int" >      299 </v>
   <v type="int" >      300 </v>
   <v type="int" >      301 </v>
   <v type="int" >      302 </v>
   <v type="int" >      303 </v>
   <v type="int" >      304 </v>
   <v type="int" >      305 </v>
   <v type="int" >      306 </v>
   <v type="int" >      307 </v>
   <v type="int" >      308 </v>
   <v type="int" >      309 </v>
   <v type="int" >      310 </v>
   <v type="int" >      311 </v>
   <v type="int" >      312 </v>
   <v type="int" >      313 </v>
   <v type="int" >      314 </v>
   <v type="int" >      315 </v>
   <v type="int" >      316 </v>
   <v type="int" >      317 </v>
   <v type="int" >      318 </v>
   <v type="int" >      319 </v>
   <v type="int" >      320 </v>
   <v type="int" >      321 </v>
   <v type="int" >      322 </v>
   <v type="int" >      323 </v>
   <v type="int" >      324 </v>
   <v type="int" >      325 </v>
  </varray>
 </primitive_cell>
 <kpoints>
  <generation param="Gamma">
   <v type="int" name="divisions">       3        3        1 </v>
   <v name="usershift">      0.00000000       0.00000000       0.00000000 </v>
   <v name="genvec1">      0.33333333       0.00000000       0.00000000 </v>
   <v name="genvec2">      0.00000000       0.33333333       0.00000000 </v>
   <v name="genvec3">      0.00000000       0.00000000       1.00000000 </v>
   <v name="shift">      0.00000000       0.00000000       0.00000000 </v>
  </generation>
  <varray name="kpointlist" >
   <v>       0.00000000       0.00000000       0.00000000 </v>
   <v>       0.33333333       0.00000000       0.00000000 </v>
   <v>       0.00000000       0.33333333       0.00000000 </v>
   <v>       0.33333333       0.33333333       0.00000000 </v>
   <v>      -0.33333333       0.33333333       0.00000000 </v>
  </varray>
  <varray name="weights" >
   <v>       0.11111111 </v>
   <v>       0.22222222 </v>
   <v>       0.22222222 </v>
   <v>       0.22222222 </v>
   <v>       0.22222222 </v>
  </varray>
 </kpoints>
 <parameters>
  <separator name="general" >
   <i type="string" name="SYSTEM">PSC</i>
   <i type="logical" name="LCOMPAT"> F  </i>
  </separator>
  <separator name="electronic" >
   <i type="string" name="PREC">normal</i>
   <i name="ENMAX">    500.00000000</i>
   <i name="ENAUG">    644.87300000</i>
   <i name="EDIFF">      0.00010000</i>
   <i type="int" name="IALGO">    38</i>
   <i type="int" name="IWAVPR">    10</i>
   <i type="int" name="NBANDS">   732</i>
   <i type="int" name="NBANDSLOW">    -1</i>
   <i type="int" name="NBANDSHIGH">    -1</i>
   <i name="NELECT">   1134.00000000</i>
   <i type="int" name="TURBO">     0</i>
   <i type="int" name="IRESTART">     0</i>
   <i type="int" name="NREBOOT">     0</i>
   <i type="int" name="NMIN">     0</i>
   <i name="EREF">      0.00000000</i>
   <separator name="electronic smearing" >
    <i type="int" name="ISMEAR">     0</i>
    <i name="SIGMA">      0.05000000</i>
    <i name="KSPACING">      0.50000000</i>
    <i type="logical" name="KGAMMA"> T  </i>
    <i type="logical" name="KBLOWUP"> T  </i>
   </separator>
   <separator name="electronic projectors" >
    <i type="logical" name="LREAL"> T  </i>
    <v name="ROPT">     -0.00050000     -0.00050000     -0.00050000     -0.00050000     -0.00050000</v>
    <i type="int" name="LMAXPAW">  -100</i>
    <i type="int" name="LMAXMIX">     2</i>
    <i type="logical" name="NLSPLINE"> F  </i>
   </separator>
   <separator name="electronic startup" >
    <i type="int" name="ISTART">     0</i>
    <i type="int" name="ICHARG">     1</i>
    <i type="int" name="INIWAV">     1</i>
   </separator>
   <separator name="electronic spin" >
    <i type="int" name="ISPIN">     1</i>
    <i type="logical" name="LNONCOLLINEAR"> F  </i>
    <v name="MAGMOM">      1.00000000      1.00000000      1.00000000      1.00000000      1.00000000      1.00000000      1.00000000      1.00000000      1.00000000      1.00000000      1.00000000      1.00000000      1.00000000      1.00000000      1.00000000      1.00000000      1.00000000      1.00000000      1.00000000      1.00000000
      1.00000000      1.00000000      1.00000000      1.00000000      1.00000000      1.00000000      1.00000000      1.00000000      1.00000000      1.00000000      1.00000000      1.00000000      1.00000000      1.00000000      1.00000000      1.00000000      1.00000000      1.00000000      1.00000000      1.00000000
      1.00000000      1.00000000      1.00000000      1.00000000      1.00000000      1.00000000      1.00000000      1.00000000      1.00000000      1.00000000      1.00000000      1.00000000      1.00000000      1.00000000      1.00000000      1.00000000      1.00000000      1.00000000      1.00000000      1.00000000
      1.00000000      1.00000000      1.00000000      1.00000000      1.00000000      1.00000000      1.00000000      1.00000000      1.00000000      1.00000000      1.00000000      1.00000000      1.00000000      1.00000000      1.00000000      1.00000000      1.00000000      1.00000000      1.00000000      1.00000000
      1.00000000      1.00000000      1.00000000      1.00000000      1.00000000      1.00000000      1.00000000      1.00000000      1.00000000      1.00000000      1.00000000      1.00000000      1.00000000      1.00000000      1.00000000      1.00000000      1.00000000      1.00000000      1.00000000      1.00000000
      1.00000000      1.00000000      1.00000000      1.00000000      1.00000000      1.00000000      1.00000000      1.00000000      1.00000000      1.00000000      1.00000000      1.00000000      1.00000000      1.00000000      1.00000000      1.00000000      1.00000000      1.00000000      1.00000000      1.00000000
      1.00000000      1.00000000      1.00000000      1.00000000      1.00000000      1.00000000      1.00000000      1.00000000      1.00000000      1.00000000      1.00000000      1.00000000      1.00000000      1.00000000      1.00000000      1.00000000      1.00000000      1.00000000      1.00000000      1.00000000
      1.00000000      1.00000000      1.00000000      1.00000000      1.00000000      1.00000000      1.00000000      1.00000000      1.00000000      1.00000000      1.00000000      1.00000000      1.00000000      1.00000000      1.00000000      1.00000000      1.00000000      1.00000000      1.00000000      1.00000000
      1.00000000      1.00000000      1.00000000      1.00000000      1.00000000      1.00000000      1.00000000      1.00000000      1.00000000      1.00000000      1.00000000      1.00000000      1.00000000      1.00000000      1.00000000      1.00000000      1.00000000      1.00000000      1.00000000      1.00000000
      1.00000000      1.00000000      1.00000000      1.00000000      1.00000000      1.00000000      1.00000000      1.00000000      1.00000000      1.00000000      1.00000000      1.00000000      1.00000000      1.00000000      1.00000000      1.00000000      1.00000000      1.00000000      1.00000000      1.00000000
      1.00000000      1.00000000      1.00000000      1.00000000      1.00000000      1.00000000      1.00000000      1.00000000      1.00000000      1.00000000      1.00000000      1.00000000      1.00000000      1.00000000      1.00000000      1.00000000      1.00000000      1.00000000      1.00000000      1.00000000
      1.00000000      1.00000000      1.00000000      1.00000000      1.00000000      1.00000000      1.00000000      1.00000000      1.00000000      1.00000000      1.00000000      1.00000000      1.00000000      1.00000000      1.00000000      1.00000000      1.00000000      1.00000000      1.00000000      1.00000000
      1.00000000      1.00000000      1.00000000      1.00000000      1.00000000      1.00000000      1.00000000      1.00000000      1.00000000      1.00000000      1.00000000      1.00000000      1.00000000      1.00000000      1.00000000      1.00000000      1.00000000      1.00000000      1.00000000      1.00000000
      1.00000000      1.00000000      1.00000000      1.00000000      1.00000000      1.00000000      1.00000000      1.00000000      1.00000000      1.00000000      1.00000000      1.00000000      1.00000000      1.00000000      1.00000000      1.00000000      1.00000000      1.00000000      1.00000000      1.00000000
      1.00000000      1.00000000      1.00000000      1.00000000      1.00000000      1.00000000      1.00000000      1.00000000      1.00000000      1.00000000      1.00000000      1.00000000      1.00000000      1.00000000      1.00000000      1.00000000      1.00000000      1.00000000      1.00000000      1.00000000
      1.00000000      1.00000000      1.00000000      1.00000000      1.00000000      1.00000000      1.00000000      1.00000000      1.00000000      1.00000000      1.00000000      1.00000000      1.00000000      1.00000000      1.00000000      1.00000000      1.00000000      1.00000000      1.00000000      1.00000000
      1.00000000      1.00000000      1.00000000      1.00000000      1.00000000</v>
    <i name="NUPDOWN">     -1.00000000</i>
    <i type="logical" name="LSORBIT"> F  </i>
    <v name="SAXIS">      0.00000000      0.00000000      1.00000000</v>
    <i type="logical" name="LSPIRAL"> F  </i>
    <v name="QSPIRAL">      0.00000000      0.00000000      0.00000000</v>
    <i type="logical" name="LZEROZ"> F  </i>
   </separator>
   <separator name="electronic exchange-correlation" >
    <i type="logical" name="LASPH"> F  </i>
    <i type="logical" name="LMETAGGA"> F  </i>
   </separator>
   <separator name="electronic convergence" >
    <i type="int" name="NELM">   600</i>
    <i type="int" name="NELMDL">     0</i>
    <i type="int" name="NELMIN">     2</i>
    <i name="ENINI">    500.00000000</i>
    <separator name="electronic convergence detail" >
     <i type="logical" name="LDIAG"> T  </i>
     <i type="logical" name="LSUBROT"> F  </i>
     <i name="WEIMIN">      0.00000000</i>
     <i name="EBREAK">      0.00000003</i>
     <i name="DEPER">      0.30000000</i>
     <i type="int" name="NRMM">     4</i>
     <i name="TIME">      0.40000000</i>
    </separator>
   </separator>
   <separator name="electronic mixer" >
    <i name="AMIX">      0.40000000</i>
    <i name="BMIX">      0.01000000</i>
    <i name="AMIN">      0.01000000</i>
    <i name="AMIX_MAG">      1.60000000</i>
    <i name="BMIX_MAG">      0.01000000</i>
    <separator name="electronic mixer details" >
     <i type="int" name="IMIX">     4</i>
     <i type="logical" name="MIXFIRST"> F  </i>
     <i type="int" name="MAXMIX">   -45</i>
     <i name="WC">    100.00000000</i>
     <i type="int" name="INIMIX">     1</i>
     <i type="int" name="MIXPRE">     1</i>
     <i type="int" name="MREMOVE">     5</i>
    </separator>
   </separator>
   <separator name="electronic dipolcorrection" >
    <i type="logical" name="LDIPOL"> T  </i>
    <i type="logical" name="LMONO"> F  </i>
    <i type="int" name="IDIPOL">     3</i>
    <i name="EPSILON">      1.00000000</i>
    <v name="DIPOL">   -100.00000000   -100.00000000   -100.00000000</v>
    <i name="EFIELD">      0.00000000</i>
   </separator>
  </separator>
  <separator name="grids" >
   <i type="int" name="NGX">   100</i>
   <i type="int" name="NGY">   100</i>
   <i type="int" name="NGZ">   350</i>
   <i type="int" name="NGXF">   200</i>
   <i type="int" name="NGYF">   200</i>
   <i type="int" name="NGZF">   700</i>
   <i type="logical" name="ADDGRID"> F  </i>
  </separator>
  <separator name="ionic" >
   <i type="int" name="NSW">     0</i>
   <i type="int" name="IBRION">    -1</i>
   <i type="int" name="MDALGO">     0</i>
   <i type="int" name="ISIF">     2</i>
   <i name="PSTRESS">      0.00000000</i>
   <i name="EDIFFG">      0.00100000</i>
   <i type="int" name="NFREE">     0</i>
   <i name="POTIM">      0.50000000</i>
   <i name="SMASS">     -3.00000000</i>
   <i name="SCALEE">      1.00000000</i>
  </separator>
  <separator name="ionic md" >
   <i name="TEBEG">      0.00010000</i>
   <i name="TEEND">      0.00010000</i>
   <i type="int" name="NBLOCK">     1</i>
   <i type="int" name="KBLOCK">     1</i>
   <i type="int" name="NPACO">   256</i>
   <i name="APACO">     16.00000000</i>
  </separator>
  <separator name="symmetry" >
   <i type="int" name="ISYM">     0</i>
   <i name="SYMPREC">      0.00001000</i>
  </separator>
  <separator name="dos" >
   <i type="int" name="LORBIT">     0</i>
   <v name="RWIGS">     -1.00000000     -1.00000000     -1.00000000     -1.00000000     -1.00000000</v>
   <i type="int" name="NEDOS">   301</i>
   <i name="EMIN">     10.00000000</i>
   <i name="EMAX">    -10.00000000</i>
   <i name="EFERMI">      0.00000000</i>
  </separator>
  <separator name="writing" >
   <i type="int" name="NWRITE">     2</i>
   <i type="logical" name="LWAVE"> F  </i>
   <i type="logical" name="LDOWNSAMPLE"> F  </i>
   <i type="logical" name="LCHARG"> T  </i>
   <i type="logical" name="LPARD"> F  </i>
   <i type="logical" name="LVTOT"> T  </i>
   <i type="logical" name="LVHAR"> F  </i>
   <i type="logical" name="LELF"> F  </i>
   <i type="logical" name="LOPTICS"> F  </i>
   <v name="STM">      0.00000000      0.00000000      0.00000000      0.00000000      0.00000000      0.00000000      0.00000000</v>
  </separator>
  <separator name="performance" >
   <i type="int" name="NPAR">     4</i>
   <i type="int" name="NSIM">     4</i>
   <i type="int" name="NBLK">    -1</i>
   <i type="logical" name="LPLANE"> T  </i>
   <i type="logical" name="LSCALAPACK"> T  </i>
   <i type="logical" name="LSCAAWARE"> F  </i>
   <i type="logical" name="LSCALU"> F  </i>
   <i type="logical" name="LASYNC"> F  </i>
   <i type="logical" name="LORBITALREAL"> F  </i>
  </separator>
  <separator name="miscellaneous" >
   <i type="int" name="IDIOT">     3</i>
   <i type="int" name="PHON_NSTRUCT">    -1</i>
   <i type="logical" name="LMUSIC"> F  </i>
   <v name="POMASS">      1.00000000     12.01100000     14.00100000    126.90400000    207.20000000</v>
   <v name="DARWINR">      0.00000000      0.00000000      0.00000000      0.00000000      0.00000000</v>
   <v name="DARWINV">      1.00000000      1.00000000      1.00000000      1.00000000      1.00000000</v>
   <i type="logical" name="LCORR"> T  </i>
  </separator>
  <i type="logical" name="GGA_COMPAT"> F  </i>
  <i type="logical" name="LBERRY"> F  </i>
  <i type="int" name="ICORELEVEL">     0</i>
  <i type="logical" name="LDAU"> F  </i>
  <i type="int" name="I_CONSTRAINED_M">     0</i>
  <separator name="electronic exchange-correlation" >
   <i type="string" name="GGA">--</i>
   <i type="int" name="VOSKOWN">     0</i>
   <i type="logical" name="LHFCALC"> F  </i>
   <i type="string" name="PRECFOCK"></i>
   <i type="logical" name="LSYMGRAD"> F  </i>
   <i type="logical" name="LHFONE"> F  </i>
   <i type="logical" name="LRHFCALC"> F  </i>
   <i type="logical" name="LTHOMAS"> F  </i>
   <i type="logical" name="LMODELHF"> F  </i>
   <i type="logical" name="LFOCKACE"> F  </i>
   <i name="ENCUT4O">     -1.00000000</i>
   <i type="int" name="EXXOEP">     0</i>
   <i type="int" name="FOURORBIT">     0</i>
   <i name="AEXX">      0.00000000</i>
   <i name="HFALPHA">      0.00000000</i>
   <i name="MCALPHA">      0.00000000</i>
   <i name="ALDAX">      1.00000000</i>
   <i name="AGGAX">      1.00000000</i>
   <i name="ALDAC">      1.00000000</i>
   <i name="AGGAC">      1.00000000</i>
   <i type="int" name="NKREDX">     1</i>
   <i type="int" name="NKREDY">     1</i>
   <i type="int" name="NKREDZ">     1</i>
   <i type="logical" name="SHIFTRED"> F  </i>
   <i type="logical" name="ODDONLY"> F  </i>
   <i type="logical" name="EVENONLY"> F  </i>
   <i type="int" name="LMAXFOCK">     0</i>
   <i type="int" name="NMAXFOCKAE">     0</i>
   <i type="logical" name="LFOCKAEDFT"> F  </i>
   <i name="HFSCREEN">      0.00000000</i>
   <i name="HFSCREENC">      0.00000000</i>
   <i type="int" name="NBANDSGWLOW">     0</i>
  </separator>
  <separator name="vdW DFT" >
   <i type="logical" name="LUSE_VDW"> F  </i>
   <i name="Zab_VDW">     -0.84910000</i>
   <i name="PARAM1">      0.12340000</i>
   <i name="PARAM2">      1.00000000</i>
   <i name="PARAM3">      0.00000000</i>
  </separator>
  <separator name="model GW" >
   <i type="int" name="MODEL_GW">     0</i>
   <i name="MODEL_EPS0">     37.63423484</i>
   <i name="MODEL_ALPHA">      1.00000000</i>
  </separator>
  <separator name="linear response parameters" >
   <i type="logical" name="LEPSILON"> F  </i>
   <i type="logical" name="LRPA"> F  </i>
   <i type="logical" name="LNABLA"> F  </i>
   <i type="logical" name="LVEL"> F  </i>
   <i type="int" name="KINTER">     0</i>
   <i name="CSHIFT">      0.10000000</i>
   <i name="OMEGAMAX">     -1.00000000</i>
   <i name="DEG_THRESHOLD">      0.00200000</i>
   <i name="RTIME">     -0.10000000</i>
   <i name="WPLASMAI">      0.00000000</i>
   <v name="DFIELD">      0.00000000      0.00000000      0.00000000</v>
   <v name="WPLASMA">      0.00000000      0.00000000      0.00000000      0.00000000      0.00000000      0.00000000      0.00000000      0.00000000      0.00000000</v>
  </separator>
  <separator name="orbital magnetization" >
   <i type="logical" name="NUCIND"> F  </i>
   <v name="MAGPOS">      0.00000000      0.00000000      0.00000000</v>
   <i type="logical" name="LNICSALL"> T  </i>
   <i type="logical" name="ORBITALMAG"> F  </i>
   <i type="logical" name="LMAGBLOCH"> F  </i>
   <i type="logical" name="LCHIMAG"> F  </i>
   <i type="logical" name="LGAUGE"> T  </i>
   <i type="int" name="MAGATOM">     0</i>
   <v name="MAGDIPOL">      0.00000000      0.00000000      0.00000000</v>
   <v name="AVECCONST">      0.00000000      0.00000000      0.00000000</v>
  </separator>
  <separator name="response functions" >
   <i type="logical" name="LFINITE_TEMPERATURE"> F  </i>
   <i type="logical" name="LADDER"> F  </i>
   <i type="logical" name="LRPAFORCE"> F  </i>
   <i type="logical" name="LFXC"> F  </i>
   <i type="logical" name="LHARTREE"> T  </i>
   <i type="int" name="IBSE">     0</i>
   <v type="int" name="KPOINT">    -1     0     0     0</v>
   <i type="logical" name="LTCTC"> F  </i>
   <i type="logical" name="LTCTE"> F  </i>
   <i type="logical" name="LTETE"> F  </i>
   <i type="logical" name="LTRIPLET"> F  </i>
   <i type="logical" name="LFXCEPS"> F  </i>
   <i type="logical" name="LFXHEG"> F  </i>
   <i type="int" name="NATURALO">     2</i>
   <i type="logical" name="LHOLEGF"> F  </i>
   <i type="logical" name="L2ORDER"> F  </i>
   <i type="logical" name="LDMP1"> F  </i>
   <i type="logical" name="LMP2LT"> F  </i>
   <i type="logical" name="LSMP2LT"> F  </i>
   <i type="logical" name="LGWLF"> F  </i>
   <i name="ENCUTGW">     -2.00000000</i>
   <i name="ENCUTGWSOFT">     -2.00000000</i>
   <i name="ENCUTLF">     -1.00000000</i>
   <i type="logical" name="LESF_SPLINES"> F  </i>
   <i type="int" name="LMAXMP2">    -1</i>
   <i name="SCISSOR">      0.00000000</i>
   <i type="int" name="NOMEGA">     0</i>
   <i type="int" name="NOMEGAR">     0</i>
   <i type="int" name="NBANDSGW">    -1</i>
   <i type="int" name="NBANDSO">    -1</i>
   <i type="int" name="NBANDSV">    -1</i>
   <i type="int" name="NELM">   600</i>
   <i type="int" name="NELMHF">     1</i>
   <i type="int" name="DIM">     3</i>
   <i type="int" name="IESPILON">     4</i>
   <i type="int" name="ANTIRES">     0</i>
   <i name="OMEGAMAX">    -30.00000000</i>
   <i name="OMEGAMIN">    -30.00000000</i>
   <i name="OMEGATL">   -200.00000000</i>
   <i type="int" name="OMEGAGRID">     0</i>
   <i name="CSHIFT">     -0.10000000</i>
   <i type="logical" name="LSELFENERGY"> F  </i>
   <i type="logical" name="LSPECTRAL"> F  </i>
   <i type="logical" name="LSPECTRALGW"> F  </i>
   <i type="logical" name="LSINGLES"> F  </i>
   <i type="logical" name="LFERMIGW"> F  </i>
   <i type="logical" name="ODDONLYGW"> F  </i>
   <i type="logical" name="EVENONLYGW"> F  </i>
   <i type="int" name="NKREDLFX">     1</i>
   <i type="int" name="NKREDLFY">     1</i>
   <i type="int" name="NKREDLFZ">     1</i>
   <i type="int" name="MAXMEM">  2800</i>
   <i type="int" name="TELESCOPE">     0</i>
   <i type="int" name="NTAUPAR">    -1</i>
   <i type="int" name="NOMEGAPAR">    -1</i>
   <i name="DAMP_NEWTON">      0.80000001</i>
   <i name="LAMBDA">      1.00000000</i>
  </separator>
  <separator name="External order field" >
   <i name="OFIELD_KAPPA">      0.00000000</i>
   <v name="OFIELD_K">      0.00000000      0.00000000      0.00000000</v>
   <i name="OFIELD_Q6_NEAR">      0.00000000</i>
   <i name="OFIELD_Q6_FAR">      0.00000000</i>
   <i name="OFIELD_A">      0.00000000</i>
  </separator>
 </parameters>
 <atominfo>
  <atoms>     325 </atoms>
  <types>       5 </types>
  <array name="atoms" >
   <dimension dim="1">ion</dimension>
   <field type="string">element</field>
   <field type="int">atomtype</field>
   <set>
    <rc><c>H </c><c>   1</c></rc>
    <rc><c>H </c><c>   1</c></rc>
    <rc><c>H </c><c>   1</c></rc>
    <rc><c>H </c><c>   1</c></rc>
    <rc><c>H </c><c>   1</c></rc>
    <rc><c>H </c><c>   1</c></rc>
    <rc><c>H </c><c>   1</c></rc>
    <rc><c>H </c><c>   1</c></rc>
    <rc><c>H </c><c>   1</c></rc>
    <rc><c>H </c><c>   1</c></rc>
    <rc><c>H </c><c>   1</c></rc>
    <rc><c>H </c><c>   1</c></rc>
    <rc><c>H </c><c>   1</c></rc>
    <rc><c>H </c><c>   1</c></rc>
    <rc><c>H </c><c>   1</c></rc>
    <rc><c>H </c><c>   1</c></rc>
    <rc><c>H </c><c>   1</c></rc>
    <rc><c>H </c><c>   1</c></rc>
    <rc><c>H </c><c>   1</c></rc>
    <rc><c>H </c><c>   1</c></rc>
    <rc><c>H </c><c>   1</c></rc>
    <rc><c>H </c><c>   1</c></rc>
    <rc><c>H </c><c>   1</c></rc>
    <rc><c>H </c><c>   1</c></rc>
    <rc><c>H </c><c>   1</c></rc>
    <rc><c>H </c><c>   1</c></rc>
    <rc><c>H </c><c>   1</c></rc>
    <rc><c>H </c><c>   1</c></rc>
    <rc><c>H </c><c>   1</c></rc>
    <rc><c>H </c><c>   1</c></rc>
    <rc><c>H </c><c>   1</c></rc>
    <rc><c>H </c><c>   1</c></rc>
    <rc><c>H </c><c>   1</c></rc>
    <rc><c>H </c><c>   1</c></rc>
    <rc><c>H </c><c>   1</c></rc>
    <rc><c>H </c><c>   1</c></rc>
    <rc><c>H </c><c>   1</c></rc>
    <rc><c>H </c><c>   1</c></rc>
    <rc><c>H </c><c>   1</c></rc>
    <rc><c>H </c><c>   1</c></rc>
    <rc><c>H </c><c>   1</c></rc>
    <rc><c>H </c><c>   1</c></rc>
    <rc><c>H </c><c>   1</c></rc>
    <rc><c>H </c><c>   1</c></rc>
    <rc><c>H </c><c>   1</c></rc>
    <rc><c>H </c><c>   1</c></rc>
    <rc><c>H </c><c>   1</c></rc>
    <rc><c>H </c><c>   1</c></rc>
    <rc><c>H </c><c>   1</c></rc>
    <rc><c>H </c><c>   1</c></rc>
    <rc><c>H </c><c>   1</c></rc>
    <rc><c>H </c><c>   1</c></rc>
    <rc><c>H </c><c>   1</c></rc>
    <rc><c>H </c><c>   1</c></rc>
    <rc><c>H </c><c>   1</c></rc>
    <rc><c>H </c><c>   1</c></rc>
    <rc><c>H </c><c>   1</c></rc>
    <rc><c>H </c><c>   1</c></rc>
    <rc><c>H </c><c>   1</c></rc>
    <rc><c>H </c><c>   1</c></rc>
    <rc><c>H </c><c>   1</c></rc>
    <rc><c>H </c><c>   1</c></rc>
    <rc><c>H </c><c>   1</c></rc>
    <rc><c>H </c><c>   1</c></rc>
    <rc><c>H </c><c>   1</c></rc>
    <rc><c>H </c><c>   1</c></rc>
    <rc><c>H </c><c>   1</c></rc>
    <rc><c>H </c><c>   1</c></rc>
    <rc><c>H </c><c>   1</c></rc>
    <rc><c>H </c><c>   1</c></rc>
    <rc><c>H </c><c>   1</c></rc>
    <rc><c>H </c><c>   1</c></rc>
    <rc><c>H </c><c>   1</c></rc>
    <rc><c>H </c><c>   1</c></rc>
    <rc><c>H </c><c>   1</c></rc>
    <rc><c>H </c><c>   1</c></rc>
    <rc><c>H </c><c>   1</c></rc>
    <rc><c>H </c><c>   1</c></rc>
    <rc><c>H </c><c>   1</c></rc>
    <rc><c>H </c><c>   1</c></rc>
    <rc><c>H </c><c>   1</c></rc>
    <rc><c>H </c><c>   1</c></rc>
    <rc><c>H </c><c>   1</c></rc>
    <rc><c>H </c><c>   1</c></rc>
    <rc><c>H </c><c>   1</c></rc>
    <rc><c>H </c><c>   1</c></rc>
    <rc><c>H </c><c>   1</c></rc>
    <rc><c>H </c><c>   1</c></rc>
    <rc><c>H </c><c>   1</c></rc>
    <rc><c>H </c><c>   1</c></rc>
    <rc><c>H </c><c>   1</c></rc>
    <rc><c>H </c><c>   1</c></rc>
    <rc><c>H </c><c>   1</c></rc>
    <rc><c>H </c><c>   1</c></rc>
    <rc><c>H </c><c>   1</c></rc>
    <rc><c>H </c><c>   1</c></rc>
    <rc><c>H </c><c>   1</c></rc>
    <rc><c>H </c><c>   1</c></rc>
    <rc><c>H </c><c>   1</c></rc>
    <rc><c>H </c><c>   1</c></rc>
    <rc><c>H </c><c>   1</c></rc>
    <rc><c>H </c><c>   1</c></rc>
    <rc><c>H </c><c>   1</c></rc>
    <rc><c>H </c><c>   1</c></rc>
    <rc><c>H </c><c>   1</c></rc>
    <rc><c>H </c><c>   1</c></rc>
    <rc><c>H </c><c>   1</c></rc>
    <rc><c>H </c><c>   1</c></rc>
    <rc><c>H </c><c>   1</c></rc>
    <rc><c>H </c><c>   1</c></rc>
    <rc><c>H </c><c>   1</c></rc>
    <rc><c>H </c><c>   1</c></rc>
    <rc><c>H </c><c>   1</c></rc>
    <rc><c>H </c><c>   1</c></rc>
    <rc><c>H </c><c>   1</c></rc>
    <rc><c>H </c><c>   1</c></rc>
    <rc><c>H </c><c>   1</c></rc>
    <rc><c>H </c><c>   1</c></rc>
    <rc><c>H </c><c>   1</c></rc>
    <rc><c>H </c><c>   1</c></rc>
    <rc><c>H </c><c>   1</c></rc>
    <rc><c>H </c><c>   1</c></rc>
    <rc><c>H </c><c>   1</c></rc>
    <rc><c>H </c><c>   1</c></rc>
    <rc><c>H </c><c>   1</c></rc>
    <rc><c>H </c><c>   1</c></rc>
    <rc><c>H </c><c>   1</c></rc>
    <rc><c>H </c><c>   1</c></rc>
    <rc><c>H </c><c>   1</c></rc>
    <rc><c>H </c><c>   1</c></rc>
    <rc><c>H </c><c>   1</c></rc>
    <rc><c>H </c><c>   1</c></rc>
    <rc><c>H </c><c>   1</c></rc>
    <rc><c>H </c><c>   1</c></rc>
    <rc><c>H </c><c>   1</c></rc>
    <rc><c>H </c><c>   1</c></rc>
    <rc><c>H </c><c>   1</c></rc>
    <rc><c>H </c><c>   1</c></rc>
    <rc><c>H </c><c>   1</c></rc>
    <rc><c>H </c><c>   1</c></rc>
    <rc><c>H </c><c>   1</c></rc>
    <rc><c>H </c><c>   1</c></rc>
    <rc><c>H </c><c>   1</c></rc>
    <rc><c>C </c><c>   2</c></rc>
    <rc><c>C </c><c>   2</c></rc>
    <rc><c>C </c><c>   2</c></rc>
    <rc><c>C </c><c>   2</c></rc>
    <rc><c>C </c><c>   2</c></rc>
    <rc><c>C </c><c>   2</c></rc>
    <rc><c>C </c><c>   2</c></rc>
    <rc><c>C </c><c>   2</c></rc>
    <rc><c>C </c><c>   2</c></rc>
    <rc><c>C </c><c>   2</c></rc>
    <rc><c>C </c><c>   2</c></rc>
    <rc><c>C </c><c>   2</c></rc>
    <rc><c>C </c><c>   2</c></rc>
    <rc><c>C </c><c>   2</c></rc>
    <rc><c>C </c><c>   2</c></rc>
    <rc><c>C </c><c>   2</c></rc>
    <rc><c>C </c><c>   2</c></rc>
    <rc><c>C </c><c>   2</c></rc>
    <rc><c>C </c><c>   2</c></rc>
    <rc><c>C </c><c>   2</c></rc>
    <rc><c>C </c><c>   2</c></rc>
    <rc><c>C </c><c>   2</c></rc>
    <rc><c>C </c><c>   2</c></rc>
    <rc><c>C </c><c>   2</c></rc>
    <rc><c>C </c><c>   2</c></rc>
    <rc><c>C </c><c>   2</c></rc>
    <rc><c>C </c><c>   2</c></rc>
    <rc><c>C </c><c>   2</c></rc>
    <rc><c>C </c><c>   2</c></rc>
    <rc><c>C </c><c>   2</c></rc>
    <rc><c>C </c><c>   2</c></rc>
    <rc><c>C </c><c>   2</c></rc>
    <rc><c>C </c><c>   2</c></rc>
    <rc><c>C </c><c>   2</c></rc>
    <rc><c>C </c><c>   2</c></rc>
    <rc><c>C </c><c>   2</c></rc>
    <rc><c>C </c><c>   2</c></rc>
    <rc><c>C </c><c>   2</c></rc>
    <rc><c>C </c><c>   2</c></rc>
    <rc><c>N </c><c>   3</c></rc>
    <rc><c>N </c><c>   3</c></rc>
    <rc><c>N </c><c>   3</c></rc>
    <rc><c>N </c><c>   3</c></rc>
    <rc><c>N </c><c>   3</c></rc>
    <rc><c>N </c><c>   3</c></rc>
    <rc><c>N </c><c>   3</c></rc>
    <rc><c>N </c><c>   3</c></rc>
    <rc><c>N </c><c>   3</c></rc>
    <rc><c>N </c><c>   3</c></rc>
    <rc><c>N </c><c>   3</c></rc>
    <rc><c>N </c><c>   3</c></rc>
    <rc><c>N </c><c>   3</c></rc>
    <rc><c>N </c><c>   3</c></rc>
    <rc><c>N </c><c>   3</c></rc>
    <rc><c>N </c><c>   3</c></rc>
    <rc><c>N </c><c>   3</c></rc>
    <rc><c>N </c><c>   3</c></rc>
    <rc><c>N </c><c>   3</c></rc>
    <rc><c>N </c><c>   3</c></rc>
    <rc><c>N </c><c>   3</c></rc>
    <rc><c>N </c><c>   3</c></rc>
    <rc><c>N </c><c>   3</c></rc>
    <rc><c>N </c><c>   3</c></rc>
    <rc><c>N </c><c>   3</c></rc>
    <rc><c>N </c><c>   3</c></rc>
    <rc><c>N </c><c>   3</c></rc>
    <rc><c>N </c><c>   3</c></rc>
    <rc><c>N </c><c>   3</c></rc>
    <rc><c>N </c><c>   3</c></rc>
    <rc><c>N </c><c>   3</c></rc>
    <rc><c>N </c><c>   3</c></rc>
    <rc><c>N </c><c>   3</c></rc>
    <rc><c>N </c><c>   3</c></rc>
    <rc><c>N </c><c>   3</c></rc>
    <rc><c>N </c><c>   3</c></rc>
    <rc><c>N </c><c>   3</c></rc>
    <rc><c>N </c><c>   3</c></rc>
    <rc><c>N </c><c>   3</c></rc>
    <rc><c>N </c><c>   3</c></rc>
    <rc><c>N </c><c>   3</c></rc>
    <rc><c>N </c><c>   3</c></rc>
    <rc><c>N </c><c>   3</c></rc>
    <rc><c>N </c><c>   3</c></rc>
    <rc><c>N </c><c>   3</c></rc>
    <rc><c>N </c><c>   3</c></rc>
    <rc><c>N </c><c>   3</c></rc>
    <rc><c>I </c><c>   4</c></rc>
    <rc><c>I </c><c>   4</c></rc>
    <rc><c>I </c><c>   4</c></rc>
    <rc><c>I </c><c>   4</c></rc>
    <rc><c>I </c><c>   4</c></rc>
    <rc><c>I </c><c>   4</c></rc>
    <rc><c>I </c><c>   4</c></rc>
    <rc><c>I </c><c>   4</c></rc>
    <rc><c>I </c><c>   4</c></rc>
    <rc><c>I </c><c>   4</c></rc>
    <rc><c>I </c><c>   4</c></rc>
    <rc><c>I </c><c>   4</c></rc>
    <rc><c>I </c><c>   4</c></rc>
    <rc><c>I </c><c>   4</c></rc>
    <rc><c>I </c><c>   4</c></rc>
    <rc><c>I </c><c>   4</c></rc>
    <rc><c>I </c><c>   4</c></rc>
    <rc><c>I </c><c>   4</c></rc>
    <rc><c>I </c><c>   4</c></rc>
    <rc><c>I </c><c>   4</c></rc>
    <rc><c>I </c><c>   4</c></rc>
    <rc><c>I </c><c>   4</c></rc>
    <rc><c>I </c><c>   4</c></rc>
    <rc><c>I </c><c>   4</c></rc>
    <rc><c>I </c><c>   4</c></rc>
    <rc><c>I </c><c>   4</c></rc>
    <rc><c>I </c><c>   4</c></rc>
    <rc><c>I </c><c>   4</c></rc>
    <rc><c>I </c><c>   4</c></rc>
    <rc><c>I </c><c>   4</c></rc>
    <rc><c>I </c><c>   4</c></rc>
    <rc><c>I </c><c>   4</c></rc>
    <rc><c>I </c><c>   4</c></rc>
    <rc><c>I </c><c>   4</c></rc>
    <rc><c>I </c><c>   4</c></rc>
    <rc><c>I </c><c>   4</c></rc>
    <rc><c>I </c><c>   4</c></rc>
    <rc><c>I </c><c>   4</c></rc>
    <rc><c>I </c><c>   4</c></rc>
    <rc><c>I </c><c>   4</c></rc>
    <rc><c>I </c><c>   4</c></rc>
    <rc><c>I </c><c>   4</c></rc>
    <rc><c>I </c><c>   4</c></rc>
    <rc><c>I </c><c>   4</c></rc>
    <rc><c>I </c><c>   4</c></rc>
    <rc><c>I </c><c>   4</c></rc>
    <rc><c>I </c><c>   4</c></rc>
    <rc><c>I </c><c>   4</c></rc>
    <rc><c>I </c><c>   4</c></rc>
    <rc><c>I </c><c>   4</c></rc>
    <rc><c>I </c><c>   4</c></rc>
    <rc><c>I </c><c>   4</c></rc>
    <rc><c>I </c><c>   4</c></rc>
    <rc><c>I </c><c>   4</c></rc>
    <rc><c>I </c><c>   4</c></rc>
    <rc><c>I </c><c>   4</c></rc>
    <rc><c>I </c><c>   4</c></rc>
    <rc><c>I </c><c>   4</c></rc>
    <rc><c>I </c><c>   4</c></rc>
    <rc><c>I </c><c>   4</c></rc>
    <rc><c>I </c><c>   4</c></rc>
    <rc><c>I </c><c>   4</c></rc>
    <rc><c>I </c><c>   4</c></rc>
    <rc><c>I </c><c>   4</c></rc>
    <rc><c>I </c><c>   4</c></rc>
    <rc><c>I </c><c>   4</c></rc>
    <rc><c>I </c><c>   4</c></rc>
    <rc><c>I </c><c>   4</c></rc>
    <rc><c>I </c><c>   4</c></rc>
    <rc><c>I </c><c>   4</c></rc>
    <rc><c>I </c><c>   4</c></rc>
    <rc><c>I </c><c>   4</c></rc>
    <rc><c>Pb</c><c>   5</c></rc>
    <rc><c>Pb</c><c>   5</c></rc>
    <rc><c>Pb</c><c>   5</c></rc>
    <rc><c>Pb</c><c>   5</c></rc>
    <rc><c>Pb</c><c>   5</c></rc>
    <rc><c>Pb</c><c>   5</c></rc>
    <rc><c>Pb</c><c>   5</c></rc>
    <rc><c>Pb</c><c>   5</c></rc>
    <rc><c>Pb</c><c>   5</c></rc>
    <rc><c>Pb</c><c>   5</c></rc>
    <rc><c>Pb</c><c>   5</c></rc>
    <rc><c>Pb</c><c>   5</c></rc>
    <rc><c>Pb</c><c>   5</c></rc>
    <rc><c>Pb</c><c>   5</c></rc>
    <rc><c>Pb</c><c>   5</c></rc>
    <rc><c>Pb</c><c>   5</c></rc>
    <rc><c>Pb</c><c>   5</c></rc>
    <rc><c>Pb</c><c>   5</c></rc>
    <rc><c>Pb</c><c>   5</c></rc>
    <rc><c>Pb</c><c>   5</c></rc>
    <rc><c>Pb</c><c>   5</c></rc>
    <rc><c>Pb</c><c>   5</c></rc>
    <rc><c>Pb</c><c>   5</c></rc>
    <rc><c>Pb</c><c>   5</c></rc>
   </set>
  </array>
  <array name="atomtypes" >
   <dimension dim="1">type</dimension>
   <field type="int">atomspertype</field>
   <field type="string">element</field>
   <field>mass</field>
   <field>valence</field>
   <field type="string">pseudopotential</field>
   <set>
    <rc><c> 143</c><c>H </c><c>      1.00000000</c><c>      1.00000000</c><c>  PAW_PBE H 15Jun2001                   </c></rc>
    <rc><c>  39</c><c>C </c><c>     12.01100000</c><c>      4.00000000</c><c>  PAW_PBE C 08Apr2002                   </c></rc>
    <rc><c>  47</c><c>N </c><c>     14.00100000</c><c>      5.00000000</c><c>  PAW_PBE N 08Apr2002                   </c></rc>
    <rc><c>  72</c><c>I </c><c>    126.90400000</c><c>      7.00000000</c><c>  PAW_PBE I 08Apr2002                   </c></rc>
    <rc><c>  24</c><c>Pb</c><c>    207.20000000</c><c>      4.00000000</c><c>  PAW_PBE Pb 08Apr2002                  </c></rc>
   </set>
  </array>
 </atominfo>
 <structure name="initialpos" >
  <crystal>
   <varray name="basis" >
    <v>      18.06080055       0.00000000       0.00000000 </v>
    <v>      -0.00491865      18.06279945       0.00000000 </v>
    <v>       0.00000000       0.00000000      62.48749924 </v>
   </varray>
   <i name="volume">  20385.21054034 </i>
   <varray name="rec_basis" >
    <v>       0.05536853       0.00001508      -0.00000000 </v>
    <v>       0.00000000       0.05536240       0.00000000 </v>
    <v>       0.00000000      -0.00000000       0.01600320 </v>
   </varray>
  </crystal>
  <varray name="positions" >
   <v>       0.42097527       0.25642234       0.57597708 </v>
   <v>       0.41005540       0.71996062       0.57450089 </v>
   <v>       0.92122456       0.28096794       0.58097130 </v>
   <v>       0.93901540       0.81555577       0.57626846 </v>
   <v>       0.31744938       0.07523952       0.57319643 </v>
   <v>       0.30867575       0.58108935       0.57260989 </v>
   <v>       0.79913552       0.07947362       0.57708234 </v>
   <v>       0.10866248       0.22672931       0.56522334 </v>
   <v>       0.08077407       0.67381252       0.56949507 </v>
   <v>       0.61021977       0.20057451       0.56537095 </v>
   <v>       0.60194812       0.74257419       0.56088519 </v>
   <v>       0.37434279       0.01248351       0.55932562 </v>
   <v>       0.25359596       0.62225361       0.55266834 </v>
   <v>       0.87258796       0.03376750       0.56391180 </v>
   <v>       0.05988722       0.27834009       0.58419692 </v>
   <v>       0.99808220       0.69073872       0.58311529 </v>
   <v>       0.52747808       0.17298985       0.57868648 </v>
   <v>       0.54346738       0.68880443       0.57725041 </v>
   <v>       0.29243711       0.44598388       0.57909721 </v>
   <v>       0.18189871       0.05137870       0.57175858 </v>
   <v>       0.67631832       0.02189680       0.57426806 </v>
   <v>       0.43535215       0.34048945       0.56145403 </v>
   <v>       0.38507528       0.79166275       0.55694178 </v>
   <v>       0.88282692       0.23011686       0.56018400 </v>
   <v>       0.98562817       0.87301044       0.55864164 </v>
   <v>       0.22190200       0.40323401       0.56465817 </v>
   <v>       0.15217065       0.97899054       0.55552872 </v>
   <v>       0.67342296       0.93525733       0.56076084 </v>
   <v>       0.55619004       0.30591712       0.55134819 </v>
   <v>       0.50995980       0.81141769       0.54657032 </v>
   <v>       0.99991636       0.19271342       0.54684161 </v>
   <v>       0.07951656       0.78725467       0.55167736 </v>
   <v>       0.18916951       0.51035622       0.54603884 </v>
   <v>       0.27448403       0.94408232       0.54638193 </v>
   <v>       0.79577576       0.93630930       0.55222910 </v>
   <v>       0.44451081       0.28289268       0.67615166 </v>
   <v>       0.43126065       0.82135760       0.67185472 </v>
   <v>       0.97194510       0.27608959       0.68149617 </v>
   <v>       0.92734756       0.76762078       0.67331759 </v>
   <v>       0.29433996       0.04694688       0.67534632 </v>
   <v>       0.30764029       0.55360825       0.67262477 </v>
   <v>       0.79458657       0.06077765       0.67506404 </v>
   <v>       0.81521881       0.53905335       0.67499292 </v>
   <v>       0.08604920       0.16493433       0.64503447 </v>
   <v>       0.10063619       0.68847259       0.65308735 </v>
   <v>       0.58079387       0.17374256       0.64633057 </v>
   <v>       0.56262175       0.67692262       0.65613539 </v>
   <v>       0.18114292       0.40755946       0.65451543 </v>
   <v>       0.16538029       0.92318894       0.64800699 </v>
   <v>       0.65996526       0.44045890       0.64992223 </v>
   <v>       0.67009578       0.92081654       0.65238219 </v>
   <v>       0.07184568       0.17722641       0.67255102 </v>
   <v>       0.03425801       0.67070479       0.67250609 </v>
   <v>       0.54075773       0.17816479       0.67172585 </v>
   <v>       0.52532821       0.71636836       0.67912344 </v>
   <v>       0.21921853       0.44297394       0.67808136 </v>
   <v>       0.18706274       0.95390587       0.67386336 </v>
   <v>       0.70656414       0.44397298       0.67430589 </v>
   <v>       0.69519874       0.95823533       0.67711083 </v>
   <v>       0.43184061       0.33825321       0.65356090 </v>
   <v>       0.41606856       0.83890840       0.64443212 </v>
   <v>       0.93252849       0.31754524       0.65956716 </v>
   <v>       0.93430765       0.83748693       0.65438888 </v>
   <v>       0.33563346       0.06482425       0.65082317 </v>
   <v>       0.31499185       0.58304973       0.64606965 </v>
   <v>       0.82643773       0.07843307       0.64895457 </v>
   <v>       0.82890320       0.58710127       0.65197385 </v>
   <v>       0.99990121       0.25236410       0.63479872 </v>
   <v>       0.04296511       0.79146338       0.63951957 </v>
   <v>       0.51542344       0.27493575       0.63296101 </v>
   <v>       0.49780220       0.74935605       0.63273257 </v>
   <v>       0.25716667       0.98852254       0.63194372 </v>
   <v>       0.23669342       0.49158473       0.63277879 </v>
   <v>       0.75012635       0.99154031       0.63310490 </v>
   <v>       0.73123525       0.53134061       0.63400712 </v>
   <v>       0.44874502       0.30128397       0.76888902 </v>
   <v>       0.44874501       0.80128391       0.76888902 </v>
   <v>       0.94874497       0.30128397       0.76888902 </v>
   <v>       0.94874501       0.80128391       0.76888902 </v>
   <v>       0.30127600       0.05129450       0.76887296 </v>
   <v>       0.30127601       0.55129450       0.76887296 </v>
   <v>       0.80127594       0.05129450       0.76887296 </v>
   <v>       0.80127598       0.55129450       0.76887296 </v>
   <v>       0.07877100       0.17118050       0.74344197 </v>
   <v>       0.07877101       0.67118045       0.74344197 </v>
   <v>       0.57877100       0.17118050       0.74344197 </v>
   <v>       0.57877099       0.67118045       0.74344197 </v>
   <v>       0.17119950       0.42117448       0.74342103 </v>
   <v>       0.17119950       0.92117451       0.74342103 </v>
   <v>       0.67119951       0.42117448       0.74342103 </v>
   <v>       0.67119950       0.92117451       0.74342103 </v>
   <v>       0.05125600       0.19871499       0.76888902 </v>
   <v>       0.05125600       0.69871493       0.76888902 </v>
   <v>       0.55125603       0.19871499       0.76888902 </v>
   <v>       0.55125602       0.69871493       0.76888902 </v>
   <v>       0.19872349       0.44870397       0.76887205 </v>
   <v>       0.19872349       0.94870397       0.76887205 </v>
   <v>       0.69872352       0.44870397       0.76887205 </v>
   <v>       0.69872351       0.94870397       0.76887205 </v>
   <v>       0.42123152       0.32881747       0.74344197 </v>
   <v>       0.42123151       0.82881744       0.74344197 </v>
   <v>       0.92123147       0.32881747       0.74344197 </v>
   <v>       0.92123151       0.82881744       0.74344197 </v>
   <v>       0.32880050       0.07882500       0.74342103 </v>
   <v>       0.32880049       0.57882496       0.74342103 </v>
   <v>       0.82880048       0.07882500       0.74342103 </v>
   <v>       0.82880052       0.57882496       0.74342103 </v>
   <v>       0.00000350       0.25000148       0.72582199 </v>
   <v>       0.00000350       0.75000145       0.72582199 </v>
   <v>       0.50000351       0.25000148       0.72582199 </v>
   <v>       0.50000350       0.75000145       0.72582199 </v>
   <v>       0.25000050       0.00000000       0.72580398 </v>
   <v>       0.25000052       0.50000000       0.72580398 </v>
   <v>       0.75000050       0.00000000       0.72580398 </v>
   <v>       0.75000049       0.50000000       0.72580398 </v>
   <v>       0.79326730       0.50953405       0.51687023 </v>
   <v>       0.87327306       0.50484630       0.53293747 </v>
   <v>       0.75598202       0.62793997       0.53623848 </v>
   <v>       0.76754224       0.62483769       0.56408206 </v>
   <v>       0.68362191       0.45312921       0.55375364 </v>
   <v>       0.66961873       0.54564377       0.56138255 </v>
   <v>       0.79897872       0.42995894       0.56916059 </v>
   <v>       0.86617785       0.50037312       0.57079562 </v>
   <v>       0.86084760       0.37883466       0.54029898 </v>
   <v>       0.76581605       0.37417851       0.53506106 </v>
   <v>       0.77781727       0.37949640       0.49806770 </v>
   <v>       0.86874466       0.41440500       0.49864655 </v>
   <v>       0.89696970       0.61453590       0.53152166 </v>
   <v>       0.90336289       0.60930460       0.56005208 </v>
   <v>       0.87052632       0.69057864       0.54760495 </v>
   <v>       0.59504892       0.52041888       0.52898239 </v>
   <v>       0.67485896       0.48652381       0.51498069 </v>
   <v>       0.66562604       0.58209024       0.52189094 </v>
   <v>       0.71578498       0.49022002       0.59436613 </v>
   <v>       0.76546743       0.57636301       0.59186405 </v>
   <v>       0.80655663       0.50021621       0.60409806 </v>
   <v>       0.82916472       0.26049658       0.51516255 </v>
   <v>       0.84708615       0.27780118       0.48819213 </v>
   <v>       0.93255994       0.16750395       0.49988868 </v>
   <v>       0.97225664       0.39571530       0.51623759 </v>
   <v>       0.06768645       0.14197201       0.50286224 </v>
   <v>       0.10720898       0.36970839       0.51897575 </v>
   <v>       0.15533558       0.24355950       0.51186990 </v>
   <v>       0.99611213       0.22704609       0.56124598 </v>
   <v>       0.03274509       0.77217005       0.56229569 </v>
   <v>       0.52275040       0.26927409       0.56136796 </v>
   <v>       0.49567657       0.76690817       0.55770682 </v>
   <v>       0.23394488       0.51248893       0.55782977 </v>
   <v>       0.26396035       0.99289085       0.55646097 </v>
   <v>       0.77311769       0.98353359       0.56115521 </v>
   <v>       0.00903998       0.24133962       0.65179461 </v>
   <v>       0.01771053       0.76266482       0.65298003 </v>
   <v>       0.50666993       0.25651561       0.64945265 </v>
   <v>       0.49011396       0.75789566       0.64977407 </v>
   <v>       0.24811049       0.49493686       0.64982651 </v>
   <v>       0.25056252       0.99410984       0.64900365 </v>
   <v>       0.74408398       0.51444413       0.65028149 </v>
   <v>       0.74846594       0.99907805       0.65034431 </v>
   <v>       0.49998898       0.24999498       0.74327702 </v>
   <v>       0.49998903       0.74999496       0.74327702 </v>
   <v>       0.99998898       0.24999498       0.74327702 </v>
   <v>       0.99998903       0.74999496       0.74327702 </v>
   <v>       0.25000050       0.00000100       0.74325596 </v>
   <v>       0.25000052       0.50000100       0.74325596 </v>
   <v>       0.75000050       0.00000100       0.74325596 </v>
   <v>       0.75000049       0.50000100       0.74325596 </v>
   <v>       0.94278853       0.28428361       0.50778546 </v>
   <v>       0.97093376       0.21249936       0.50426217 </v>
   <v>       0.99253933       0.34026995       0.51314469 </v>
   <v>       0.04635712       0.19792574       0.50554658 </v>
   <v>       0.06824417       0.32543628       0.51501671 </v>
   <v>       0.09611154       0.25477706       0.51088868 </v>
   <v>       0.81650449       0.48484542       0.53123559 </v>
   <v>       0.79025053       0.60492588       0.54898816 </v>
   <v>       0.69250729       0.51002750       0.54884946 </v>
   <v>       0.80631028       0.48928159       0.57077017 </v>
   <v>       0.81716255       0.40021709       0.52975769 </v>
   <v>       0.83112587       0.37537931       0.50655188 </v>
   <v>       0.87011108       0.62992226       0.54673680 </v>
   <v>       0.65578707       0.52534174       0.52733716 </v>
   <v>       0.76990831       0.51642632       0.59106573 </v>
   <v>       0.86068880       0.29676282       0.50440789 </v>
   <v>       0.05761739       0.24257577       0.57155121 </v>
   <v>       0.03610140       0.70744122       0.57175053 </v>
   <v>       0.55443527       0.20780753       0.56807029 </v>
   <v>       0.54950663       0.72544207       0.56491139 </v>
   <v>       0.45380367       0.28892880       0.56607685 </v>
   <v>       0.42636963       0.76054331       0.56344369 </v>
   <v>       0.93000375       0.25096897       0.56709292 </v>
   <v>       0.97913061       0.82072683       0.56478295 </v>
   <v>       0.24945292       0.45096762       0.56822065 </v>
   <v>       0.19458497       0.00854321       0.56149231 </v>
   <v>       0.70138074       0.98177276       0.56491487 </v>
   <v>       0.32190650       0.03112307       0.56283395 </v>
   <v>       0.26783618       0.57658191       0.56094960 </v>
   <v>       0.81802407       0.03636473       0.56777366 </v>
   <v>       0.05808403       0.19188057       0.65714279 </v>
   <v>       0.05199779       0.70361714       0.66019235 </v>
   <v>       0.54408746       0.19927594       0.65648390 </v>
   <v>       0.52920027       0.71551362       0.66256019 </v>
   <v>       0.21414777       0.44495253       0.66167659 </v>
   <v>       0.19688263       0.95447716       0.65765534 </v>
   <v>       0.70159325       0.46331304       0.65886494 </v>
   <v>       0.70165375       0.95642256       0.66074001 </v>
   <v>       0.45791967       0.29442148       0.66061809 </v>
   <v>       0.44337931       0.80937331       0.65600786 </v>
   <v>       0.96887161       0.28066364       0.66544779 </v>
   <v>       0.95553080       0.78985912       0.66053623 </v>
   <v>       0.29709361       0.03819856       0.65907207 </v>
   <v>       0.29306690       0.54671071       0.65684799 </v>
   <v>       0.79233764       0.04864749       0.65896945 </v>
   <v>       0.79935482       0.54756746       0.65961838 </v>
   <v>       0.04586250       0.20411950       0.75272599 </v>
   <v>       0.04586250       0.70411946       0.75272599 </v>
   <v>       0.54586251       0.20411950       0.75272599 </v>
   <v>       0.54586250       0.70411946       0.75272599 </v>
   <v>       0.20411900       0.45410100       0.75270499 </v>
   <v>       0.20411899       0.95410095       0.75270499 </v>
   <v>       0.70411898       0.45410100       0.75270499 </v>
   <v>       0.70411896       0.95410095       0.75270499 </v>
   <v>       0.45414002       0.29588849       0.75272697 </v>
   <v>       0.45414001       0.79588852       0.75272697 </v>
   <v>       0.95414002       0.29588849       0.75272697 </v>
[...]
   <v>       0.61021977       0.20057451       0.56537095 </v>
   <v>       0.60194812       0.74257419       0.56088519 </v>
   <v>       0.37434279       0.01248351       0.55932562 </v>
   <v>       0.25359596       0.62225361       0.55266834 </v>
   <v>       0.87258796       0.03376750       0.56391180 </v>
   <v>       0.05988722       0.27834009       0.58419692 </v>
   <v>       0.99808220       0.69073872       0.58311529 </v>
   <v>       0.52747808       0.17298985       0.57868648 </v>
   <v>       0.54346738       0.68880443       0.57725041 </v>
   <v>       0.29243711       0.44598388       0.57909721 </v>
   <v>       0.18189871       0.05137870       0.57175858 </v>
   <v>       0.67631832       0.02189680       0.57426806 </v>
   <v>       0.43535215       0.34048945       0.56145403 </v>
   <v>       0.38507528       0.79166275       0.55694178 </v>
   <v>       0.88282692       0.23011686       0.56018400 </v>
   <v>       0.98562817       0.87301044       0.55864164 </v>
   <v>       0.22190200       0.40323401       0.56465817 </v>
   <v>       0.15217065       0.97899054       0.55552872 </v>
   <v>       0.67342296       0.93525733       0.56076084 </v>
   <v>       0.55619004       0.30591712       0.55134819 </v>
   <v>       0.50995980       0.81141769       0.54657032 </v>
   <v>       0.99991636       0.19271342       0.54684161 </v>
   <v>       0.07951656       0.78725467       0.55167736 </v>
   <v>       0.18916951       0.51035622       0.54603884 </v>
   <v>       0.27448403       0.94408232       0.54638193 </v>
   <v>       0.79577576       0.93630930       0.55222910 </v>
   <v>       0.44451081       0.28289268       0.67615166 </v>
   <v>       0.43126065       0.82135760       0.67185472 </v>
   <v>       0.97194510       0.27608959       0.68149617 </v>
   <v>       0.92734756       0.76762078       0.67331759 </v>
   <v>       0.29433996       0.04694688       0.67534632 </v>
   <v>       0.30764029       0.55360825       0.67262477 </v>
   <v>       0.79458657       0.06077765       0.67506404 </v>
   <v>       0.81521881       0.53905335       0.67499292 </v>
   <v>       0.08604920       0.16493433       0.64503447 </v>
   <v>       0.10063619       0.68847259       0.65308735 </v>
   <v>       0.58079387       0.17374256       0.64633057 </v>
   <v>       0.56262175       0.67692262       0.65613539 </v>
   <v>       0.18114292       0.40755946       0.65451543 </v>
   <v>       0.16538029       0.92318894       0.64800699 </v>
   <v>       0.65996526       0.44045890       0.64992223 </v>
   <v>       0.67009578       0.92081654       0.65238219 </v>
   <v>       0.07184568       0.17722641       0.67255102 </v>
   <v>       0.03425801       0.67070479       0.67250609 </v>
   <v>       0.54075773       0.17816479       0.67172585 </v>
   <v>       0.52532821       0.71636836       0.67912344 </v>
   <v>       0.21921853       0.44297394       0.67808136 </v>
   <v>       0.18706274       0.95390587       0.67386336 </v>
   <v>       0.70656414       0.44397298       0.67430589 </v>
   <v>       0.69519874       0.95823533       0.67711083 </v>
   <v>       0.43184061       0.33825321       0.65356090 </v>
   <v>       0.41606856       0.83890840       0.64443212 </v>
   <v>       0.93252849       0.31754524       0.65956716 </v>
   <v>       0.93430765       0.83748693       0.65438888 </v>
   <v>       0.33563346       0.06482425       0.65082317 </v>
   <v>       0.31499185       0.58304973       0.64606965 </v>
   <v>       0.82643773       0.07843307       0.64895457 </v>
   <v>       0.82890320       0.58710127       0.65197385 </v>
   <v>       0.99990121       0.25236410       0.63479872 </v>
   <v>       0.04296511       0.79146338       0.63951957 </v>
   <v>       0.51542344       0.27493575       0.63296101 </v>
   <v>       0.49780220       0.74935605       0.63273257 </v>
   <v>       0.25716667       0.98852254       0.63194372 </v>
   <v>       0.23669342       0.49158473       0.63277879 </v>
   <v>       0.75012635       0.99154031       0.63310490 </v>
   <v>       0.73123525       0.53134061       0.63400712 </v>
   <v>       0.44874502       0.30128397       0.76888902 </v>
   <v>       0.44874501       0.80128391       0.76888902 </v>
   <v>       0.94874497       0.30128397       0.76888902 </v>
   <v>       0.94874501       0.80128391       0.76888902 </v>
   <v>       0.30127600       0.05129450       0.76887296 </v>
   <v>       0.30127601       0.55129450       0.76887296 </v>
   <v>       0.80127594       0.05129450       0.76887296 </v>
   <v>       0.80127598       0.55129450       0.76887296 </v>
   <v>       0.07877100       0.17118050       0.74344197 </v>
   <v>       0.07877101       0.67118045       0.74344197 </v>
   <v>       0.57877100       0.17118050       0.74344197 </v>
   <v>       0.57877099       0.67118045       0.74344197 </v>
   <v>       0.17119950       0.42117448       0.74342103 </v>
   <v>       0.17119950       0.92117451       0.74342103 </v>
   <v>       0.67119951       0.42117448       0.74342103 </v>
   <v>       0.67119950       0.92117451       0.74342103 </v>
   <v>       0.05125600       0.19871499       0.76888902 </v>
   <v>       0.05125600       0.69871493       0.76888902 </v>
   <v>       0.55125603       0.19871499       0.76888902 </v>
   <v>       0.55125602       0.69871493       0.76888902 </v>
   <v>       0.19872349       0.44870397       0.76887205 </v>
   <v>       0.19872349       0.94870397       0.76887205 </v>
   <v>       0.69872352       0.44870397       0.76887205 </v>
   <v>       0.69872351       0.94870397       0.76887205 </v>
   <v>       0.42123152       0.32881747       0.74344197 </v>
   <v>       0.42123151       0.82881744       0.74344197 </v>
   <v>       0.92123147       0.32881747       0.74344197 </v>
   <v>       0.92123151       0.82881744       0.74344197 </v>
   <v>       0.32880050       0.07882500       0.74342103 </v>
   <v>       0.32880049       0.57882496       0.74342103 </v>
   <v>       0.82880048       0.07882500       0.74342103 </v>
   <v>       0.82880052       0.57882496       0.74342103 </v>
   <v>       0.00000350       0.25000148       0.72582199 </v>
   <v>       0.00000350       0.75000145       0.72582199 </v>
   <v>       0.50000351       0.25000148       0.72582199 </v>
   <v>       0.50000350       0.75000145       0.72582199 </v>
   <v>       0.25000050       0.00000000       0.72580398 </v>
   <v>       0.25000052       0.50000000       0.72580398 </v>
   <v>       0.75000050       0.00000000       0.72580398 </v>
   <v>       0.75000049       0.50000000       0.72580398 </v>
   <v>       0.79326730       0.50953405       0.51687023 </v>
   <v>       0.87327306       0.50484630       0.53293747 </v>
   <v>       0.75598202       0.62793997       0.53623848 </v>
   <v>       0.76754224       0.62483769       0.56408206 </v>
   <v>       0.68362191       0.45312921       0.55375364 </v>
   <v>       0.66961873       0.54564377       0.56138255 </v>
   <v>       0.79897872       0.42995894       0.56916059 </v>
   <v>       0.86617785       0.50037312       0.57079562 </v>
   <v>       0.86084760       0.37883466       0.54029898 </v>
   <v>       0.76581605       0.37417851       0.53506106 </v>
   <v>       0.77781727       0.37949640       0.49806770 </v>
   <v>       0.86874466       0.41440500       0.49864655 </v>
   <v>       0.89696970       0.61453590       0.53152166 </v>
   <v>       0.90336289       0.60930460       0.56005208 </v>
   <v>       0.87052632       0.69057864       0.54760495 </v>
   <v>       0.59504892       0.52041888       0.52898239 </v>
   <v>       0.67485896       0.48652381       0.51498069 </v>
   <v>       0.66562604       0.58209024       0.52189094 </v>
   <v>       0.71578498       0.49022002       0.59436613 </v>
   <v>       0.76546743       0.57636301       0.59186405 </v>
   <v>       0.80655663       0.50021621       0.60409806 </v>
   <v>       0.82916472       0.26049658       0.51516255 </v>
   <v>       0.84708615       0.27780118       0.48819213 </v>
   <v>       0.93255994       0.16750395       0.49988868 </v>
   <v>       0.97225664       0.39571530       0.51623759 </v>
   <v>       0.06768645       0.14197201       0.50286224 </v>
   <v>       0.10720898       0.36970839       0.51897575 </v>
   <v>       0.15533558       0.24355950       0.51186990 </v>
   <v>       0.99611213       0.22704609       0.56124598 </v>
   <v>       0.03274509       0.77217005       0.56229569 </v>
   <v>       0.52275040       0.26927409       0.56136796 </v>
   <v>       0.49567657       0.76690817       0.55770682 </v>
   <v>       0.23394488       0.51248893       0.55782977 </v>
   <v>       0.26396035       0.99289085       0.55646097 </v>
   <v>       0.77311769       0.98353359       0.56115521 </v>
   <v>       0.00903998       0.24133962       0.65179461 </v>
   <v>       0.01771053       0.76266482       0.65298003 </v>
   <v>       0.50666993       0.25651561       0.64945265 </v>
   <v>       0.49011396       0.75789566       0.64977407 </v>
   <v>       0.24811049       0.49493686       0.64982651 </v>
   <v>       0.25056252       0.99410984       0.64900365 </v>
   <v>       0.74408398       0.51444413       0.65028149 </v>
   <v>       0.74846594       0.99907805       0.65034431 </v>
   <v>       0.49998898       0.24999498       0.74327702 </v>
   <v>       0.49998903       0.74999496       0.74327702 </v>
   <v>       0.99998898       0.24999498       0.74327702 </v>
   <v>       0.99998903       0.74999496       0.74327702 </v>
   <v>       0.25000050       0.00000100       0.74325596 </v>
   <v>       0.25000052       0.50000100       0.74325596 </v>
   <v>       0.75000050       0.00000100       0.74325596 </v>
   <v>       0.75000049       0.50000100       0.74325596 </v>
   <v>       0.94278853       0.28428361       0.50778546 </v>
   <v>       0.97093376       0.21249936       0.50426217 </v>
   <v>       0.99253933       0.34026995       0.51314469 </v>
   <v>       0.04635712       0.19792574       0.50554658 </v>
   <v>       0.06824417       0.32543628       0.51501671 </v>
   <v>       0.09611154       0.25477706       0.51088868 </v>
   <v>       0.81650449       0.48484542       0.53123559 </v>
   <v>       0.79025053       0.60492588       0.54898816 </v>
   <v>       0.69250729       0.51002750       0.54884946 </v>
   <v>       0.80631028       0.48928159       0.57077017 </v>
   <v>       0.81716255       0.40021709       0.52975769 </v>
   <v>       0.83112587       0.37537931       0.50655188 </v>
   <v>       0.87011108       0.62992226       0.54673680 </v>
   <v>       0.65578707       0.52534174       0.52733716 </v>
   <v>       0.76990831       0.51642632       0.59106573 </v>
   <v>       0.86068880       0.29676282       0.50440789 </v>
   <v>       0.05761739       0.24257577       0.57155121 </v>
   <v>       0.03610140       0.70744122       0.57175053 </v>
   <v>       0.55443527       0.20780753       0.56807029 </v>
   <v>       0.54950663       0.72544207       0.56491139 </v>
   <v>       0.45380367       0.28892880       0.56607685 </v>
   <v>       0.42636963       0.76054331       0.56344369 </v>
   <v>       0.93000375       0.25096897       0.56709292 </v>
   <v>       0.97913061       0.82072683       0.56478295 </v>
   <v>       0.24945292       0.45096762       0.56822065 </v>
   <v>       0.19458497       0.00854321       0.56149231 </v>
   <v>       0.70138074       0.98177276       0.56491487 </v>
   <v>       0.32190650       0.03112307       0.56283395 </v>
   <v>       0.26783618       0.57658191       0.56094960 </v>
   <v>       0.81802407       0.03636473       0.56777366 </v>
   <v>       0.05808403       0.19188057       0.65714279 </v>
   <v>       0.05199779       0.70361714       0.66019235 </v>
   <v>       0.54408746       0.19927594       0.65648390 </v>
   <v>       0.52920027       0.71551362       0.66256019 </v>
   <v>       0.21414777       0.44495253       0.66167659 </v>
   <v>       0.19688263       0.95447716       0.65765534 </v>
   <v>       0.70159325       0.46331304       0.65886494 </v>
   <v>       0.70165375       0.95642256       0.66074001 </v>
   <v>       0.45791967       0.29442148       0.66061809 </v>
   <v>       0.44337931       0.80937331       0.65600786 </v>
   <v>       0.96887161       0.28066364       0.66544779 </v>
   <v>       0.95553080       0.78985912       0.66053623 </v>
   <v>       0.29709361       0.03819856       0.65907207 </v>
   <v>       0.29306690       0.54671071       0.65684799 </v>
   <v>       0.79233764       0.04864749       0.65896945 </v>
   <v>       0.79935482       0.54756746       0.65961838 </v>
   <v>       0.04586250       0.20411950       0.75272599 </v>
   <v>       0.04586250       0.70411946       0.75272599 </v>
   <v>       0.54586251       0.20411950       0.75272599 </v>
   <v>       0.54586250       0.70411946       0.75272599 </v>
   <v>       0.20411900       0.45410100       0.75270499 </v>
   <v>       0.20411899       0.95410095       0.75270499 </v>
   <v>       0.70411898       0.45410100       0.75270499 </v>
   <v>       0.70411896       0.95410095       0.75270499 </v>
   <v>       0.45414002       0.29588849       0.75272697 </v>
   <v>       0.45414001       0.79588852       0.75272697 </v>
   <v>       0.95414002       0.29588849       0.75272697 </v>
   <v>       0.95414006       0.79588852       0.75272697 </v>
   <v>       0.29588249       0.04590050       0.75270499 </v>
   <v>       0.29588248       0.54590053       0.75270499 </v>
   <v>       0.79588244       0.04590050       0.75270499 </v>
   <v>       0.79588248       0.54590053       0.75270499 </v>
   <v>       0.77635201       0.52120039       0.54981145 </v>
   <v>       0.50601719       0.97717233       0.55494992 </v>
   <v>       0.45552607       0.48457605       0.55443755 </v>
   <v>       0.00399531       0.01589724       0.55300215 </v>
   <v>       0.03756128       0.49374189       0.55595312 </v>
   <v>       0.24967662       0.24581995       0.55630847 </v>
   <v>       0.23417734       0.76821333       0.55199725 </v>
   <v>       0.74337221       0.22308389       0.55526139 </v>
   <v>       0.71593894       0.79494587       0.54837598 </v>
   <v>       0.99848026       0.99065766       0.65477842 </v>
   <v>       0.00451660       0.50103024       0.65610187 </v>
   <v>       0.49798581       0.00755818       0.65570500 </v>
   <v>       0.49872222       0.50240546       0.65443711 </v>
   <v>       0.25888072       0.23782419       0.65614173 </v>
   <v>       0.24716891       0.74946101       0.65402211 </v>
   <v>       0.74064147       0.25389642       0.65542058 </v>
   <v>       0.75339159       0.75108724       0.65408981 </v>
   <v>       0.14367957       0.10948862       0.60897440 </v>
   <v>       0.14339119       0.61081372       0.61013339 </v>
   <v>       0.64521206       0.10736353       0.60908624 </v>
   <v>       0.61149612       0.63734794       0.61329460 </v>
   <v>       0.36433089       0.38530723       0.61327311 </v>
   <v>       0.36379252       0.88659117       0.60692797 </v>
   <v>       0.89046321       0.36043397       0.61568107 </v>
   <v>       0.86617143       0.88571826       0.60754321 </v>
   <v>       0.11955907       0.36443057       0.61336841 </v>
   <v>       0.11871004       0.87648975       0.60710367 </v>
   <v>       0.61553566       0.36965153       0.60650986 </v>
   <v>       0.62036389       0.86862928       0.61189766 </v>
   <v>       0.39725011       0.14279317       0.60569317 </v>
   <v>       0.37728585       0.63480204       0.60640046 </v>
   <v>       0.88643072       0.13750607       0.61397015 </v>
   <v>       0.91214090       0.66069768       0.61341236 </v>
   <v>       0.00000000       0.00000000       0.75492797 </v>
   <v>       0.00000000       0.50000000       0.75492797 </v>
   <v>       0.50000000       0.00000000       0.75492797 </v>
   <v>       0.49999999       0.50000000       0.75492797 </v>
   <v>       0.25000050       0.25000000       0.75493902 </v>
   <v>       0.25000051       0.74999997       0.75493902 </v>
   <v>       0.75000047       0.25000000       0.75493902 </v>
   <v>       0.75000046       0.74999997       0.75493902 </v>
   <v>       0.13579050       0.11421000       0.70478299 </v>
   <v>       0.13579050       0.61420998       0.70478299 </v>
   <v>       0.63579045       0.11421000       0.70478299 </v>
   <v>       0.63579049       0.61420998       0.70478299 </v>
   <v>       0.36420952       0.38578999       0.70478299 </v>
   <v>       0.36420950       0.88578996       0.70478299 </v>
   <v>       0.86420954       0.38578999       0.70478299 </v>
   <v>       0.86420953       0.88578996       0.70478299 </v>
   <v>       0.11421799       0.36421899       0.70478098 </v>
   <v>       0.11421799       0.86421899       0.70478098 </v>
   <v>       0.61421800       0.36421899       0.70478098 </v>
   <v>       0.61421799       0.86421899       0.70478098 </v>
   <v>       0.38578201       0.13578149       0.70478202 </v>
   <v>       0.38578200       0.63578149       0.70478202 </v>
   <v>       0.88578199       0.13578149       0.70478202 </v>
   <v>       0.88578203       0.63578149       0.70478202 </v>
   <v>       0.13466700       0.11533200       0.80125603 </v>
   <v>       0.13466699       0.61533199       0.80125603 </v>
   <v>       0.63466699       0.11533200       0.80125603 </v>
   <v>       0.63466698       0.61533199       0.80125603 </v>
   <v>       0.36533300       0.38466799       0.80125603 </v>
   <v>       0.36533299       0.88466796       0.80125603 </v>
   <v>       0.86533295       0.38466799       0.80125603 </v>
   <v>       0.86533294       0.88466796       0.80125603 </v>
   <v>       0.11532850       0.36533700       0.80126500 </v>
   <v>       0.11532850       0.86533698       0.80126500 </v>
   <v>       0.61532850       0.36533700       0.80126500 </v>
   <v>       0.61532849       0.86533698       0.80126500 </v>
   <v>       0.38467151       0.13466300       0.80126500 </v>
   <v>       0.38467150       0.63466297       0.80126500 </v>
   <v>       0.88467149       0.13466300       0.80126500 </v>
   <v>       0.88467153       0.63466297       0.80126500 </v>
   <v>       0.99896760       0.00777286       0.60494100 </v>
   <v>       0.00791408       0.50366627       0.60529526 </v>
   <v>       0.50462095       0.99399655       0.60469956 </v>
   <v>       0.49382325       0.49907097       0.60317997 </v>
   <v>       0.25261587       0.25083859       0.60635040 </v>
   <v>       0.24187109       0.75706869       0.60350828 </v>
   <v>       0.75078106       0.25387815       0.60615810 </v>
   <v>       0.74988665       0.75556754       0.60402065 </v>
   <v>       0.00000050       0.00000050       0.70482896 </v>
   <v>       0.00000050       0.50000048       0.70482896 </v>
   <v>       0.50000048       0.00000050       0.70482896 </v>
   <v>       0.50000046       0.50000048       0.70482896 </v>
   <v>       0.24999999       0.24999947       0.70482499 </v>
   <v>       0.25000001       0.74999950       0.70482499 </v>
   <v>       0.74999999       0.24999947       0.70482499 </v>
   <v>       0.74999998       0.74999950       0.70482499 </v>
   <v>       0.00000000       0.00000000       0.80731797 </v>
   <v>       0.00000000       0.50000000       0.80731797 </v>
   <v>       0.50000000       0.00000000       0.80731797 </v>
   <v>       0.49999999       0.50000000       0.80731797 </v>
   <v>       0.24999999       0.25000000       0.80731797 </v>
   <v>       0.25000001       0.74999997       0.80731797 </v>
   <v>       0.74999999       0.25000000       0.80731797 </v>
   <v>       0.74999998       0.74999997       0.80731797 </v>
  </varray>
 </structure>
</modeling>
