 vasp.6.2.1 16May21 (build Nov 15 2021 14:57:28) complex                         
 executed on             LinuxPGI date 2023.07.25  00:41:39
 running on    4 total cores
 distrk:  each k-point on    4 cores,    1 groups
 distr:  one band on NCORE=   1 cores,    4 groups


--------------------------------------------------------------------------------------------------------


 INCAR:
   SYSTEM = PSC
   ISTART = 1
   ICHARG = 1
   PREC = Normal
   ENCUT = 500
   GGA_COMPAT = F
   NELM = 600
   ISYM = 0
   LREAL = Auto
   ISMEAR = 0
   SIGMA = 0.05
   AMIN = 0.01
   BMIX = 0.01
   LVTOT = T
   LWAVE = F
   LDIPOL = T
   IDIPOL = 3
   LVDW = T
   IVDW = 12

 POTCAR:    PAW_PBE H 15Jun2001                   
 POTCAR:    PAW_PBE C 08Apr2002                   
 POTCAR:    PAW_PBE N 08Apr2002                   
 POTCAR:    PAW_PBE I 08Apr2002                   
 POTCAR:    PAW_PBE Pb 08Apr2002                  
 WARNING: For LVTOT=.TRUE., VASP.5.x writes the TOTAL local potential to the
     file LOCPOT. If you want only the Hartree contributions, use LVHAR=.TRUE.
     instead. 

 POTCAR:    PAW_PBE H 15Jun2001                   
   SHA256 =  030f79b5d3ab3cf0e668861823c8fb652ff669f3e15e46930bd03bfd63a607b6 H/POTCAR              
   COPYR  = (c) Copyright 15Jun2001 Georg Kresse                                                    
   COPYR  = This file is part of the software VASP. Any use, copying, and all other rights are regul
   COPYR  = If you do not have a valid VASP license, you may not use, copy or distribute this file. 
   VRHFIN =H: ultrasoft test                                                                        
   LEXCH  = PE                                                                                      
   EATOM  =    12.4884 eV,    0.9179 Ry                                                             
                                                                                                    
   TITEL  = PAW_PBE H 15Jun2001                                                                     
   LULTRA =        F    use ultrasoft PP ?                                                          
   IUNSCR =        0    unscreen: 0-lin 1-nonlin 2-no                                               
   RPACOR =    0.000    partial core radius                                                         
   POMASS =    1.000; ZVAL   =    1.000    mass and valenz                                          
   RCORE  =    1.100    outmost cutoff radius                                                       
   RWIGS  =    0.700; RWIGS  =    0.370    wigner-seitz radius (au A)                               
   ENMAX  =  250.000; ENMIN  =  200.000 eV                                                          
   RCLOC  =    0.701    cutoff for local pot                                                        
   LCOR   =        T    correct aug charges                                                         
   LPAW   =        T    paw PP                                                                      
   EAUG   =  400.000                                                                                
   RMAX   =    1.123    core radius for proj-oper                                                   
   RAUG   =    1.200    factor for augmentation sphere                                              
   RDEP   =    1.112    radius for radial grids                                                     
   RDEPT  =    0.926    core radius for aug-charge                                                  
                                                                                                    
   Atomic configuration                                                                             
    2 entries                                                                                       
     n  l   j            E        occ.                                                              
     1  0  0.50        -6.4927   1.0000                                                             
     2  1  0.50        -3.4015   0.0000                                                             
   Description                                                                                      
     l       E           TYP  RCUT    TYP  RCUT                                                     
     0     -6.4927494     23  1.100                                                                 
     0      6.8029130     23  1.100                                                                 
     1     -4.0817478     23  1.100                                                                 
  local pseudopotential read in
  atomic valenz-charges read in
  non local Contribution for L=            0  read in
    real space projection operators read in
  non local Contribution for L=            0  read in
    real space projection operators read in
  non local Contribution for L=            1  read in
    real space projection operators read in
    PAW grid and wavefunctions read in
 
   number of l-projection  operators is LMAX  =            3
   number of lm-projection operators is LMMAX =            5
 
 POTCAR:    PAW_PBE C 08Apr2002                   
   SHA256 =  253f7b50bb8d59471dbedb8285d89021f4a42ed1a2c5d38a03a736e69125dd95 C/POTCAR              
   COPYR  = (c) Copyright 08Apr2002 Georg Kresse                                                    
   COPYR  = This file is part of the software VASP. Any use, copying, and all other rights are regul
   COPYR  = If you do not have a valid VASP license, you may not use, copy or distribute this file. 
   VRHFIN =C: s2p2                                                                                  
   LEXCH  = PE                                                                                      
   EATOM  =   147.1560 eV,   10.8157 Ry                                                             
                                                                                                    
   TITEL  = PAW_PBE C 08Apr2002                                                                     
   LULTRA =        F    use ultrasoft PP ?                                                          
   IUNSCR =        1    unscreen: 0-lin 1-nonlin 2-no                                               
   RPACOR =    1.200    partial core radius                                                         
   POMASS =   12.011; ZVAL   =    4.000    mass and valenz                                          
   RCORE  =    1.500    outmost cutoff radius                                                       
   RWIGS  =    1.630; RWIGS  =    0.863    wigner-seitz radius (au A)                               
   ENMAX  =  400.000; ENMIN  =  300.000 eV                                                          
   ICORE  =        2    local potential                                                             
   LCOR   =        T    correct aug charges                                                         
   LPAW   =        T    paw PP                                                                      
   EAUG   =  644.873                                                                                
   DEXC   =    0.000                                                                                
   RMAX   =    1.529    core radius for proj-oper                                                   
   RAUG   =    1.300    factor for augmentation sphere                                              
   RDEP   =    1.501    radius for radial grids                                                     
   RDEPT  =    1.300    core radius for aug-charge                                                  
                                                                                                    
   Atomic configuration                                                                             
    4 entries                                                                                       
     n  l   j            E        occ.                                                              
     1  0  0.50      -273.3789   2.0000                                                             
     2  0  0.50       -13.7508   2.0000                                                             
     2  1  0.50        -5.2854   2.0000                                                             
     3  2  1.50        -5.4423   0.0000                                                             
   Description                                                                                      
     l       E           TYP  RCUT    TYP  RCUT                                                     
     0    -13.7508458     23  1.200                                                                 
     0     -8.2022199     23  1.200                                                                 
     1     -5.2854383     23  1.500                                                                 
     1     34.0145650     23  1.500                                                                 
     2     -5.4423304      7  1.500                                                                 
  local pseudopotential read in
  partial core-charges read in
  partial kinetic energy density read in
  atomic valenz-charges read in
  non local Contribution for L=            0  read in
    real space projection operators read in
  non local Contribution for L=            0  read in
    real space projection operators read in
  non local Contribution for L=            1  read in
    real space projection operators read in
  non local Contribution for L=            1  read in
    real space projection operators read in
    PAW grid and wavefunctions read in
 
   number of l-projection  operators is LMAX  =            4
   number of lm-projection operators is LMMAX =            8
 
 POTCAR:    PAW_PBE N 08Apr2002                   
   SHA256 =  e053789ff3a61a86a1b75d8a110fcc91f86041011e7b0817c7c99e4e8a6349d7 N/POTCAR              
   COPYR  = (c) Copyright 08Apr2002 Georg Kresse                                                    
   COPYR  = This file is part of the software VASP. Any use, copying, and all other rights are regul
   COPYR  = If you do not have a valid VASP license, you may not use, copy or distribute this file. 
   VRHFIN =N: s2p3                                                                                  
   LEXCH  = PE                                                                                      
   EATOM  =   264.5486 eV,   19.4438 Ry                                                             
                                                                                                    
   TITEL  = PAW_PBE N 08Apr2002                                                                     
   LULTRA =        F    use ultrasoft PP ?                                                          
   IUNSCR =        1    unscreen: 0-lin 1-nonlin 2-no                                               
   RPACOR =    1.200    partial core radius                                                         
   POMASS =   14.001; ZVAL   =    5.000    mass and valenz                                          
   RCORE  =    1.500    outmost cutoff radius                                                       
   RWIGS  =    1.400; RWIGS  =    0.741    wigner-seitz radius (au A)                               
   ENMAX  =  400.000; ENMIN  =  300.000 eV                                                          
   ICORE  =        2    local potential                                                             
   LCOR   =        T    correct aug charges                                                         
   LPAW   =        T    paw PP                                                                      
   EAUG   =  627.112                                                                                
   DEXC   =    0.000                                                                                
   RMAX   =    1.529    core radius for proj-oper                                                   
   RAUG   =    1.300    factor for augmentation sphere                                              
   RDEP   =    1.514    radius for radial grids                                                     
   RDEPT  =    1.338    core radius for aug-charge                                                  
                                                                                                    
   Atomic configuration                                                                             
    4 entries                                                                                       
     n  l   j            E        occ.                                                              
     1  0  0.50      -384.7179   2.0000                                                             
     2  0  0.50       -18.5828   2.0000                                                             
     2  1  0.50        -7.0898   3.0000                                                             
     3  2  1.50        -6.8029   0.0000                                                             
   Description                                                                                      
     l       E           TYP  RCUT    TYP  RCUT                                                     
     0    -18.5828119     23  1.200                                                                 
     0    -13.5018863     23  1.200                                                                 
     1     -7.0897853     23  1.500                                                                 
     1      9.5240782     23  1.500                                                                 
     2     -6.8029130      7  1.500                                                                 
  local pseudopotential read in
  partial core-charges read in
  partial kinetic energy density read in
  atomic valenz-charges read in
  non local Contribution for L=            0  read in
    real space projection operators read in
  non local Contribution for L=            0  read in
    real space projection operators read in
  non local Contribution for L=            1  read in
    real space projection operators read in
  non local Contribution for L=            1  read in
    real space projection operators read in
    PAW grid and wavefunctions read in
 
   number of l-projection  operators is LMAX  =            4
   number of lm-projection operators is LMMAX =            8
 
 POTCAR:    PAW_PBE I 08Apr2002                   
   SHA256 =  e40f3f59b681c1fc3e3091736183c4589116986673d2b852a5012aec72758799 I/POTCAR              
   COPYR  = (c) Copyright 08Apr2002 Georg Kresse                                                    
   COPYR  = This file is part of the software VASP. Any use, copying, and all other rights are regul
   COPYR  = If you do not have a valid VASP license, you may not use, copy or distribute this file. 
   VRHFIN =I : s2p5                                                                                 
   LEXCH  = PE                                                                                      
   EATOM  =   315.8678 eV,   23.2156 Ry                                                             
                                                                                                    
   TITEL  = PAW_PBE I 08Apr2002                                                                     
   LULTRA =        F    use ultrasoft PP ?                                                          
   IUNSCR =        1    unscreen: 0-lin 1-nonlin 2-no                                               
   RPACOR =    2.200    partial core radius                                                         
   POMASS =  126.904; ZVAL   =    7.000    mass and valenz                                          
   RCORE  =    2.300    outmost cutoff radius                                                       
   RWIGS  =    2.810; RWIGS  =    1.487    wigner-seitz radius (au A)                               
   ENMAX  =  175.647; ENMIN  =  131.735 eV                                                          
   ICORE  =        3    local potential                                                             
   LCOR   =        T    correct aug charges                                                         
   LPAW   =        T    paw PP                                                                      
   EAUG   =  370.139                                                                                
   DEXC   =    0.000                                                                                
   RMAX   =    2.359    core radius for proj-oper                                                   
   RAUG   =    1.300    factor for augmentation sphere                                              
   RDEP   =    2.392    radius for radial grids                                                     
   RDEPT  =    2.170    core radius for aug-charge                                                  
                                                                                                    
   Atomic configuration                                                                             
   13 entries                                                                                       
     n  l   j            E        occ.                                                              
     1  0  0.50    -32976.3739   2.0000                                                             
     2  0  0.50     -5094.5933   2.0000                                                             
     2  1  1.50     -4572.0131   6.0000                                                             
     3  0  0.50     -1028.2813   2.0000                                                             
     3  1  1.50      -859.0250   6.0000                                                             
     3  2  2.50      -605.7620  10.0000                                                             
     4  0  0.50      -180.5540   2.0000                                                             
     4  1  1.50      -127.5306   6.0000                                                             
     4  2  2.50       -50.2720  10.0000                                                             
     5  0  0.50       -17.4058   2.0000                                                             
     5  1  0.50        -7.0851   5.0000                                                             
     5  2  1.50        -7.0750   0.0000                                                             
     4  3  2.50        -7.0750   0.0000                                                             
   Description                                                                                      
     l       E           TYP  RCUT    TYP  RCUT                                                     
     0    -17.4058016     23  2.300                                                                 
     0    -18.7663842     23  2.300                                                                 
     1     -7.0850686     23  2.300                                                                 
     1     -4.2150896     23  2.300                                                                 
     2     -7.0750295     23  2.300                                                                 
     3     -1.3605826     23  2.300                                                                 
  local pseudopotential read in
  partial core-charges read in
  partial kinetic energy density read in
  atomic valenz-charges read in
  non local Contribution for L=            0  read in
    real space projection operators read in
  non local Contribution for L=            0  read in
    real space projection operators read in
  non local Contribution for L=            1  read in
    real space projection operators read in
  non local Contribution for L=            1  read in
    real space projection operators read in
  non local Contribution for L=            2  read in
    real space projection operators read in
    PAW grid and wavefunctions read in
 
   number of l-projection  operators is LMAX  =            5
   number of lm-projection operators is LMMAX =           13
 
 POTCAR:    PAW_PBE Pb 08Apr2002                  
   SHA256 =  797118a27cf1bcd06b9881c67a26cdde129e3cd1a551dd4a281f9681ce847303 Pb/POTCAR             
   COPYR  = (c) Copyright 08Apr2002 Georg Kresse                                                    
   COPYR  = This file is part of the software VASP. Any use, copying, and all other rights are regul
   COPYR  = If you do not have a valid VASP license, you may not use, copy or distribute this file. 
   VRHFIN =Pb:                                                                                      
   LEXCH  = PE                                                                                      
   EATOM  =    96.9868 eV,    7.1283 Ry                                                             
                                                                                                    
   TITEL  = PAW_PBE Pb 08Apr2002                                                                    
   LULTRA =        F    use ultrasoft PP ?                                                          
   IUNSCR =        1    unscreen: 0-lin 1-nonlin 2-no                                               
   RPACOR =    2.200    partial core radius                                                         
   POMASS =  207.200; ZVAL   =    4.000    mass and valenz                                          
   RCORE  =    3.100    outmost cutoff radius                                                       
   RWIGS  =    3.260; RWIGS  =    1.725    wigner-seitz radius (au A)                               
   ENMAX  =   97.973; ENMIN  =   73.480 eV                                                          
   ICORE  =        3    local potential                                                             
   LCOR   =        T    correct aug charges                                                         
   LPAW   =        T    paw PP                                                                      
   EAUG   =  234.873                                                                                
   DEXC   =    0.000                                                                                
   RMAX   =    3.158    core radius for proj-oper                                                   
   RAUG   =    1.300    factor for augmentation sphere                                              
   RDEP   =    3.202    radius for radial grids                                                     
   RDEPT  =    2.659    core radius for aug-charge                                                  
                                                                                                    
   Atomic configuration                                                                             
   17 entries                                                                                       
     n  l   j            E        occ.                                                              
     1  0  0.50    -88091.8466   2.0000                                                             
     2  0  0.50    -15753.4197   2.0000                                                             
     2  1  1.50    -13508.1797   6.0000                                                             
     3  0  0.50     -3781.7194   2.0000                                                             
     3  1  1.50     -3138.2529   6.0000                                                             
     3  2  2.50     -2483.2977  10.0000                                                             
     4  0  0.50      -856.2895   2.0000                                                             
     4  1  1.50      -645.4943   6.0000                                                             
     4  2  2.50      -401.8768  10.0000                                                             
     4  3  3.50      -132.9059  14.0000                                                             
     5  0  0.50      -144.0950   2.0000                                                             
     5  1  1.50       -85.7879   6.0000                                                             
     5  2  2.50       -21.1769  10.0000                                                             
     6  0  0.50       -12.0372   2.0000                                                             
     6  1  1.50        -3.4971   2.0000                                                             
     6  2  2.50        -1.3606   0.0000                                                             
     5  3  2.50        -2.7212   0.0000                                                             
   Description                                                                                      
     l       E           TYP  RCUT    TYP  RCUT                                                     
     0    -12.0371566     23  3.100                                                                 
     0    -13.3977392     23  3.100                                                                 
     1     -3.4971341     23  3.100                                                                 
     1     -5.4423304     23  3.100                                                                 
     2     -1.3605826     23  3.100                                                                 
     3     -1.3605826     23  3.100                                                                 
  local pseudopotential read in
  partial core-charges read in
  partial kinetic energy density read in
  atomic valenz-charges read in
  non local Contribution for L=            0  read in
    real space projection operators read in
  non local Contribution for L=            0  read in
    real space projection operators read in
  non local Contribution for L=            1  read in
    real space projection operators read in
  non local Contribution for L=            1  read in
    real space projection operators read in
  non local Contribution for L=            2  read in
    real space projection operators read in
    PAW grid and wavefunctions read in
 
   number of l-projection  operators is LMAX  =            5
   number of lm-projection operators is LMMAX =           13
 
 Optimization of the real space projectors (new method)

 maximal supplied QI-value         = 34.20
 optimisation between [QCUT,QGAM] = [ 11.29, 22.57] = [ 35.68,142.71] Ry 
 Optimized for a Real-space Cutoff    1.16 Angstroem

   l    n(q)    QCUT    max X(q) W(low)/X(q) W(high)/X(q)  e(spline) 
   0      8    11.287    19.460    0.40E-03    0.73E-03    0.16E-06
   0      8    11.287    12.209    0.38E-03    0.70E-03    0.15E-06
   1      7    11.287     4.655    0.22E-03    0.25E-04    0.22E-06
 Optimization of the real space projectors (new method)

 maximal supplied QI-value         = 25.13
 optimisation between [QCUT,QGAM] = [ 11.31, 22.87] = [ 35.82,146.48] Ry 
 Optimized for a Real-space Cutoff    1.00 Angstroem

   l    n(q)    QCUT    max X(q) W(low)/X(q) W(high)/X(q)  e(spline) 
   0      7    11.310   115.676    0.43E-03    0.13E-02    0.19E-06
   0      7    11.310    87.132    0.43E-03    0.13E-02    0.18E-06
   1      6    11.310     4.429    0.42E-03    0.74E-03    0.11E-06
   1      6    11.310     2.733    0.34E-03    0.55E-03    0.92E-07
 Optimization of the real space projectors (new method)

 maximal supplied QI-value         = 25.13
 optimisation between [QCUT,QGAM] = [ 11.31, 22.87] = [ 35.82,146.48] Ry 
 Optimized for a Real-space Cutoff    1.27 Angstroem

   l    n(q)    QCUT    max X(q) W(low)/X(q) W(high)/X(q)  e(spline) 
   0      9    11.310    79.467    0.75E-04    0.16E-03    0.36E-06
   0      9    11.310    66.151    0.74E-04    0.16E-03    0.36E-06
   1      8    11.310    17.416    0.35E-03    0.12E-03    0.95E-06
   1      8    11.310    12.382    0.37E-03    0.13E-03    0.98E-06
 Optimization of the real space projectors (new method)

 maximal supplied QI-value         = 16.25
 optimisation between [QCUT,QGAM] = [ 11.38, 22.75] = [ 36.24,144.96] Ry 
 Optimized for a Real-space Cutoff    1.31 Angstroem

   l    n(q)    QCUT    max X(q) W(low)/X(q) W(high)/X(q)  e(spline) 
   0      9    11.376   194.483    0.24E-03    0.23E-03    0.67E-07
   0      9    11.376   190.334    0.23E-03    0.22E-03    0.65E-07
   1      8    11.376   116.687    0.25E-03    0.63E-04    0.16E-06
   1      8    11.376    88.696    0.25E-03    0.61E-04    0.16E-06
   2      8    11.376     4.877    0.17E-03    0.14E-03    0.29E-07
 Optimization of the real space projectors (new method)

 maximal supplied QI-value         = 12.09
 optimisation between [QCUT,QGAM] = [ 11.37, 22.86] = [ 36.19,146.31] Ry 
 Optimized for a Real-space Cutoff    1.66 Angstroem

   l    n(q)    QCUT    max X(q) W(low)/X(q) W(high)/X(q)  e(spline) 
   0     11    11.369   135.111    0.12E-03    0.69E-04    0.19E-05
   0     11    11.369   146.850    0.11E-03    0.65E-04    0.18E-05
   1     11    11.369   148.016    0.17E-03    0.32E-03    0.89E-06
   1     11    11.369   122.989    0.17E-03    0.32E-03    0.91E-06
   2     10    11.369     8.916    0.12E-03    0.45E-04    0.33E-06
  PAW_PBE H 15Jun2001                   :
 energy of atom  1       EATOM=  -12.4884
 kinetic energy error for atom=    0.0020 (will be added to EATOM!!)
  PAW_PBE C 08Apr2002                   :
 energy of atom  2       EATOM= -147.1560
 kinetic energy error for atom=    0.0076 (will be added to EATOM!!)
  PAW_PBE N 08Apr2002                   :
 energy of atom  3       EATOM= -264.5486
 kinetic energy error for atom=    0.0138 (will be added to EATOM!!)
  PAW_PBE I 08Apr2002                   :
 energy of atom  4       EATOM= -315.8678
 kinetic energy error for atom=    0.0009 (will be added to EATOM!!)
  PAW_PBE Pb 08Apr2002                  :
 energy of atom  5       EATOM=  -96.9868
 kinetic energy error for atom=    0.0000 (will be added to EATOM!!)
 
 
 POSCAR:  H  C  N  I Pb
  positions in cartesian coordinates
  No initial velocities read in
 exchange correlation table for  LEXCH =        8
   RHO(1)=    0.500       N(1)  =     2000
   RHO(2)=  100.500       N(2)  =     4000
 


--------------------------------------------------------------------------------------------------------


 ion  position               nearest neighbor table
   1  0.443  0.325  0.570- 187 1.02
   2  0.420  0.828  0.570- 188 1.01
   3  0.967  0.321  0.579- 189 1.03
   4  0.949  0.812  0.577- 190 1.03
   5  0.324  0.953  0.573- 194 1.02
   6  0.341  0.563  0.569- 195 1.02
   7  0.799  0.078  0.576- 196 1.03
   8  0.020  0.137  0.562- 183 1.03
   9  0.064  0.651  0.567- 184 1.02
  10  0.561  0.174  0.553- 185 1.02
  11  0.515  0.652  0.563- 186 1.02
  12  0.362  0.021  0.556- 194 1.04
  13  0.285  0.628  0.556- 195 1.04
  14  0.871  0.024  0.565- 196 1.02
  15  0.975  0.186  0.582- 183 1.03
  16  0.998  0.685  0.584- 184 1.03
  17  0.560  0.256  0.568- 185 1.03
  18  0.440  0.693  0.576- 186 1.03
  19  0.287  0.436  0.574- 191 1.03
  20  0.189  0.932  0.571- 192 1.03
  21  0.672  0.028  0.572- 193 1.02
  22  0.366  0.284  0.558- 187 1.03
  23  0.485  0.875  0.554- 188 1.03
  24  0.020  0.363  0.559- 189 1.03
  25  0.993  0.862  0.557- 190 1.03
  26  0.199  0.423  0.564- 191 1.02
  27  0.137  0.991  0.555- 192 1.03
  28  0.665  0.939  0.561- 193 1.03
  29  0.435  0.184  0.545- 146 1.10
  30  0.554  0.767  0.548- 147 1.10
  31  0.054  0.248  0.544- 144 1.09
  32  0.071  0.764  0.547- 145 1.10
  33  0.188  0.542  0.551- 148 1.09
  34  0.243  0.058  0.544- 149 1.09
  35  0.790  0.929  0.555- 150 1.10
  36  0.481  0.333  0.669- 205 1.02
  37  0.439  0.814  0.673- 206 1.02
  38  0.968  0.280  0.679- 207 1.02
  39  0.921  0.739  0.673- 208 1.02
  40  0.311  0.053  0.671- 209 1.01
  41  0.299  0.550  0.676- 210 1.01
  42  0.791  0.063  0.675- 211 1.02
  43  0.766  0.595  0.665- 212 1.01
  44  0.084  0.164  0.645- 197 1.02
  45  0.107  0.713  0.652- 198 1.03
  46  0.584  0.174  0.650- 199 1.01
  47  0.567  0.673  0.653- 200 1.03
  48  0.183  0.414  0.647- 201 1.03
  49  0.170  0.922  0.651- 202 1.04
  50  0.709  0.403  0.662- 203 1.03
  51  0.678  0.916  0.651- 204 1.04
  52  0.065  0.177  0.672- 197 1.03
  53  0.048  0.678  0.671- 198 1.02
  54  0.596  0.257  0.663- 199 1.02
  55  0.530  0.704  0.677- 200 1.02
  56  0.202  0.444  0.674- 201 1.02
  57  0.206  0.956  0.675- 202 1.01
  58  0.681  0.489  0.672- 203 1.01
  59  0.692  0.959  0.676- 204 1.01
  60  0.398  0.294  0.659- 205 1.03
  61  0.425  0.843  0.647- 206 1.01
  62  0.935  0.325  0.657- 207 1.02
  63  0.905  0.807  0.654- 208 1.02
  64  0.333  0.074  0.644- 209 1.02
  65  0.332  0.580  0.651- 210 1.04
  66  0.832  0.078  0.650- 211 1.02
  67  0.840  0.578  0.647- 212 1.01
  68  0.005  0.256  0.633- 151 1.11
  69  0.021  0.797  0.639- 152 1.10
  70  0.458  0.192  0.645- 153 1.10
  71  0.503  0.758  0.632- 154 1.09
  72  0.246  0.993  0.630- 156 1.10
  73  0.261  0.497  0.632- 155 1.10
  74  0.766  0.986  0.633- 158 1.10
  75  0.811  0.453  0.644- 157 1.09
  76  0.449  0.301  0.769- 221 1.02
  77  0.449  0.801  0.769- 222 1.02
  78  0.949  0.301  0.769- 223 1.02
  79  0.949  0.801  0.769- 224 1.02
  80  0.301  0.051  0.769- 225 1.02
  81  0.301  0.551  0.769- 226 1.02
  82  0.801  0.051  0.769- 227 1.02
  83  0.801  0.551  0.769- 228 1.02
  84  0.079  0.171  0.743- 213 1.02
  85  0.079  0.671  0.743- 214 1.02
  86  0.579  0.171  0.743- 215 1.02
  87  0.579  0.671  0.743- 216 1.02
  88  0.171  0.421  0.743- 217 1.02
  89  0.171  0.921  0.743- 218 1.02
  90  0.671  0.421  0.743- 219 1.02
  91  0.671  0.921  0.743- 220 1.02
  92  0.051  0.199  0.769- 213 1.02
  93  0.051  0.699  0.769- 214 1.02
  94  0.551  0.199  0.769- 215 1.02
  95  0.551  0.699  0.769- 216 1.02
  96  0.199  0.449  0.769- 217 1.02
  97  0.199  0.949  0.769- 218 1.02
  98  0.699  0.449  0.769- 219 1.02
  99  0.699  0.949  0.769- 220 1.02
 100  0.421  0.329  0.743- 221 1.02
 101  0.421  0.829  0.743- 222 1.02
 102  0.921  0.329  0.743- 223 1.02
 103  0.921  0.829  0.743- 224 1.02
 104  0.329  0.079  0.743- 225 1.02
 105  0.329  0.579  0.743- 226 1.02
 106  0.829  0.079  0.743- 227 1.02
 107  0.829  0.579  0.743- 228 1.02
 108  0.000  0.250  0.726- 161 1.09
 109  0.000  0.750  0.726- 162 1.09
 110  0.500  0.250  0.726- 159 1.09
 111  0.500  0.750  0.726- 160 1.09
 112  0.250  0.000  0.726- 163 1.09
 113  0.250  0.500  0.726- 164 1.09
 114  0.750  0.000  0.726- 165 1.09
 115  0.750  0.500  0.726- 166 1.09
 116  0.775  0.555  0.520- 173 1.09
 117  0.721  0.475  0.526- 173 1.10
 118  0.872  0.501  0.542- 174 1.09
 119  0.856  0.481  0.569- 174 1.10
 120  0.744  0.640  0.559- 175 1.09
 121  0.806  0.598  0.578- 175 1.10
 122  0.668  0.549  0.570- 176 1.10
 123  0.676  0.457  0.561- 176 1.10
 124  0.616  0.553  0.538- 177 1.10
 125  0.671  0.635  0.536- 177 1.10
 126  0.607  0.644  0.505- 178 1.09
 127  0.687  0.601  0.495- 178 1.10
 128  0.794  0.391  0.531- 179 1.09
 129  0.776  0.370  0.557- 179 1.08
 130  0.867  0.366  0.548- 179 1.10
 131  0.864  0.694  0.556- 180 1.10
 132  0.846  0.648  0.532- 180 1.10
 133  0.908  0.607  0.551- 180 1.09
 134  0.757  0.528  0.600- 181 1.10
 135  0.777  0.437  0.590- 181 1.10
 136  0.688  0.460  0.600- 181 1.09
 137  0.535  0.530  0.504- 182 1.10
 138  0.576  0.547  0.478- 182 1.11
 139  0.694  0.475  0.468- 168 1.10
 140  0.561  0.420  0.524- 169 1.10
 141  0.760  0.355  0.471- 170 1.09
 142  0.630  0.300  0.527- 171 1.09
 143  0.729  0.268  0.501- 172 1.10
 144  0.021  0.250  0.559-  31 1.09 183 1.30 189 1.31
 145  0.031  0.757  0.560-  32 1.10 190 1.31 184 1.31
 146  0.463  0.228  0.554-  29 1.10 185 1.31 187 1.32
 147  0.503  0.764  0.558-  30 1.10 186 1.32 188 1.32
 148  0.240  0.525  0.559-  33 1.09 195 1.31 191 1.31
 149  0.248  0.010  0.555-  34 1.09 192 1.31 194 1.31
 150  0.769  0.980  0.562-  35 1.10 196 1.31 193 1.31
 151  0.010  0.244  0.651-  68 1.11 207 1.30 197 1.31
 152  0.006  0.761  0.652-  69 1.10 198 1.31 208 1.31
 153  0.490  0.234  0.653-  70 1.10 199 1.31 205 1.32
 154  0.496  0.758  0.650-  71 1.09 206 1.31 200 1.31
 155  0.258  0.497  0.649-  73 1.10 210 1.31 201 1.32
 156  0.251  0.998  0.647-  72 1.10 202 1.31 209 1.32
 157  0.775  0.489  0.654-  75 1.09 203 1.31 212 1.33
 158  0.755  0.996  0.650-  74 1.10 204 1.31 211 1.32
 159  0.500  0.250  0.743- 110 1.09 221 1.31 215 1.31
 160  0.500  0.750  0.743- 111 1.09 222 1.31 216 1.31
 161  1.000  0.250  0.743- 108 1.09 223 1.31 213 1.31
 162  1.000  0.750  0.743- 109 1.09 224 1.31 214 1.31
 163  0.250  0.000  0.743- 112 1.09 225 1.31 218 1.31
 164  0.250  0.500  0.743- 113 1.09 226 1.31 217 1.31
 165  0.750  0.000  0.743- 114 1.09 227 1.31 220 1.31
 166  0.750  0.500  0.743- 115 1.09 228 1.31 219 1.31
 167  0.624  0.457  0.496- 168 1.41 169 1.41 182 1.50
 168  0.679  0.437  0.481- 139 1.10 170 1.40 167 1.41
 169  0.605  0.405  0.512- 140 1.10 171 1.40 167 1.41
 170  0.717  0.370  0.483- 141 1.09 172 1.39 168 1.40
 171  0.643  0.338  0.514- 142 1.09 172 1.40 169 1.40
 172  0.700  0.321  0.499- 143 1.10 170 1.39 171 1.40
 173  0.731  0.533  0.531- 116 1.09 117 1.10 177 1.51 229 1.53
 174  0.832  0.476  0.553- 118 1.09 119 1.10 179 1.50 229 1.53
 175  0.792  0.605  0.561- 120 1.09 121 1.10 180 1.51 229 1.53
 176  0.707  0.503  0.569- 122 1.10 123 1.10 229 1.52 181 1.52
 177  0.662  0.579  0.529- 124 1.10 125 1.10 173 1.51 178 1.55
 178  0.637  0.592  0.505- 126 1.09 127 1.10 177 1.55 182 1.55
 179  0.815  0.397  0.547- 129 1.08 128 1.09 130 1.10 174 1.50
 180  0.857  0.639  0.549- 133 1.09 132 1.10 131 1.10 175 1.51
 181  0.735  0.481  0.591- 136 1.09 135 1.10 134 1.10 176 1.52
 182  0.588  0.532  0.495- 137 1.10 138 1.11 167 1.50 178 1.55
 183  0.006  0.188  0.568-  15 1.03   8 1.03 144 1.30
 184  0.033  0.695  0.572-   9 1.02  16 1.03 145 1.31
 185  0.534  0.221  0.558-  10 1.02  17 1.03 146 1.31
 186  0.484  0.699  0.566-  11 1.02  18 1.03 147 1.32
 187  0.422  0.285  0.560-   1 1.02  22 1.03 146 1.32
 188  0.464  0.826  0.560-   2 1.01  23 1.03 147 1.32
 189  1.000  0.315  0.566-  24 1.03   3 1.03 144 1.31
 190  0.986  0.812  0.564-  25 1.03   4 1.03 145 1.31
 191  0.244  0.456  0.565-  26 1.02  19 1.03 148 1.31
 192  0.188  0.974  0.560-  27 1.03  20 1.03 149 1.31
 193  0.697  0.985  0.564-  21 1.02  28 1.03 150 1.31
 194  0.315  0.994  0.562-   5 1.02  12 1.04 149 1.31
 195  0.293  0.574  0.561-   6 1.02  13 1.04 148 1.31
 196  0.816  0.030  0.569-  14 1.02   7 1.03 150 1.31
 197  0.055  0.192  0.657-  44 1.02  52 1.03 151 1.31
 198  0.056  0.713  0.659-  53 1.02  45 1.03 152 1.31
 199  0.561  0.221  0.656-  46 1.01  54 1.02 153 1.31
 200  0.533  0.709  0.661-  55 1.02  47 1.03 154 1.31
 201  0.212  0.449  0.658-  56 1.02  48 1.03 155 1.32
 202  0.207  0.957  0.659-  57 1.01  49 1.04 156 1.31
 203  0.717  0.460  0.663-  58 1.01  50 1.03 157 1.31
 204  0.706  0.955  0.660-  59 1.01  51 1.04 158 1.31
 205  0.455  0.292  0.661-  36 1.02  60 1.03 153 1.32
 206  0.451  0.808  0.657-  61 1.01  37 1.02 154 1.31
 207  0.969  0.285  0.663-  38 1.02  62 1.02 151 1.30
 208  0.941  0.770  0.661-  39 1.02  63 1.02 152 1.31
 209  0.302  0.044  0.655-  40 1.01  64 1.02 156 1.32
 210  0.298  0.544  0.660-  41 1.01  65 1.04 155 1.31
 211  0.795  0.049  0.659-  42 1.02  66 1.02 158 1.32
 212  0.795  0.559  0.655-  67 1.01  43 1.01 157 1.33
 213  0.046  0.204  0.753-  92 1.02  84 1.02 161 1.31
 214  0.046  0.704  0.753-  93 1.02  85 1.02 162 1.31
 215  0.546  0.204  0.753-  94 1.02  86 1.02 159 1.31
 216  0.546  0.704  0.753-  95 1.02  87 1.02 160 1.31
 217  0.204  0.454  0.753-  96 1.02  88 1.02 164 1.31
 218  0.204  0.954  0.753-  97 1.02  89 1.02 163 1.31
 219  0.704  0.454  0.753-  98 1.02  90 1.02 166 1.31
 220  0.704  0.954  0.753-  99 1.02  91 1.02 165 1.31
 221  0.454  0.296  0.753-  76 1.02 100 1.02 159 1.31
 222  0.454  0.796  0.753-  77 1.02 101 1.02 160 1.31
 223  0.954  0.296  0.753-  78 1.02 102 1.02 161 1.31
 224  0.954  0.796  0.753-  79 1.02 103 1.02 162 1.31
 225  0.296  0.046  0.753-  80 1.02 104 1.02 163 1.31
 226  0.296  0.546  0.753-  81 1.02 105 1.02 164 1.31
 227  0.796  0.046  0.753-  82 1.02 106 1.02 165 1.31
 228  0.796  0.546  0.753-  83 1.02 107 1.02 166 1.31
 229  0.766  0.529  0.553- 176 1.52 173 1.53 174 1.53 175 1.53
 230  0.506  0.020  0.552- 304 3.27
 231  0.475  0.501  0.555- 305 3.11
 232  0.999  0.002  0.550- 302 3.47
 233  0.040  0.503  0.553- 303 3.35
 234  0.230  0.239  0.552- 306 3.17
 235  0.248  0.770  0.554- 307 3.16
 236  0.736  0.203  0.555- 308 3.08
 237  0.706  0.792  0.552- 309 3.21
 238  0.002  0.982  0.654- 302 3.05 310 3.19
 239  0.008  0.495  0.655- 311 3.10 303 3.11
 240  0.502  0.011  0.655- 312 3.15 304 3.16
 241  0.515  0.488  0.655- 313 3.12 305 3.18
 242  0.260  0.245  0.655- 314 3.15 306 3.25
 243  0.250  0.755  0.655- 315 3.14 307 3.16
 244  0.753  0.263  0.655- 316 3.14 308 3.26
 245  0.744  0.755  0.654- 317 3.17 309 3.28
 246  0.135  0.107  0.608- 306 3.15 302 3.21
 247  0.148  0.608  0.610- 307 3.13 303 3.18
 248  0.649  0.106  0.611- 308 3.13 304 3.26
 249  0.617  0.634  0.613- 309 3.14 305 3.38
 250  0.360  0.384  0.606- 305 3.16 306 3.32
 251  0.371  0.883  0.608- 304 3.24 307 3.31
 252  0.893  0.364  0.613- 303 3.27 308 3.48
 253  0.873  0.870  0.608- 302 3.19 309 3.27
 254  0.125  0.363  0.610- 306 3.11 303 3.26
 255  0.125  0.871  0.606- 307 3.17 302 3.26
 256  0.584  0.332  0.603- 308 3.19 305 3.29
 257  0.617  0.873  0.611- 309 3.02 304 3.24
 258  0.386  0.134  0.606- 304 3.09 306 3.23
 259  0.384  0.628  0.611- 305 3.23 307 3.29
 260  0.887  0.136  0.612- 302 3.22 308 3.40
 261  0.906  0.641  0.613- 303 3.18 309 3.83
 262  0.000  0.000  0.755- 310 3.13 318 3.27
 263  0.000  0.500  0.755- 311 3.13 319 3.27
 264  0.500  0.000  0.755- 312 3.13 320 3.27
 265  0.500  0.500  0.755- 313 3.13 321 3.27
 266  0.250  0.250  0.755- 314 3.13 322 3.27
 267  0.250  0.750  0.755- 315 3.13 323 3.27
 268  0.750  0.250  0.755- 316 3.13 324 3.27
 269  0.750  0.750  0.755- 317 3.13 325 3.27
 270  0.136  0.114  0.705- 310 3.20 314 3.20
 271  0.136  0.614  0.705- 311 3.20 315 3.20
 272  0.636  0.114  0.705- 312 3.20 316 3.20
 273  0.636  0.614  0.705- 313 3.20 317 3.20
 274  0.364  0.386  0.705- 313 3.20 314 3.20
 275  0.364  0.886  0.705- 312 3.20 315 3.20
 276  0.864  0.386  0.705- 311 3.20 316 3.20
 277  0.864  0.886  0.705- 310 3.20 317 3.20
 278  0.114  0.364  0.705- 314 3.21 311 3.21
 279  0.114  0.864  0.705- 315 3.21 310 3.21
 280  0.614  0.364  0.705- 316 3.21 313 3.21
 281  0.614  0.864  0.705- 317 3.21 312 3.21
 282  0.386  0.136  0.705- 314 3.21 312 3.21
 283  0.386  0.636  0.705- 315 3.21 313 3.21
 284  0.886  0.136  0.705- 316 3.21 310 3.21
 285  0.886  0.636  0.705- 317 3.21 311 3.21
 286  0.135  0.115  0.801- 318 3.22 322 3.22
 287  0.135  0.615  0.801- 319 3.22 323 3.22
 288  0.635  0.115  0.801- 320 3.22 324 3.22
 289  0.635  0.615  0.801- 321 3.22 325 3.22
 290  0.365  0.385  0.801- 321 3.22 322 3.22
 291  0.365  0.885  0.801- 320 3.22 323 3.22
 292  0.865  0.385  0.801- 319 3.22 324 3.22
 293  0.865  0.885  0.801- 318 3.22 325 3.22
 294  0.115  0.365  0.801- 319 3.23 322 3.23
 295  0.115  0.865  0.801- 318 3.23 323 3.23
 296  0.615  0.365  0.801- 321 3.23 324 3.23
 297  0.615  0.865  0.801- 320 3.23 325 3.23
 298  0.385  0.135  0.801- 320 3.23 322 3.23
 299  0.385  0.635  0.801- 321 3.23 323 3.23
 300  0.885  0.135  0.801- 318 3.23 324 3.23
 301  0.885  0.635  0.801- 319 3.23 325 3.23
 302  0.996  0.997  0.605- 238 3.05 253 3.19 246 3.21 260 3.22 255 3.26 232 3.47
 303  0.009  0.501  0.606- 239 3.11 261 3.18 247 3.18 254 3.26 252 3.27 233 3.35
 304  0.500  0.007  0.604- 258 3.09 240 3.16 251 3.24 257 3.24 248 3.26 230 3.27
 305  0.498  0.492  0.605- 231 3.11 250 3.16 241 3.18 259 3.23 256 3.29 249 3.38
 306  0.244  0.242  0.603- 254 3.11 246 3.15 234 3.17 258 3.23 242 3.25 250 3.32
 307  0.248  0.747  0.604- 247 3.13 235 3.16 243 3.16 255 3.17 259 3.29 251 3.31
 308  0.741  0.250  0.603- 236 3.08 248 3.13 256 3.19 244 3.26 260 3.40 252 3.48
 309  0.733  0.757  0.602- 257 3.02 249 3.14 237 3.21 253 3.27 245 3.28 261 3.83
 310  0.000  0.000  0.705- 262 3.13 238 3.19 270 3.20 277 3.20 279 3.21 284 3.21
 311  0.000  0.500  0.705- 239 3.10 263 3.13 271 3.20 276 3.20 278 3.21 285 3.21
 312  0.500  0.000  0.705- 264 3.13 240 3.15 272 3.20 275 3.20 281 3.21 282 3.21
 313  0.500  0.500  0.705- 241 3.12 265 3.13 273 3.20 274 3.20 280 3.21 283 3.21
 314  0.250  0.250  0.705- 266 3.13 242 3.15 270 3.20 274 3.20 282 3.21 278 3.21
 315  0.250  0.750  0.705- 267 3.13 243 3.14 271 3.20 275 3.20 283 3.21 279 3.21
 316  0.750  0.250  0.705- 268 3.13 244 3.14 272 3.20 276 3.20 284 3.21 280 3.21
 317  0.750  0.750  0.705- 269 3.13 245 3.17 273 3.20 277 3.20 285 3.21 281 3.21
 318  0.000  0.000  0.807- 286 3.22 293 3.22 300 3.23 295 3.23 262 3.27
 319  0.000  0.500  0.807- 287 3.22 292 3.22 301 3.23 294 3.23 263 3.27
 320  0.500  0.000  0.807- 288 3.22 291 3.22 298 3.23 297 3.23 264 3.27
 321  0.500  0.500  0.807- 289 3.22 290 3.22 299 3.23 296 3.23 265 3.27
 322  0.250  0.250  0.807- 290 3.22 286 3.22 294 3.23 298 3.23 266 3.27
 323  0.250  0.750  0.807- 291 3.22 287 3.22 299 3.23 295 3.23 267 3.27
 324  0.750  0.250  0.807- 292 3.22 288 3.22 296 3.23 300 3.23 268 3.27
 325  0.750  0.750  0.807- 293 3.22 289 3.22 297 3.23 301 3.23 269 3.27
 

IMPORTANT INFORMATION: All symmetrisations will be switched off!
NOSYMM: (Re-)initialisation of all symmetry stuff for point group C_1.


----------------------------------------------------------------------------------------

                                     Primitive cell                                     

  volume of cell :   20385.2105

  direct lattice vectors                    reciprocal lattice vectors
    18.060800552  0.000000000  0.000000000     0.055368531  0.000015077 -0.000000000
    -0.004918649 18.062799454  0.000000000     0.000000000  0.055362404  0.000000000
     0.000000000  0.000000000 62.487499237     0.000000000 -0.000000000  0.016003201

  length of vectors
    18.060800552 18.062800123 62.487499237     0.055368533  0.055362404  0.016003201

  position of ions in fractional coordinates (direct lattice)
     0.442637352  0.324701199  0.570121600
     0.419751768  0.828042687  0.569637189
     0.967082377  0.321475656  0.579103132
     0.949334978  0.811937698  0.577105479
     0.324200521  0.953374748  0.572556474
     0.341408886  0.563079897  0.568915059
     0.798976606  0.078222285  0.575982330
     0.019860372  0.136914712  0.561853894
     0.064371622  0.650621709  0.566902999
     0.561089107  0.174297888  0.553172470
     0.514805995  0.652387158  0.562866303
     0.361738573  0.020789363  0.556010257
     0.284893458  0.628409187  0.556186989
     0.871028279  0.023813708  0.565325963
     0.975481324  0.186195732  0.582236999
     0.998321957  0.685402935  0.584304856
     0.560444543  0.255764506  0.568464652
     0.440253419  0.692661140  0.576024514
     0.287437262  0.436240121  0.574051890
     0.189420975  0.931709722  0.570933346
     0.672042913  0.028440218  0.572113575
     0.366332383  0.283535781  0.557559822
     0.485157126  0.874992727  0.554409473
     0.020207385  0.362945189  0.559237526
     0.993205118  0.861585067  0.556831832
     0.198722913  0.422924224  0.563774139
     0.136750413  0.991469888  0.555047662
     0.665373180  0.939208217  0.560850886
     0.435195019  0.184362081  0.544786698
     0.554314415  0.767029767  0.548158222
     0.054286554  0.248060476  0.544278967
     0.070689155  0.763505784  0.547238055
     0.188406026  0.541689488  0.551020306
     0.242785283  0.057935447  0.543845958
     0.790295508  0.928987763  0.554804876
     0.480686710  0.333402842  0.668769687
     0.439037714  0.814197387  0.673263628
     0.967956809  0.280053693  0.679404505
     0.921295647  0.738812932  0.672795334
     0.311219350  0.053225919  0.670559901
     0.299200379  0.549634698  0.675879569
     0.790959364  0.062806187  0.675209086
     0.765976798  0.595252072  0.664662726
     0.084288468  0.163991222  0.645207785
     0.107268717  0.712747604  0.651852546
     0.583707529  0.174382959  0.649780110
     0.566558569  0.672855825  0.652771798
     0.183142604  0.414095498  0.647379667
     0.170167190  0.922152764  0.650959057
     0.708649539  0.403371334  0.661749607
     0.678274428  0.915826404  0.651070469
     0.065189484  0.176712750  0.672407805
     0.047879936  0.677743202  0.671455222
     0.596007941  0.257117790  0.663235133
     0.530444565  0.703798235  0.676920060
     0.202178476  0.444372552  0.673615810
     0.206438821  0.955951903  0.675072279
     0.680866215  0.489461790  0.671821689
     0.692272984  0.958941487  0.675718648
     0.398008332  0.294002767  0.659174384
     0.424986824  0.843094467  0.647102512
     0.935432202  0.324991455  0.656846465
     0.905093440  0.807185007  0.653762841
     0.332781478  0.073528100  0.643947706
     0.332022026  0.580241421  0.651145191
     0.832189444  0.077793000  0.650218431
     0.839793593  0.578084423  0.647395478
     0.005470844  0.256355127  0.633299092
     0.020790962  0.796889033  0.638693848
     0.458210959  0.191763474  0.644587116
     0.503357241  0.757689484  0.632161779
     0.246029114  0.993383396  0.629758589
     0.261339467  0.497174425  0.631522064
     0.766452543  0.985995614  0.633315147
     0.810578357  0.453083697  0.644044527
     0.448745018  0.301283966  0.768889017
     0.448745007  0.801283913  0.768889017
     0.948744965  0.301283966  0.768889017
     0.948745007  0.801283913  0.768889017
     0.301275995  0.051294496  0.768872961
     0.301276011  0.551294499  0.768872961
     0.801275943  0.051294496  0.768872961
     0.801275984  0.551294499  0.768872961
     0.078771004  0.171180501  0.743441971
     0.078771006  0.671180448  0.743441971
     0.578771004  0.171180501  0.743441971
     0.578770992  0.671180448  0.743441971
     0.171199499  0.421174482  0.743421032
     0.171199501  0.921174508  0.743421032
     0.671199512  0.421174482  0.743421032
     0.671199501  0.921174508  0.743421032
     0.051256000  0.198714991  0.768889017
     0.051256002  0.698714925  0.768889017
     0.551256027  0.198714991  0.768889017
     0.551256016  0.698714925  0.768889017
     0.198723491  0.448703970  0.768872046
     0.198723493  0.948703970  0.768872046
     0.698723518  0.448703970  0.768872046
     0.698723507  0.948703970  0.768872046
     0.421231519  0.328817467  0.743441971
     0.421231508  0.828817440  0.743441971
     0.921231466  0.328817467  0.743441971
     0.921231508  0.828817440  0.743441971
     0.328800503  0.078824997  0.743421032
     0.328800492  0.578824964  0.743421032
     0.828800477  0.078824997  0.743421032
     0.828800519  0.578824964  0.743421032
     0.000003500  0.250001478  0.725821992
     0.000003500  0.750001452  0.725821992
     0.500003506  0.250001478  0.725821992
     0.500003495  0.750001452  0.725821992
     0.250000502  0.000000000  0.725803983
     0.250000517  0.500000000  0.725803983
     0.750000502  0.000000000  0.725803983
     0.750000490  0.500000000  0.725803983
     0.774845572  0.555101055  0.520463108
     0.720988561  0.475481486  0.525621732
     0.872248865  0.500896822  0.541769310
     0.856259568  0.480877939  0.568763296
     0.743579982  0.640304562  0.559483486
     0.805985021  0.598471728  0.577864359
     0.668094912  0.549084335  0.570213232
     0.676247504  0.456752082  0.561046481
     0.616463335  0.552944216  0.537701541
     0.670788100  0.634769991  0.535936540
     0.606581245  0.644222786  0.504872068
     0.686701477  0.600543510  0.495349076
     0.794451535  0.390511529  0.530514557
     0.776192813  0.370171241  0.557402198
     0.867108420  0.365877415  0.547591825
     0.864481457  0.694376960  0.556189003
     0.845635167  0.647581617  0.531899721
     0.907549519  0.607168143  0.551024885
     0.757387107  0.527656070  0.600033710
     0.777165737  0.437132429  0.590405930
     0.687779996  0.460384405  0.599580739
     0.534541943  0.529614126  0.503599017
     0.575573608  0.546808754  0.478275409
     0.693674310  0.475167023  0.468143866
     0.561471223  0.420065360  0.523723098
     0.760169798  0.355277194  0.471452023
     0.629952175  0.299782320  0.526768690
     0.729416780  0.267950691  0.501273936
     0.020786510  0.249625928  0.558810988
     0.031403765  0.756620964  0.560478985
     0.463008393  0.228098932  0.553946673
     0.503129104  0.763994797  0.557567331
     0.240217863  0.525092478  0.558732786
     0.248267663  0.010429780  0.554530346
     0.768986013  0.979628584  0.562302165
     0.009874371  0.244384753  0.650687396
     0.006376703  0.760681635  0.652237267
     0.489955780  0.233508981  0.653493927
     0.495718313  0.758281821  0.649534700
     0.257937121  0.497454306  0.649061034
     0.251243449  0.997885690  0.647284616
     0.775155181  0.488871195  0.653782254
     0.755432558  0.996111027  0.650407799
     0.499988984  0.249994984  0.743277021
     0.499989025  0.749994958  0.743277021
     0.999988984  0.249994984  0.743277021
     0.999989025  0.749994958  0.743277021
     0.250000502  0.000001000  0.743255960
     0.250000517  0.500001003  0.743255960
     0.750000502  0.000001000  0.743255960
     0.750000491  0.500001003  0.743255960
     0.623503740  0.456588937  0.495797286
     0.679112302  0.436758991  0.481083924
     0.604742041  0.405334194  0.512037259
     0.717174689  0.369698913  0.483033197
     0.643301994  0.338268044  0.513872678
     0.699983510  0.320712834  0.499445904
     0.731109409  0.533037001  0.530777671
     0.831888506  0.476197106  0.552706678
     0.792256974  0.604592936  0.560781475
     0.706997826  0.502577584  0.568537115
     0.661753298  0.579475220  0.528846315
     0.637306312  0.592466518  0.505450919
     0.815258197  0.397318473  0.546807916
     0.856669310  0.639235356  0.549021249
     0.735340281  0.481225823  0.590552871
     0.588195109  0.531980519  0.495193802
     0.005953027  0.187519106  0.568322167
     0.033118516  0.694996700  0.571627272
     0.534038473  0.221181192  0.557876047
     0.484178895  0.699161435  0.565657206
     0.422497117  0.284717684  0.560220694
     0.464294512  0.825602588  0.559855264
     0.999533026  0.314951628  0.565672956
     0.985955440  0.811701323  0.564414648
     0.244293875  0.455778439  0.564875250
     0.188486490  0.973707221  0.559760213
     0.697024014  0.985422817  0.564295605
     0.314622429  0.994364585  0.561598655
     0.292621390  0.574412026  0.561273944
     0.815977340  0.030134507  0.568725324
     0.055428441  0.191673982  0.656691100
     0.055857029  0.713170725  0.658965236
     0.560945322  0.221022364  0.655869585
     0.532575451  0.709221193  0.660675173
     0.211956468  0.448649377  0.657618959
     0.206938850  0.957090086  0.658855107
     0.716887989  0.459556009  0.662867506
     0.706139795  0.955131453  0.660055969
     0.454633488  0.292280796  0.660585067
     0.451022162  0.808274118  0.657357737
     0.968870796  0.284901341  0.663195574
     0.940565509  0.770441449  0.660567913
     0.301646039  0.044399199  0.654760294
     0.298479205  0.544459362  0.659771672
     0.795113638  0.049264771  0.659441589
     0.795106814  0.559340658  0.655438164
     0.045862501  0.204119496  0.752725994
     0.045862500  0.704119456  0.752725994
     0.545862507  0.204119496  0.752725994
     0.545862496  0.704119456  0.752725994
     0.204119002  0.454101003  0.752704994
     0.204118991  0.954100951  0.752704994
     0.704118976  0.454101003  0.752704994
     0.704118964  0.954100951  0.752704994
     0.454140018  0.295888490  0.752726971
     0.454140007  0.795888516  0.752726971
     0.954140018  0.295888490  0.752726971
     0.954140060  0.795888516  0.752726971
     0.295882492  0.045900498  0.752704994
     0.295882481  0.545900528  0.752704994
     0.795882439  0.045900498  0.752704994
     0.795882481  0.545900528  0.752704994
     0.765819207  0.528846025  0.553005078
     0.505743544  0.020151213  0.551784497
     0.475104103  0.500713244  0.555298078
     0.999115292  0.001684049  0.549954114
     0.039738161  0.502588407  0.552810337
     0.230055360  0.239448590  0.552187226
     0.248244671  0.770004284  0.553926527
     0.736001664  0.202674951  0.555308212
     0.706145894  0.792055403  0.551946395
     0.002024747  0.982453728  0.654029007
     0.008253639  0.494579260  0.655307583
     0.501958142  0.011153123  0.654565736
     0.515354566  0.487951617  0.655208198
     0.260220074  0.245079333  0.654531427
     0.250365638  0.755394579  0.654590399
     0.753275391  0.262575436  0.654673850
     0.743979727  0.755167760  0.654110994
     0.134809188  0.107286826  0.608058326
     0.147788531  0.607645329  0.610221356
     0.648900244  0.105667257  0.610923034
     0.617445521  0.633554059  0.612790901
     0.360063870  0.384480949  0.606317377
     0.370986600  0.882681762  0.607769083
     0.892787894  0.363746341  0.612555929
     0.872903356  0.870223986  0.607655840
     0.124681341  0.363095821  0.610491063
     0.125147876  0.871242612  0.606497955
     0.584229473  0.332141188  0.602692384
     0.616718818  0.872739321  0.611084688
     0.386489939  0.134484421  0.606245402
     0.383905312  0.628325503  0.611498406
     0.886873687  0.136125400  0.612067367
     0.905817220  0.640807777  0.613332452
     0.000000000  0.000000000  0.754927972
     0.000000000  0.500000000  0.754927972
     0.500000000  0.000000000  0.754927972
     0.499999989  0.500000000  0.754927972
     0.250000496  0.250000000  0.754939022
     0.250000511  0.749999974  0.754939022
     0.750000470  0.250000000  0.754939022
     0.750000458  0.749999974  0.754939022
     0.135790500  0.114209997  0.704782994
     0.135790502  0.614209984  0.704782994
     0.635790447  0.114209997  0.704782994
     0.635790488  0.614209984  0.704782994
     0.364209516  0.385789989  0.704782994
     0.364209505  0.885789963  0.704782994
     0.864209542  0.385789989  0.704782994
     0.864209531  0.885789963  0.704782994
     0.114217990  0.364218986  0.704780979
     0.114217992  0.864218986  0.704780979
     0.614218004  0.364218986  0.704780979
     0.614217992  0.864218986  0.704780979
     0.385782012  0.135781489  0.704782017
     0.385782001  0.635781489  0.704782017
     0.885781985  0.135781489  0.704782017
     0.885782027  0.635781489  0.704782017
     0.134667000  0.115332001  0.801256025
     0.134666989  0.615331988  0.801256025
     0.634666987  0.115332001  0.801256025
     0.634666976  0.615331988  0.801256025
     0.365333002  0.384667985  0.801256025
     0.365332990  0.884667959  0.801256025
     0.865332949  0.384667985  0.801256025
     0.865332938  0.884667959  0.801256025
     0.115328503  0.365337004  0.801264999
     0.115328505  0.865336978  0.801264999
     0.615328503  0.365337004  0.801264999
     0.615328492  0.865336978  0.801264999
     0.384671513  0.134662996  0.801264999
     0.384671501  0.634662970  0.801264999
     0.884671486  0.134662996  0.801264999
     0.884671528  0.634662970  0.801264999
     0.995803787  0.996951970  0.605444094
     0.008836962  0.500697933  0.605646894
     0.499796886  0.006863110  0.604008688
     0.497635694  0.492381028  0.604524049
     0.244234543  0.241892860  0.602806848
     0.248396528  0.746912575  0.604008871
     0.740684585  0.250124867  0.602687867
     0.733163876  0.757320164  0.601675457
     0.000000500  0.000000500  0.704828963
     0.000000500  0.500000475  0.704828963
     0.500000475  0.000000500  0.704828963
     0.500000464  0.500000475  0.704828963
     0.249999994  0.249999472  0.704824995
     0.250000010  0.749999498  0.704824995
     0.749999994  0.249999472  0.704824995
     0.749999983  0.749999498  0.704824995
     0.000000000  0.000000000  0.807317968
     0.000000000  0.500000000  0.807317968
     0.500000000  0.000000000  0.807317968
     0.499999989  0.500000000  0.807317968
     0.249999994  0.250000000  0.807317968
     0.250000010  0.749999974  0.807317968
     0.749999994  0.250000000  0.807317968
     0.749999983  0.749999974  0.807317968

  ion indices of the primitive-cell ions
   primitive index   ion index
                 1           1
                 2           2
                 3           3
                 4           4
                 5           5
                 6           6
                 7           7
                 8           8
                 9           9
                10          10
                11          11
                12          12
                13          13
                14          14
                15          15
                16          16
                17          17
                18          18
                19          19
                20          20
                21          21
                22          22
                23          23
                24          24
                25          25
                26          26
                27          27
                28          28
                29          29
                30          30
                31          31
                32          32
                33          33
                34          34
                35          35
                36          36
                37          37
                38          38
                39          39
                40          40
                41          41
                42          42
                43          43
                44          44
                45          45
                46          46
                47          47
                48          48
                49          49
                50          50
                51          51
                52          52
                53          53
                54          54
                55          55
                56          56
                57          57
                58          58
                59          59
                60          60
                61          61
                62          62
                63          63
                64          64
                65          65
                66          66
                67          67
                68          68
                69          69
                70          70
                71          71
                72          72
                73          73
                74          74
                75          75
                76          76
                77          77
                78          78
                79          79
                80          80
                81          81
                82          82
                83          83
                84          84
                85          85
                86          86
                87          87
                88          88
                89          89
                90          90
                91          91
                92          92
                93          93
                94          94
                95          95
                96          96
                97          97
                98          98
                99          99
               100         100
               101         101
               102         102
               103         103
               104         104
               105         105
               106         106
               107         107
               108         108
               109         109
               110         110
               111         111
               112         112
               113         113
               114         114
               115         115
               116         116
               117         117
               118         118
               119         119
               120         120
               121         121
               122         122
               123         123
               124         124
               125         125
               126         126
               127         127
               128         128
               129         129
               130         130
               131         131
               132         132
               133         133
               134         134
               135         135
               136         136
               137         137
               138         138
               139         139
               140         140
               141         141
               142         142
               143         143
               144         144
               145         145
               146         146
               147         147
               148         148
               149         149
               150         150
               151         151
               152         152
               153         153
               154         154
               155         155
               156         156
               157         157
               158         158
               159         159
               160         160
               161         161
               162         162
               163         163
               164         164
               165         165
               166         166
               167         167
               168         168
               169         169
               170         170
               171         171
               172         172
               173         173
               174         174
               175         175
               176         176
               177         177
               178         178
               179         179
               180         180
               181         181
               182         182
               183         183
               184         184
               185         185
               186         186
               187         187
               188         188
               189         189
               190         190
               191         191
               192         192
               193         193
               194         194
               195         195
               196         196
               197         197
               198         198
               199         199
               200         200
               201         201
               202         202
               203         203
               204         204
               205         205
               206         206
               207         207
               208         208
               209         209
               210         210
               211         211
               212         212
               213         213
               214         214
               215         215
               216         216
               217         217
               218         218
               219         219
               220         220
               221         221
               222         222
               223         223
               224         224
               225         225
               226         226
               227         227
               228         228
               229         229
               230         230
               231         231
               232         232
               233         233
               234         234
               235         235
               236         236
               237         237
               238         238
               239         239
               240         240
               241         241
               242         242
               243         243
               244         244
               245         245
               246         246
               247         247
               248         248
               249         249
               250         250
               251         251
               252         252
               253         253
               254         254
               255         255
               256         256
               257         257
               258         258
               259         259
               260         260
               261         261
               262         262
               263         263
               264         264
               265         265
               266         266
               267         267
               268         268
               269         269
               270         270
               271         271
               272         272
               273         273
               274         274
               275         275
               276         276
               277         277
               278         278
               279         279
               280         280
               281         281
               282         282
               283         283
               284         284
               285         285
               286         286
               287         287
               288         288
               289         289
               290         290
               291         291
               292         292
               293         293
               294         294
               295         295
               296         296
               297         297
               298         298
               299         299
               300         300
               301         301
               302         302
               303         303
               304         304
               305         305
               306         306
               307         307
               308         308
               309         309
               310         310
               311         311
               312         312
               313         313
               314         314
               315         315
               316         316
               317         317
               318         318
               319         319
               320         320
               321         321
               322         322
               323         323
               324         324
               325         325

----------------------------------------------------------------------------------------

 
 
 KPOINTS: Automatic Mesh                          

Automatic generation of k-mesh.
 Grid dimensions read from file:
 generate k-points for:    3    3    1

 Generating k-lattice:

  Cartesian coordinates                     Fractional coordinates (reciprocal lattice)
     0.018456177  0.000005026 -0.000000000     0.333333333  0.000000000  0.000000000
     0.000000000  0.018454135  0.000000000     0.000000000  0.333333333  0.000000000
     0.000000000 -0.000000000  0.016003201     0.000000000  0.000000000  1.000000000

  Length of vectors
     0.018456178  0.018454135  0.016003201

  Shift w.r.t. Gamma in fractional coordinates (k-lattice)
     0.000000000  0.000000000  0.000000000

 
 Subroutine IBZKPT returns following result:
 ===========================================
 
 Found      5 irreducible k-points:
 
 Following reciprocal coordinates:
            Coordinates               Weight
  0.000000  0.000000  0.000000      1.000000
  0.333333  0.000000  0.000000      2.000000
  0.000000  0.333333  0.000000      2.000000
  0.333333  0.333333  0.000000      2.000000
 -0.333333  0.333333  0.000000      2.000000
 
 Following cartesian coordinates:
            Coordinates               Weight
  0.000000  0.000000  0.000000      1.000000
  0.018456  0.000005  0.000000      2.000000
  0.000000  0.018454  0.000000      2.000000
  0.018456  0.018459  0.000000      2.000000
 -0.018456  0.018449  0.000000      2.000000
 


--------------------------------------------------------------------------------------------------------




 Dimension of arrays:
   k-points           NKPTS =      5   k-points in BZ     NKDIM =      5   number of bands    NBANDS=    732
   number of dos      NEDOS =    301   number of ions     NIONS =    325
   non local maximal  LDIM  =      5   non local SUM 2l+1 LMDIM =     13
   total plane-waves  NPLWV = ******
   max r-space proj   IRMAX =   3336   max aug-charges    IRDMAX=  19845
   dimension x,y,z NGX =   100 NGY =  100 NGZ =  350
   dimension x,y,z NGXF=   200 NGYF=  200 NGZF=  700
   support grid    NGXF=   200 NGYF=  200 NGZF=  700
   ions per type =             143  39  47  72  24
   NGX,Y,Z   is equivalent  to a cutoff of   9.20,  9.20,  9.31 a.u.
   NGXF,Y,Z  is equivalent  to a cutoff of  18.41, 18.41, 18.62 a.u.

 SYSTEM =  PSC                                     
 POSCAR =   H  C  N  I Pb                          

 Startparameter for this run:
   NWRITE =      2    write-flag & timer
   PREC   = normal    normal or accurate (medium, high low for compatibility)
   ISTART =      0    job   : 0-new  1-cont  2-samecut
   ICHARG =      1    charge: 1-file 2-atom 10-const
   ISPIN  =      1    spin polarized calculation?
   LNONCOLLINEAR =      F non collinear calculations
   LSORBIT =      F    spin-orbit coupling
   INIWAV =      1    electr: 0-lowe 1-rand  2-diag
   LASPH  =      F    aspherical Exc in radial PAW
 Electronic Relaxation 1
   ENCUT  =  500.0 eV  36.75 Ry    6.06 a.u.  32.93 32.93113.93*2*pi/ulx,y,z
   ENINI  =  500.0     initial cutoff
   ENAUG  =  644.9 eV  augmentation charge cutoff
   NELM   =    600;   NELMIN=  2; NELMDL=  0     # of ELM steps 
   EDIFF  = 0.1E-03   stopping-criterion for ELM
   LREAL  =      T    real-space projection
   NLSPLINE    = F    spline interpolate recip. space projectors
   LCOMPAT=      F    compatible to vasp.4.4
   GGA_COMPAT  = F    GGA compatible to vasp.4.4-vasp.4.6
   LMAXPAW     = -100 max onsite density
   LMAXMIX     =    2 max onsite mixed and CHGCAR
   VOSKOWN=      0    Vosko Wilk Nusair interpolation
   ROPT   =   -0.00050  -0.00050  -0.00050  -0.00050
   ROPT   =   -0.00050
 Ionic relaxation
   EDIFFG = 0.1E-02   stopping-criterion for IOM
   NSW    =      0    number of steps for IOM
   NBLOCK =      1;   KBLOCK =      1    inner block; outer block 
   IBRION =     -1    ionic relax: 0-MD 1-quasi-New 2-CG
   NFREE  =      0    steps in history (QN), initial steepest desc. (CG)
   ISIF   =      2    stress and relaxation
   IWAVPR =     10    prediction:  0-non 1-charg 2-wave 3-comb
   ISYM   =      0    0-nonsym 1-usesym 2-fastsym
   LCORR  =      T    Harris-Foulkes like correction to forces

   POTIM  = 0.5000    time-step for ionic-motion
   TEIN   =    0.0    initial temperature
   TEBEG  =    0.0;   TEEND  =   0.0 temperature during run
   SMASS  =  -3.00    Nose mass-parameter (am)
   estimated Nose-frequenzy (Omega)   =  0.10E-29 period in steps = 0.13E+47 mass=  -0.745E-26a.u.
   SCALEE = 1.0000    scale energy and forces
   NPACO  =    256;   APACO  = 16.0  distance and # of slots for P.C.
   PSTRESS=    0.0 pullay stress

  Mass of Ions in am
   POMASS =   1.00 12.01 14.00126.90207.20
  Ionic Valenz
   ZVAL   =   1.00  4.00  5.00  7.00  4.00
  Atomic Wigner-Seitz radii
   RWIGS  =  -1.00 -1.00 -1.00 -1.00 -1.00
  virtual crystal weights 
   VCA    =   1.00  1.00  1.00  1.00  1.00
   NELECT =    1134.0000    total number of electrons
   NUPDOWN=      -1.0000    fix difference up-down

 DOS related values:
   EMIN   =  10.00;   EMAX   =-10.00  energy-range for DOS
   EFERMI =   0.00
   ISMEAR =     0;   SIGMA  =   0.05  broadening in eV -4-tet -1-fermi 0-gaus

 Electronic relaxation 2 (details)
   IALGO  =     38    algorithm
   LDIAG  =      T    sub-space diagonalisation (order eigenvalues)
   LSUBROT=      F    optimize rotation matrix (better conditioning)
   TURBO    =      0    0=normal 1=particle mesh
   IRESTART =      0    0=no restart 2=restart with 2 vectors
   NREBOOT  =      0    no. of reboots
   NMIN     =      0    reboot dimension
   EREF     =   0.00    reference energy to select bands
   IMIX   =      4    mixing-type and parameters
     AMIX     =   0.40;   BMIX     =  0.01
     AMIX_MAG =   1.60;   BMIX_MAG =  0.01
     AMIN     =   0.01
     WC   =   100.;   INIMIX=   1;  MIXPRE=   1;  MAXMIX= -45

 Intra band minimization:
   WEIMIN = 0.0000     energy-eigenvalue tresh-hold
   EBREAK =  0.34E-07  absolut break condition
   DEPER  =   0.30     relativ break condition  

   TIME   =   0.40     timestep for ELM

  volume/ion in A,a.u.               =      62.72       423.28
  Fermi-wavevector in a.u.,A,eV,Ry     =   0.624944  1.180972  5.313816  0.390554
  Thomas-Fermi vector in A             =   1.685677
 
 Write flags
   LWAVE        =      F    write WAVECAR
   LDOWNSAMPLE  =      F    k-point downsampling of WAVECAR
   LCHARG       =      T    write CHGCAR
   LVTOT        =      T    write LOCPOT, total local potential
   LVHAR        =      F    write LOCPOT, Hartree potential only
   LELF         =      F    write electronic localiz. function (ELF)
   LORBIT       =      0    0 simple, 1 ext, 2 COOP (PROOUT), +10 PAW based schemes


 Dipole corrections
   LMONO  =      F    monopole corrections only (constant potential shift)
   LDIPOL =      T    correct potential (dipole corrections)
   IDIPOL =      3    1-x, 2-y, 3-z, 4-all directions 
   EPSILON=  1.0000000 bulk dielectric constant

 Exchange correlation treatment:
   GGA     =    --    GGA type
   LEXCH   =     8    internal setting for exchange type
   VOSKOWN=      0    Vosko Wilk Nusair interpolation
   LHFCALC =     F    Hartree Fock is set to
   LHFONE  =     F    Hartree Fock one center treatment
   AEXX    =    0.0000 exact exchange contribution

 Linear response parameters
   LEPSILON=     F    determine dielectric tensor
   LRPA    =     F    only Hartree local field effects (RPA)
   LNABLA  =     F    use nabla operator in PAW spheres
   LVEL    =     F    velocity operator in full k-point grid
   LINTERFAST=   F  fast interpolation
   KINTER  =     0    interpolate to denser k-point grid
   CSHIFT  =0.1000    complex shift for real part using Kramers Kronig
   OMEGAMAX=  -1.0    maximum frequency
   DEG_THRESHOLD= 0.2000000E-02 threshold for treating states as degnerate
   RTIME   =   -0.100 relaxation time in fs
  (WPLASMAI=    0.000 imaginary part of plasma frequency in eV, 0.658/RTIME)
   DFIELD  = 0.0000000 0.0000000 0.0000000 field for delta impulse in time
 
 Orbital magnetization related:
   ORBITALMAG=     F  switch on orbital magnetization
   LCHIMAG   =     F  perturbation theory with respect to B field
   DQ        =  0.001000  dq finite difference perturbation B field
   LLRAUG    =     F  two centre corrections for induced B field



--------------------------------------------------------------------------------------------------------


 Static calculation
 charge density and potential will be updated during run
 non-spin polarized calculation
 Variant of blocked Davidson
 Davidson routine will perform the subspace rotation
 perform sub-space diagonalisation
    after iterative eigenvector-optimisation
 modified Broyden-mixing scheme, WC =      100.0
 initial mixing is a Kerker type mixing with AMIX =  0.4000 and BMIX =      0.0100
 Hartree-type preconditioning will be used
 using additional bands           165
 real space projection scheme for non local part
[...]
     13.54561      0.00000     45.35368         0.000860     -0.003773      0.015343
     13.54315      9.03140     45.35368         0.006014     -0.008762     -0.001951
     13.99160     10.02668     32.52244         0.108963      0.055635     -0.123632
     13.01929      8.58853     32.84479         0.009901      0.264667      0.193989
     15.75105      9.04760     33.85381        -0.011657     -0.029501     -0.114014
     15.46237      8.68600     35.54060        -0.011754     -0.094275     -0.036625
     13.42650     11.56569     34.96072        -0.060528      0.095402      0.085893
     14.55379     10.81007     36.10930        -0.000762     -0.097351     -0.158882
     12.06363      9.91800     35.63120         0.004253     -0.081809     -0.048125
     12.21132      8.25022     35.05839         0.201097      0.025569     -0.032895
     11.13110      9.98772     33.59962        -0.136560      0.045565      0.021098
     12.11185     11.46572     33.48933         0.008481     -0.126917      0.006594
     10.95217     11.63647     31.54819        -0.162363      0.368025     -0.006188
     12.39942     10.84750     30.95313         0.020432      0.040636      0.004828
     14.34651      7.05373     33.15053        -0.045648      0.048566     -0.152601
     14.01684      6.68633     34.83067        -0.222380     -0.137456      0.290359
     15.65887      6.60877     34.21764         0.052386     -0.004940      0.074549
     15.60981     12.54239     34.75486         0.034444     -0.083838     -0.088223
     15.26966     11.69714     33.23708         0.003598      0.021579      0.026876
     16.38808     10.96716     34.43217         0.173027      0.048240     -0.013780
     13.67642      9.53095     37.49461         0.001701     -0.004220     -0.221147
     14.03409      7.89584     36.89299        -0.109837      0.021211     -0.060303
     12.41959      8.31583     37.46630        -0.076773     -0.085864      0.037303
      9.65165      9.56631     31.46864         0.085572      0.045516      0.025240
     10.39263      9.87690     29.88623         0.152947      0.058702      0.384431
     12.52598      8.58285     29.25314        -0.049287     -0.084326      0.104618
     10.13855      7.58756     32.72615         0.198353     -0.122883     -0.234734
     13.72753      6.41730     29.45986        -0.022804      0.052578      0.027239
     11.37597      5.41491     32.91646         0.000431      0.003293     -0.010896
     13.17253      4.83994     31.32335        -0.047486      0.207098     -0.055611
      0.37419      4.50894     34.91870         0.384136      0.593010     -0.442114
      0.56346     13.66669     35.02293         0.080024     -0.150190      0.064330
      8.36118      4.12011     34.61474        -0.258481      0.201887      0.083593
      9.08316     13.79988     34.84099        -0.388232     -0.013337     -0.007143
      4.33594      9.48464     34.91381        -0.119280      0.032958     -0.051815
      4.48386      0.18839     34.65121         0.004158      0.048238      0.007336
     13.88368     17.69483     35.13686         0.158103      0.075348      0.015779
      0.17714      4.41427     40.65983         0.283458     -0.193170     -0.944467
      0.11143     13.74004     40.75668        -0.028415      0.386585     -0.232319
      8.84785      4.21783     40.83520        -0.257203      0.038844     -0.012246
      8.94934     13.69669     40.58780         0.067550     -0.046661     -0.214141
      4.65610      8.98542     40.55820        -0.744052     -0.825044      0.035856
      4.53275     18.02461     40.44720         0.594688      0.568985     -0.239197
     13.99752      8.83038     40.85322         0.498516      0.747899     -0.029149
     13.63882     17.99255     40.64236         0.646084      0.629656     -0.123298
      9.02897      4.51561     46.44552         0.010586     -0.000705      0.002066
      9.02651     13.54701     46.44552         0.005890      0.011475      0.040365
     18.05937      4.51561     46.44552        -0.003812      0.022065      0.052195
     18.05691     13.54701     46.44552         0.009832      0.011993      0.014516
      4.51521      0.00002     46.44421         0.007808      0.005897      0.062468
      4.51275      9.03142     46.44421        -0.010191     -0.011466      0.037062
     13.54561      0.00002     46.44421        -0.005783     -0.008280      0.018648
     13.54315      9.03142     46.44421        -0.006483     -0.012499      0.015417
     11.25873      8.24727     30.98113         0.003856     -0.426578      0.122474
     12.26316      7.88909     30.06173        -0.036170      0.180958      0.126666
     10.92013      7.32147     31.99593         0.183275      0.136842     -0.106523
     12.95093      6.67780     30.18354         0.065162      0.090893     -0.309655
     11.61689      6.11007     32.11062        -0.115963      0.190018     -0.039295
     12.64069      5.79297     31.20913        -0.150295     -0.373005      0.324528
     13.20180      9.62814     33.16697         0.526801     -0.240928     -0.226833
     15.02223      8.60145     34.53726         0.004582      0.471731      0.055252
     14.30582     10.92064     35.04183        -0.259096     -0.094816     -0.034367
     12.76647      9.07796     35.52646        -0.205340      0.070825      0.429855
     11.94894     10.46694     33.04628        -0.244148      0.249595      0.034312
     11.50735     10.70160     31.58436         0.159538     -0.352040     -0.152622
     14.72226      7.17668     34.16866         0.151793     -0.072695     -0.219612
     15.46899     11.54638     34.30696        -0.119289     -0.057794     -0.049327
     13.27847      8.69229     36.90217         0.058450      0.041246      0.071220
     10.62066      9.60906     30.94342        -0.142678     -0.070368     -0.147134
      0.10659      3.38712     35.51303        -0.330326     -0.697744      0.343489
      0.59473     12.55359     35.71956         0.169406     -0.066356     -0.404997
      9.64407      3.99515     34.86028         0.031789     -0.259710     -0.106649
      8.74122     12.62881     35.34650         0.010842      0.288191     -0.020623
      7.62924      5.14280     35.00679         0.048318     -0.312861     -0.192306
      8.38147     14.91269     34.98396         0.803616     -0.525399     -0.330695
     18.05082      5.68891     35.34749        -0.187061      0.084145      0.054722
     17.80315     14.66160     35.26886        -0.133466      0.066397     -0.033497
      4.40990      8.23263     35.29764         0.090853     -0.131114      0.124642
      3.39943     17.58788     34.97802        -0.252379     -0.089646      0.205750
     12.58396     17.79949     35.26142        -0.559796     -0.676573     -0.079784
      5.67744     17.96101     35.09290         0.615247      0.206677     -0.229054
      5.28215     10.37549     35.07261         0.052975      0.524253     -0.166921
     14.73706      0.54431     35.53822        -0.018948      0.106983      0.049105
      1.00014      3.46217     41.03498        -0.107609      0.077461      0.358542
      1.00531     12.88186     41.17709         0.348916     -0.030591     -0.325459
     10.13003      3.99228     40.98365        -0.033346      0.213024      0.123151
      9.61525     12.81052     41.28394         0.312976     -0.435825      0.086057
      3.82590      8.10386     41.09296         0.193737      0.188104     -0.642901
      3.73277     17.28773     41.17021        -0.728204     -0.712260     -0.603600
     12.94531      8.30087     41.42093         0.027911     -0.330333     -0.138865
     12.74875     17.25235     41.24525        -0.381379     -0.592146     -0.743932
      8.20961      5.27941     41.27831         0.007528     -0.399938     -0.163911
      8.14185     14.59969     41.07664        -0.062613      0.027152      0.236766
     17.49718      5.14612     41.44143        -0.455464      0.453453      0.389732
     16.98358     13.91633     41.27724         0.050205      0.052439     -0.117205
      5.44775      0.80197     40.91433        -0.411547     -0.403824     -0.622956
      5.38810      9.83446     41.22748         0.661682      0.707948     -0.783928
     14.36015      0.88986     41.20686        -0.277679     -0.428900     -0.338703
     14.35751     10.10326     40.95669        -0.721022     -1.160295      0.233482
      0.82731      3.68697     47.03596         0.028033     -0.036760     -0.091353
      0.82485     12.71837     47.03596         0.025308     -0.029239     -0.071377
      9.85771      3.68697     47.03596         0.022060     -0.025340     -0.069739
      9.85525     12.71837     47.03596         0.026721     -0.029845     -0.102500
      3.68432      8.20234     47.03465        -0.007830     -0.003905     -0.067863
      3.68186     17.23373     47.03465        -0.012766     -0.010076     -0.064619
     12.71472      8.20234     47.03465        -0.014168     -0.008608     -0.072926
     12.71226     17.23373     47.03465        -0.011293     -0.012078     -0.061314
      8.20068      5.34457     47.03603        -0.022614      0.023080     -0.069915
      8.19822     14.37597     47.03603        -0.018010      0.012665     -0.097917
     17.23108      5.34457     47.03603        -0.006051      0.003329     -0.088686
     17.22862     14.37597     47.03603        -0.015709      0.014599     -0.068291
      5.34365      0.82909     47.03465         0.000724      0.000919     -0.067668
      5.34119      9.86049     47.03465         0.018041      0.021770     -0.070019
     14.37405      0.82909     47.03465         0.022537      0.018295     -0.061164
     14.37159      9.86049     47.03465         0.020678      0.024903     -0.074982
     13.82871      9.55244     34.55590        -0.044014     -0.113484      0.012246
      9.13403      0.36399     34.47963        -0.000459     -0.046364      0.012479
      8.57830      9.04428     34.69919         0.051349      0.016191     -0.000302
     18.04481      0.03042     34.36526         0.002572      0.002603     -0.012101
      0.71523      9.07815     34.54374        -0.030967     -0.013536      0.048610
      4.15381      4.32511     34.50480         0.035427     -0.008585      0.045785
      4.47971     13.90843     34.61348         0.074109     -0.099759     -0.044726
     13.29178      3.66088     34.69982         0.039023      0.055600     -0.000273
     12.74966     14.30674     34.48975        -0.020461     -0.062464     -0.013073
      0.03174     17.74586     40.86864        -0.013408      0.009871      0.029970
      0.14663      8.93349     40.94853        -0.039044      0.038677      0.002785
      9.06571      0.20146     40.90218         0.013634      0.014645     -0.055389
      9.30532      8.81377     40.94232        -0.030966      0.010457      0.011669
      4.69858      4.42682     40.90003         0.006488      0.000525     -0.025789
      4.51809     13.64454     40.90372         0.048616     -0.012827      0.037380
     13.60347      4.74285     40.90893        -0.007521      0.052644      0.005699
     13.43316     13.64044     40.87376         0.023953     -0.050463      0.012041
      2.43423      1.93790     37.99604         0.024788      0.010160     -0.002804
      2.66619     10.97578     38.13121         0.016321     -0.035430     -0.037226
     11.71914      1.90865     38.17505        -0.025523     -0.023192     -0.003805
     11.14844     11.44376     38.29177        -0.044426     -0.147396     -0.217678
      6.50115      6.94480     37.88726         0.010613      0.032144      0.060750
      6.69597     15.94370     37.97797        -0.024810      0.045316     -0.060058
     16.12267      6.57028     38.27709        -0.052413      0.026211     -0.195174
     15.76105     15.71868     37.97089        -0.015163      0.073418     -0.003087
      2.25006      6.55853     38.14806        -0.028231      0.035950     -0.036932
      2.25599     15.73708     37.89854        -0.035773     -0.000538      0.071525
     10.55002      5.99940     37.66074         0.057918      0.067568     -0.013888
     11.13414     15.76412     38.18515        -0.024102      0.018141      0.027880
      6.97966      2.42917     37.88276        -0.004969     -0.014548     -0.045161
      6.93055     11.34932     38.21101         0.017734      0.057890     -0.031092
     16.01698      2.45881     38.24656         0.012891     -0.045370      0.046016
     16.35663     11.57478     38.32561        -0.137804      0.026190     -0.253454
      0.00000      0.00000     47.17356         0.002279      0.005092      0.309042
     -0.00246      9.03140     47.17356        -0.001903      0.003625      0.429506
      9.03040      0.00000     47.17356        -0.001889     -0.004298      0.401306
      9.02794      9.03140     47.17356         0.006050      0.004053      0.445329
      4.51398      4.51570     47.17425        -0.003941     -0.004611      0.440961
      4.51152     13.54710     47.17425         0.005819     -0.000265      0.413471
     13.54438      4.51570     47.17425         0.003232      0.001760      0.435937
     13.54192     13.54710     47.17425        -0.005701     -0.007384      0.395595
      2.45192      2.06295     44.04013        -0.009800     -0.040890     -0.024436
      2.44946     11.09435     44.04013         0.033311     -0.018549     -0.024663
     11.48232      2.06295     44.04013         0.067073     -0.032628     -0.059584
     11.47986     11.09435     44.04013         0.025480     -0.027229     -0.093936
      6.57602      6.96845     44.04013        -0.033098      0.073435      0.001059
      6.57356     15.99985     44.04013        -0.013733      0.010771     -0.023260
     15.60642      6.96845     44.04013         0.056073     -0.011552      0.025711
     15.60396     15.99985     44.04013        -0.030651      0.018408      0.005775
      2.06108      6.57881     44.04000         0.029830     -0.008035     -0.016307
      2.05862     15.61021     44.04000         0.046983      0.038924      0.012194
     11.09148      6.57881     44.04000        -0.030624     -0.066014     -0.005840
     11.08902     15.61021     44.04000        -0.041162     -0.011300     -0.004909
      6.96686      2.45259     44.04007        -0.053337     -0.087002     -0.018686
      6.96440     11.48399     44.04007         0.042941      0.027638     -0.033339
     15.99726      2.45259     44.04007         0.042556      0.027918     -0.033014
     15.99481     11.48399     44.04007         0.009574      0.052676     -0.076461
      2.43163      2.08322     50.06849        -0.000775     -0.021400      0.022061
      2.42917     11.11462     50.06849         0.013710     -0.007544      0.023639
     11.46203      2.08322     50.06849         0.008348     -0.014574      0.025829
     11.45957     11.11462     50.06849         0.014650     -0.004443      0.021022
      6.59631      6.94818     50.06849        -0.011705      0.010547      0.024771
      6.59385     15.97958     50.06849        -0.010707      0.008296      0.021441
     15.62671      6.94818     50.06849        -0.008294      0.011460      0.023164
     15.62425     15.97958     50.06849        -0.005121      0.015852      0.024151
      2.08113      6.59901     50.06905        -0.012517     -0.009107      0.023361
      2.07867     15.63041     50.06905        -0.016435     -0.003406      0.023027
     11.11153      6.59901     50.06905        -0.008287     -0.010164      0.023497
     11.10907     15.63041     50.06905        -0.008635     -0.014258      0.023589
      6.94681      2.43239     50.06905         0.011869      0.005485      0.024538
      6.94435     11.46379     50.06905         0.007017      0.014461      0.022375
     15.97721      2.43239     50.06905         0.021470     -0.000183      0.023829
     15.97475     11.46379     50.06905         0.005909      0.013084      0.022812
     17.98011     18.00774     37.83269         0.004275      0.039625      0.013043
      0.15714      9.04401     37.84536         0.033602     -0.011295     -0.016055
      9.02670      0.12397     37.74299         0.097977      0.076389      0.013077
      8.98528      8.89378     37.77520         0.004729      0.005897      0.083038
      4.40988      4.36926     37.66789         0.001193      0.042458     -0.001602
      4.48257     13.49133     37.74300         0.007261     -0.058753     -0.010919
     13.37613      4.51796     37.66046        -0.000911     -0.102818     -0.017551
     13.23780     13.67932     37.59719         0.074334     -0.077802      0.105578
      0.00001      0.00001     44.04300        -0.062028     -0.133644      0.165165
     -0.00245      9.03141     44.04300        -0.019399     -0.076309      0.173625
      9.03041      0.00001     44.04300         0.022317      0.107196      0.131655
      9.02795      9.03141     44.04300        -0.083388     -0.063973      0.149546
      4.51397      4.51569     44.04275         0.077865      0.027996      0.060239
      4.51151     13.54709     44.04275        -0.093582      0.021334      0.127263
     13.54437      4.51569     44.04275        -0.012806      0.012657      0.176909
     13.54191     13.54709     44.04275         0.010445      0.154509      0.072909
      0.00000      0.00000     50.44728        -0.000305      0.004053     -0.604427
     -0.00246      9.03140     50.44728         0.000393     -0.005146     -0.634452
      9.03040      0.00000     50.44728         0.000865      0.008007     -0.629836
      9.02794      9.03140     50.44728        -0.000995     -0.008105     -0.636991
      4.51397      4.51570     50.44728         0.007189      0.006865     -0.640620
      4.51151     13.54710     50.44728         0.003868     -0.007489     -0.630305
     13.54437      4.51570     50.44728        -0.007744      0.005199     -0.640628
     13.54191     13.54710     50.44728        -0.003730     -0.006226     -0.626358
 -----------------------------------------------------------------------------------
    total drift:                                0.012874      0.121821      0.383467


--------------------------------------------------------------------------------------------------------



  FREE ENERGIE OF THE ION-ELECTRON SYSTEM (eV)
  ---------------------------------------------------
  free  energy   TOTEN  =     -1575.58594273 eV

  energy  without entropy=    -1575.58594273  energy(sigma->0) =    -1575.58594273
 


--------------------------------------------------------------------------------------------------------


    POTLOK:  cpu time    0.5025: real time    0.5025


--------------------------------------------------------------------------------------------------------


     LOOP+:  cpu time  307.1730: real time  307.7365
 vacuum level on the upper side and lower side of the slab         2.309         1.603
    4ORBIT:  cpu time    0.0000: real time    0.0000

 total amount of memory used by VASP MPI-rank0  8653578. kBytes
=======================================================================

   base      :      30000. kBytes
   nonlr-proj:      53616. kBytes
   fftplans  :     249280. kBytes
   grid      :     701440. kBytes
   one-center:       2636. kBytes
   wavefun   :    7616606. kBytes
 
  
  
 General timing and accounting informations for this job:
 ========================================================
  
                  Total CPU time used (sec):      521.824
                            User time (sec):      420.830
                          System time (sec):      100.994
                         Elapsed time (sec):      523.315
  
                   Maximum memory used (kb):    10308692.
                   Average memory used (kb):          N/A
  
                          Minor page faults:      3685460
                          Major page faults:           13
                 Voluntary context switches:        11256
