<?xml version="1.0" encoding="ISO-8859-1"?>
<modeling>
 <generator>
  <i name="program" type="string">vasp </i>
  <i name="version" type="string">6.2.1  </i>
  <i name="subversion" type="string">16May21 (build Nov 15 2021 14:57:28) complex                          parallel </i>
  <i name="platform" type="string">LinuxPGI </i>
  <i name="date" type="string">2023 07 25 </i>
  <i name="time" type="string">00:41:39 </i>
 </generator>
 <incar>
  <i type="string" name="SYSTEM">PSC</i>
  <i type="int" name="ISTART">     1</i>
  <i type="string" name="PREC">Normal</i>
  <i name="BMIX">      0.01000000</i>
  <i name="AMIN">      0.01000000</i>
  <i type="int" name="ICHARG">     1</i>
  <i type="int" name="NELM">   600</i>
  <i type="int" name="ISYM">     0</i>
  <i name="ENCUT">    500.00000000</i>
  <i type="string" name="LREAL">Auto</i>
  <i type="int" name="ISMEAR">     0</i>
  <i name="SIGMA">      0.05000000</i>
  <i type="logical" name="LWAVE"> F  </i>
  <i type="logical" name="LVTOT"> T  </i>
  <i type="logical" name="GGA_COMPAT"> F  </i>
  <i type="logical" name="LDIPOL"> T  </i>
  <i type="int" name="IDIPOL">     3</i>
  <i type="int" name="IVDW">    12</i>
 </incar>
 <primitive_cell>
  <structure name="primitive_cell" >
   <crystal>
    <varray name="basis" >
     <v>      18.06080055       0.00000000       0.00000000 </v>
     <v>      -0.00491865      18.06279945       0.00000000 </v>
     <v>       0.00000000       0.00000000      62.48749924 </v>
    </varray>
    <i name="volume">  20385.21054034 </i>
    <varray name="rec_basis" >
     <v>       0.05536853       0.00001508      -0.00000000 </v>
     <v>       0.00000000       0.05536240       0.00000000 </v>
     <v>       0.00000000      -0.00000000       0.01600320 </v>
    </varray>
   </crystal>
   <varray name="positions" >
    <v>       0.44263735       0.32470120       0.57012160 </v>
    <v>       0.41975177       0.82804269       0.56963719 </v>
    <v>       0.96708238       0.32147566       0.57910313 </v>
    <v>       0.94933498       0.81193770       0.57710548 </v>
    <v>       0.32420052       0.95337475       0.57255647 </v>
    <v>       0.34140889       0.56307990       0.56891506 </v>
    <v>       0.79897661       0.07822228       0.57598233 </v>
    <v>       0.01986037       0.13691471       0.56185389 </v>
    <v>       0.06437162       0.65062171       0.56690300 </v>
    <v>       0.56108911       0.17429789       0.55317247 </v>
    <v>       0.51480599       0.65238716       0.56286630 </v>
    <v>       0.36173857       0.02078936       0.55601026 </v>
    <v>       0.28489346       0.62840919       0.55618699 </v>
    <v>       0.87102828       0.02381371       0.56532596 </v>
    <v>       0.97548132       0.18619573       0.58223700 </v>
    <v>       0.99832196       0.68540293       0.58430486 </v>
    <v>       0.56044454       0.25576451       0.56846465 </v>
    <v>       0.44025342       0.69266114       0.57602451 </v>
    <v>       0.28743726       0.43624012       0.57405189 </v>
    <v>       0.18942098       0.93170972       0.57093335 </v>
    <v>       0.67204291       0.02844022       0.57211358 </v>
    <v>       0.36633238       0.28353578       0.55755982 </v>
    <v>       0.48515713       0.87499273       0.55440947 </v>
    <v>       0.02020738       0.36294519       0.55923753 </v>
    <v>       0.99320512       0.86158507       0.55683183 </v>
    <v>       0.19872291       0.42292422       0.56377414 </v>
    <v>       0.13675041       0.99146989       0.55504766 </v>
    <v>       0.66537318       0.93920822       0.56085089 </v>
    <v>       0.43519502       0.18436208       0.54478670 </v>
    <v>       0.55431441       0.76702977       0.54815822 </v>
    <v>       0.05428655       0.24806048       0.54427897 </v>
    <v>       0.07068915       0.76350578       0.54723806 </v>
    <v>       0.18840603       0.54168949       0.55102031 </v>
    <v>       0.24278528       0.05793545       0.54384596 </v>
    <v>       0.79029551       0.92898776       0.55480488 </v>
    <v>       0.48068671       0.33340284       0.66876969 </v>
    <v>       0.43903771       0.81419739       0.67326363 </v>
    <v>       0.96795681       0.28005369       0.67940450 </v>
    <v>       0.92129565       0.73881293       0.67279533 </v>
    <v>       0.31121935       0.05322592       0.67055990 </v>
    <v>       0.29920038       0.54963470       0.67587957 </v>
    <v>       0.79095936       0.06280619       0.67520909 </v>
    <v>       0.76597680       0.59525207       0.66466273 </v>
    <v>       0.08428847       0.16399122       0.64520778 </v>
    <v>       0.10726872       0.71274760       0.65185255 </v>
    <v>       0.58370753       0.17438296       0.64978011 </v>
    <v>       0.56655857       0.67285582       0.65277180 </v>
    <v>       0.18314260       0.41409550       0.64737967 </v>
    <v>       0.17016719       0.92215276       0.65095906 </v>
    <v>       0.70864954       0.40337133       0.66174961 </v>
    <v>       0.67827443       0.91582640       0.65107047 </v>
    <v>       0.06518948       0.17671275       0.67240781 </v>
    <v>       0.04787994       0.67774320       0.67145522 </v>
    <v>       0.59600794       0.25711779       0.66323513 </v>
    <v>       0.53044457       0.70379824       0.67692006 </v>
    <v>       0.20217848       0.44437255       0.67361581 </v>
    <v>       0.20643882       0.95595190       0.67507228 </v>
    <v>       0.68086621       0.48946179       0.67182169 </v>
    <v>       0.69227298       0.95894149       0.67571865 </v>
    <v>       0.39800833       0.29400277       0.65917438 </v>
    <v>       0.42498682       0.84309447       0.64710251 </v>
    <v>       0.93543220       0.32499145       0.65684647 </v>
    <v>       0.90509344       0.80718501       0.65376284 </v>
    <v>       0.33278148       0.07352810       0.64394771 </v>
    <v>       0.33202203       0.58024142       0.65114519 </v>
    <v>       0.83218944       0.07779300       0.65021843 </v>
    <v>       0.83979359       0.57808442       0.64739548 </v>
    <v>       0.00547084       0.25635513       0.63329909 </v>
    <v>       0.02079096       0.79688903       0.63869385 </v>
    <v>       0.45821096       0.19176347       0.64458712 </v>
    <v>       0.50335724       0.75768948       0.63216178 </v>
    <v>       0.24602911       0.99338340       0.62975859 </v>
    <v>       0.26133947       0.49717443       0.63152206 </v>
    <v>       0.76645254       0.98599561       0.63331515 </v>
    <v>       0.81057836       0.45308370       0.64404453 </v>
    <v>       0.44874502       0.30128397       0.76888902 </v>
    <v>       0.44874501       0.80128391       0.76888902 </v>
    <v>       0.94874497       0.30128397       0.76888902 </v>
    <v>       0.94874501       0.80128391       0.76888902 </v>
    <v>       0.30127600       0.05129450       0.76887296 </v>
    <v>       0.30127601       0.55129450       0.76887296 </v>
    <v>       0.80127594       0.05129450       0.76887296 </v>
    <v>       0.80127598       0.55129450       0.76887296 </v>
    <v>       0.07877100       0.17118050       0.74344197 </v>
    <v>       0.07877101       0.67118045       0.74344197 </v>
    <v>       0.57877100       0.17118050       0.74344197 </v>
    <v>       0.57877099       0.67118045       0.74344197 </v>
    <v>       0.17119950       0.42117448       0.74342103 </v>
    <v>       0.17119950       0.92117451       0.74342103 </v>
    <v>       0.67119951       0.42117448       0.74342103 </v>
    <v>       0.67119950       0.92117451       0.74342103 </v>
    <v>       0.05125600       0.19871499       0.76888902 </v>
    <v>       0.05125600       0.69871493       0.76888902 </v>
    <v>       0.55125603       0.19871499       0.76888902 </v>
    <v>       0.55125602       0.69871493       0.76888902 </v>
    <v>       0.19872349       0.44870397       0.76887205 </v>
    <v>       0.19872349       0.94870397       0.76887205 </v>
    <v>       0.69872352       0.44870397       0.76887205 </v>
    <v>       0.69872351       0.94870397       0.76887205 </v>
    <v>       0.42123152       0.32881747       0.74344197 </v>
    <v>       0.42123151       0.82881744       0.74344197 </v>
    <v>       0.92123147       0.32881747       0.74344197 </v>
    <v>       0.92123151       0.82881744       0.74344197 </v>
    <v>       0.32880050       0.07882500       0.74342103 </v>
    <v>       0.32880049       0.57882496       0.74342103 </v>
    <v>       0.82880048       0.07882500       0.74342103 </v>
    <v>       0.82880052       0.57882496       0.74342103 </v>
    <v>       0.00000350       0.25000148       0.72582199 </v>
    <v>       0.00000350       0.75000145       0.72582199 </v>
    <v>       0.50000351       0.25000148       0.72582199 </v>
    <v>       0.50000350       0.75000145       0.72582199 </v>
    <v>       0.25000050       0.00000000       0.72580398 </v>
    <v>       0.25000052       0.50000000       0.72580398 </v>
    <v>       0.75000050       0.00000000       0.72580398 </v>
    <v>       0.75000049       0.50000000       0.72580398 </v>
    <v>       0.77484557       0.55510106       0.52046311 </v>
    <v>       0.72098856       0.47548149       0.52562173 </v>
    <v>       0.87224886       0.50089682       0.54176931 </v>
    <v>       0.85625957       0.48087794       0.56876330 </v>
    <v>       0.74357998       0.64030456       0.55948349 </v>
    <v>       0.80598502       0.59847173       0.57786436 </v>
    <v>       0.66809491       0.54908433       0.57021323 </v>
    <v>       0.67624750       0.45675208       0.56104648 </v>
    <v>       0.61646334       0.55294422       0.53770154 </v>
    <v>       0.67078810       0.63476999       0.53593654 </v>
    <v>       0.60658125       0.64422279       0.50487207 </v>
    <v>       0.68670148       0.60054351       0.49534908 </v>
    <v>       0.79445154       0.39051153       0.53051456 </v>
    <v>       0.77619281       0.37017124       0.55740220 </v>
    <v>       0.86710842       0.36587741       0.54759182 </v>
    <v>       0.86448146       0.69437696       0.55618900 </v>
    <v>       0.84563517       0.64758162       0.53189972 </v>
    <v>       0.90754952       0.60716814       0.55102488 </v>
    <v>       0.75738711       0.52765607       0.60003371 </v>
    <v>       0.77716574       0.43713243       0.59040593 </v>
    <v>       0.68778000       0.46038441       0.59958074 </v>
    <v>       0.53454194       0.52961413       0.50359902 </v>
    <v>       0.57557361       0.54680875       0.47827541 </v>
    <v>       0.69367431       0.47516702       0.46814387 </v>
    <v>       0.56147122       0.42006536       0.52372310 </v>
    <v>       0.76016980       0.35527719       0.47145202 </v>
    <v>       0.62995218       0.29978232       0.52676869 </v>
    <v>       0.72941678       0.26795069       0.50127394 </v>
    <v>       0.02078651       0.24962593       0.55881099 </v>
    <v>       0.03140376       0.75662096       0.56047898 </v>
    <v>       0.46300839       0.22809893       0.55394667 </v>
    <v>       0.50312910       0.76399480       0.55756733 </v>
    <v>       0.24021786       0.52509248       0.55873279 </v>
    <v>       0.24826766       0.01042978       0.55453035 </v>
    <v>       0.76898601       0.97962858       0.56230216 </v>
    <v>       0.00987437       0.24438475       0.65068740 </v>
    <v>       0.00637670       0.76068164       0.65223727 </v>
    <v>       0.48995578       0.23350898       0.65349393 </v>
    <v>       0.49571831       0.75828182       0.64953470 </v>
    <v>       0.25793712       0.49745431       0.64906103 </v>
    <v>       0.25124345       0.99788569       0.64728462 </v>
    <v>       0.77515518       0.48887119       0.65378225 </v>
    <v>       0.75543256       0.99611103       0.65040780 </v>
    <v>       0.49998898       0.24999498       0.74327702 </v>
    <v>       0.49998903       0.74999496       0.74327702 </v>
    <v>       0.99998898       0.24999498       0.74327702 </v>
    <v>       0.99998903       0.74999496       0.74327702 </v>
    <v>       0.25000050       0.00000100       0.74325596 </v>
    <v>       0.25000052       0.50000100       0.74325596 </v>
    <v>       0.75000050       0.00000100       0.74325596 </v>
    <v>       0.75000049       0.50000100       0.74325596 </v>
    <v>       0.62350374       0.45658894       0.49579729 </v>
    <v>       0.67911230       0.43675899       0.48108392 </v>
    <v>       0.60474204       0.40533419       0.51203726 </v>
    <v>       0.71717469       0.36969891       0.48303320 </v>
    <v>       0.64330199       0.33826804       0.51387268 </v>
    <v>       0.69998351       0.32071283       0.49944590 </v>
    <v>       0.73110941       0.53303700       0.53077767 </v>
    <v>       0.83188851       0.47619711       0.55270668 </v>
    <v>       0.79225697       0.60459294       0.56078147 </v>
    <v>       0.70699783       0.50257758       0.56853712 </v>
    <v>       0.66175330       0.57947522       0.52884632 </v>
    <v>       0.63730631       0.59246652       0.50545092 </v>
    <v>       0.81525820       0.39731847       0.54680792 </v>
    <v>       0.85666931       0.63923536       0.54902125 </v>
    <v>       0.73534028       0.48122582       0.59055287 </v>
    <v>       0.58819511       0.53198052       0.49519380 </v>
    <v>       0.00595303       0.18751911       0.56832217 </v>
    <v>       0.03311852       0.69499670       0.57162727 </v>
    <v>       0.53403847       0.22118119       0.55787605 </v>
    <v>       0.48417889       0.69916144       0.56565721 </v>
    <v>       0.42249712       0.28471768       0.56022069 </v>
    <v>       0.46429451       0.82560259       0.55985526 </v>
    <v>       0.99953303       0.31495163       0.56567296 </v>
    <v>       0.98595544       0.81170132       0.56441465 </v>
    <v>       0.24429388       0.45577844       0.56487525 </v>
    <v>       0.18848649       0.97370722       0.55976021 </v>
    <v>       0.69702401       0.98542282       0.56429561 </v>
    <v>       0.31462243       0.99436459       0.56159865 </v>
    <v>       0.29262139       0.57441203       0.56127394 </v>
    <v>       0.81597734       0.03013451       0.56872532 </v>
    <v>       0.05542844       0.19167398       0.65669110 </v>
    <v>       0.05585703       0.71317072       0.65896524 </v>
    <v>       0.56094532       0.22102236       0.65586959 </v>
    <v>       0.53257545       0.70922119       0.66067517 </v>
    <v>       0.21195647       0.44864938       0.65761896 </v>
    <v>       0.20693885       0.95709009       0.65885511 </v>
    <v>       0.71688799       0.45955601       0.66286751 </v>
    <v>       0.70613980       0.95513145       0.66005597 </v>
    <v>       0.45463349       0.29228080       0.66058507 </v>
    <v>       0.45102216       0.80827412       0.65735774 </v>
    <v>       0.96887080       0.28490134       0.66319557 </v>
    <v>       0.94056551       0.77044145       0.66056791 </v>
    <v>       0.30164604       0.04439920       0.65476029 </v>
    <v>       0.29847920       0.54445936       0.65977167 </v>
    <v>       0.79511364       0.04926477       0.65944159 </v>
    <v>       0.79510681       0.55934066       0.65543816 </v>
    <v>       0.04586250       0.20411950       0.75272599 </v>
    <v>       0.04586250       0.70411946       0.75272599 </v>
    <v>       0.54586251       0.20411950       0.75272599 </v>
    <v>       0.54586250       0.70411946       0.75272599 </v>
    <v>       0.20411900       0.45410100       0.75270499 </v>
    <v>       0.20411899       0.95410095       0.75270499 </v>
    <v>       0.70411898       0.45410100       0.75270499 </v>
    <v>       0.70411896       0.95410095       0.75270499 </v>
    <v>       0.45414002       0.29588849       0.75272697 </v>
    <v>       0.45414001       0.79588852       0.75272697 </v>
    <v>       0.95414002       0.29588849       0.75272697 </v>
    <v>       0.95414006       0.79588852       0.75272697 </v>
    <v>       0.29588249       0.04590050       0.75270499 </v>
    <v>       0.29588248       0.54590053       0.75270499 </v>
    <v>       0.79588244       0.04590050       0.75270499 </v>
    <v>       0.79588248       0.54590053       0.75270499 </v>
    <v>       0.76581921       0.52884602       0.55300508 </v>
    <v>       0.50574354       0.02015121       0.55178450 </v>
    <v>       0.47510410       0.50071324       0.55529808 </v>
    <v>       0.99911529       0.00168405       0.54995411 </v>
    <v>       0.03973816       0.50258841       0.55281034 </v>
    <v>       0.23005536       0.23944859       0.55218723 </v>
    <v>       0.24824467       0.77000428       0.55392653 </v>
    <v>       0.73600166       0.20267495       0.55530821 </v>
    <v>       0.70614589       0.79205540       0.55194639 </v>
    <v>       0.00202475       0.98245373       0.65402901 </v>
    <v>       0.00825364       0.49457926       0.65530758 </v>
    <v>       0.50195814       0.01115312       0.65456574 </v>
    <v>       0.51535457       0.48795162       0.65520820 </v>
    <v>       0.26022007       0.24507933       0.65453143 </v>
    <v>       0.25036564       0.75539458       0.65459040 </v>
    <v>       0.75327539       0.26257544       0.65467385 </v>
    <v>       0.74397973       0.75516776       0.65411099 </v>
    <v>       0.13480919       0.10728683       0.60805833 </v>
    <v>       0.14778853       0.60764533       0.61022136 </v>
    <v>       0.64890024       0.10566726       0.61092303 </v>
    <v>       0.61744552       0.63355406       0.61279090 </v>
    <v>       0.36006387       0.38448095       0.60631738 </v>
    <v>       0.37098660       0.88268176       0.60776908 </v>
    <v>       0.89278789       0.36374634       0.61255593 </v>
    <v>       0.87290336       0.87022399       0.60765584 </v>
    <v>       0.12468134       0.36309582       0.61049106 </v>
    <v>       0.12514788       0.87124261       0.60649795 </v>
    <v>       0.58422947       0.33214119       0.60269238 </v>
    <v>       0.61671882       0.87273932       0.61108469 </v>
    <v>       0.38648994       0.13448442       0.60624540 </v>
    <v>       0.38390531       0.62832550       0.61149841 </v>
    <v>       0.88687369       0.13612540       0.61206737 </v>
    <v>       0.90581722       0.64080778       0.61333245 </v>
    <v>       0.00000000       0.00000000       0.75492797 </v>
    <v>       0.00000000       0.50000000       0.75492797 </v>
    <v>       0.50000000       0.00000000       0.75492797 </v>
    <v>       0.49999999       0.50000000       0.75492797 </v>
    <v>       0.25000050       0.25000000       0.75493902 </v>
    <v>       0.25000051       0.74999997       0.75493902 </v>
    <v>       0.75000047       0.25000000       0.75493902 </v>
    <v>       0.75000046       0.74999997       0.75493902 </v>
    <v>       0.13579050       0.11421000       0.70478299 </v>
    <v>       0.13579050       0.61420998       0.70478299 </v>
    <v>       0.63579045       0.11421000       0.70478299 </v>
    <v>       0.63579049       0.61420998       0.70478299 </v>
    <v>       0.36420952       0.38578999       0.70478299 </v>
    <v>       0.36420950       0.88578996       0.70478299 </v>
    <v>       0.86420954       0.38578999       0.70478299 </v>
    <v>       0.86420953       0.88578996       0.70478299 </v>
    <v>       0.11421799       0.36421899       0.70478098 </v>
    <v>       0.11421799       0.86421899       0.70478098 </v>
    <v>       0.61421800       0.36421899       0.70478098 </v>
    <v>       0.61421799       0.86421899       0.70478098 </v>
    <v>       0.38578201       0.13578149       0.70478202 </v>
    <v>       0.38578200       0.63578149       0.70478202 </v>
    <v>       0.88578199       0.13578149       0.70478202 </v>
    <v>       0.88578203       0.63578149       0.70478202 </v>
    <v>       0.13466700       0.11533200       0.80125603 </v>
    <v>       0.13466699       0.61533199       0.80125603 </v>
    <v>       0.63466699       0.11533200       0.80125603 </v>
    <v>       0.63466698       0.61533199       0.80125603 </v>
    <v>       0.36533300       0.38466799       0.80125603 </v>
    <v>       0.36533299       0.88466796       0.80125603 </v>
    <v>       0.86533295       0.38466799       0.80125603 </v>
    <v>       0.86533294       0.88466796       0.80125603 </v>
    <v>       0.11532850       0.36533700       0.80126500 </v>
    <v>       0.11532850       0.86533698       0.80126500 </v>
    <v>       0.61532850       0.36533700       0.80126500 </v>
    <v>       0.61532849       0.86533698       0.80126500 </v>
    <v>       0.38467151       0.13466300       0.80126500 </v>
    <v>       0.38467150       0.63466297       0.80126500 </v>
    <v>       0.88467149       0.13466300       0.80126500 </v>
    <v>       0.88467153       0.63466297       0.80126500 </v>
    <v>       0.99580379       0.99695197       0.60544409 </v>
    <v>       0.00883696       0.50069793       0.60564689 </v>
    <v>       0.49979689       0.00686311       0.60400869 </v>
    <v>       0.49763569       0.49238103       0.60452405 </v>
    <v>       0.24423454       0.24189286       0.60280685 </v>
    <v>       0.24839653       0.74691258       0.60400887 </v>
    <v>       0.74068459       0.25012487       0.60268787 </v>
    <v>       0.73316388       0.75732016       0.60167546 </v>
    <v>       0.00000050       0.00000050       0.70482896 </v>
    <v>       0.00000050       0.50000048       0.70482896 </v>
    <v>       0.50000048       0.00000050       0.70482896 </v>
    <v>       0.50000046       0.50000048       0.70482896 </v>
    <v>       0.24999999       0.24999947       0.70482499 </v>
    <v>       0.25000001       0.74999950       0.70482499 </v>
    <v>       0.74999999       0.24999947       0.70482499 </v>
    <v>       0.74999998       0.74999950       0.70482499 </v>
    <v>       0.00000000       0.00000000       0.80731797 </v>
    <v>       0.00000000       0.50000000       0.80731797 </v>
    <v>       0.50000000       0.00000000       0.80731797 </v>
    <v>       0.49999999       0.50000000       0.80731797 </v>
    <v>       0.24999999       0.25000000       0.80731797 </v>
    <v>       0.25000001       0.74999997       0.80731797 </v>
    <v>       0.74999999       0.25000000       0.80731797 </v>
    <v>       0.74999998       0.74999997       0.80731797 </v>
   </varray>
  </structure>
  <varray name="primitive_index" >
   <v type="int" >        1 </v>
   <v type="int" >        2 </v>
   <v type="int" >        3 </v>
   <v type="int" >        4 </v>
   <v type="int" >        5 </v>
   <v type="int" >        6 </v>
   <v type="int" >        7 </v>
   <v type="int" >        8 </v>
   <v type="int" >        9 </v>
   <v type="int" >       10 </v>
   <v type="int" >       11 </v>
   <v type="int" >       12 </v>
   <v type="int" >       13 </v>
   <v type="int" >       14 </v>
   <v type="int" >       15 </v>
   <v type="int" >       16 </v>
   <v type="int" >       17 </v>
   <v type="int" >       18 </v>
   <v type="int" >       19 </v>
   <v type="int" >       20 </v>
   <v type="int" >       21 </v>
   <v type="int" >       22 </v>
   <v type="int" >       23 </v>
   <v type="int" >       24 </v>
   <v type="int" >       25 </v>
   <v type="int" >       26 </v>
   <v type="int" >       27 </v>
   <v type="int" >       28 </v>
   <v type="int" >       29 </v>
   <v type="int" >       30 </v>
   <v type="int" >       31 </v>
   <v type="int" >       32 </v>
   <v type="int" >       33 </v>
   <v type="int" >       34 </v>
   <v type="int" >       35 </v>
   <v type="int" >       36 </v>
   <v type="int" >       37 </v>
   <v type="int" >       38 </v>
   <v type="int" >       39 </v>
   <v type="int" >       40 </v>
   <v type="int" >       41 </v>
   <v type="int" >       42 </v>
   <v type="int" >       43 </v>
   <v type="int" >       44 </v>
   <v type="int" >       45 </v>
   <v type="int" >       46 </v>
   <v type="int" >       47 </v>
   <v type="int" >       48 </v>
   <v type="int" >       49 </v>
   <v type="int" >       50 </v>
   <v type="int" >       51 </v>
   <v type="int" >       52 </v>
   <v type="int" >       53 </v>
   <v type="int" >       54 </v>
   <v type="int" >       55 </v>
   <v type="int" >       56 </v>
   <v type="int" >       57 </v>
   <v type="int" >       58 </v>
   <v type="int" >       59 </v>
   <v type="int" >       60 </v>
   <v type="int" >       61 </v>
   <v type="int" >       62 </v>
   <v type="int" >       63 </v>
   <v type="int" >       64 </v>
   <v type="int" >       65 </v>
   <v type="int" >       66 </v>
   <v type="int" >       67 </v>
   <v type="int" >       68 </v>
   <v type="int" >       69 </v>
   <v type="int" >       70 </v>
   <v type="int" >       71 </v>
   <v type="int" >       72 </v>
   <v type="int" >       73 </v>
   <v type="int" >       74 </v>
   <v type="int" >       75 </v>
   <v type="int" >       76 </v>
   <v type="int" >       77 </v>
   <v type="int" >       78 </v>
   <v type="int" >       79 </v>
   <v type="int" >       80 </v>
   <v type="int" >       81 </v>
   <v type="int" >       82 </v>
   <v type="int" >       83 </v>
   <v type="int" >       84 </v>
   <v type="int" >       85 </v>
   <v type="int" >       86 </v>
   <v type="int" >       87 </v>
   <v type="int" >       88 </v>
   <v type="int" >       89 </v>
   <v type="int" >       90 </v>
   <v type="int" >       91 </v>
   <v type="int" >       92 </v>
   <v type="int" >       93 </v>
   <v type="int" >       94 </v>
   <v type="int" >       95 </v>
   <v type="int" >       96 </v>
   <v type="int" >       97 </v>
   <v type="int" >       98 </v>
   <v type="int" >       99 </v>
   <v type="int" >      100 </v>
   <v type="int" >      101 </v>
   <v type="int" >      102 </v>
   <v type="int" >      103 </v>
   <v type="int" >      104 </v>
   <v type="int" >      105 </v>
   <v type="int" >      106 </v>
   <v type="int" >      107 </v>
   <v type="int" >      108 </v>
   <v type="int" >      109 </v>
   <v type="int" >      110 </v>
   <v type="int" >      111 </v>
   <v type="int" >      112 </v>
   <v type="int" >      113 </v>
   <v type="int" >      114 </v>
   <v type="int" >      115 </v>
   <v type="int" >      116 </v>
   <v type="int" >      117 </v>
   <v type="int" >      118 </v>
   <v type="int" >      119 </v>
   <v type="int" >      120 </v>
   <v type="int" >      121 </v>
   <v type="int" >      122 </v>
   <v type="int" >      123 </v>
   <v type="int" >      124 </v>
   <v type="int" >      125 </v>
   <v type="int" >      126 </v>
   <v type="int" >      127 </v>
   <v type="int" >      128 </v>
   <v type="int" >      129 </v>
   <v type="int" >      130 </v>
   <v type="int" >      131 </v>
   <v type="int" >      132 </v>
   <v type="int" >      133 </v>
   <v type="int" >      134 </v>
   <v type="int" >      135 </v>
   <v type="int" >      136 </v>
   <v type="int" >      137 </v>
   <v type="int" >      138 </v>
   <v type="int" >      139 </v>
   <v type="int" >      140 </v>
   <v type="int" >      141 </v>
   <v type="int" >      142 </v>
   <v type="int" >      143 </v>
   <v type="int" >      144 </v>
   <v type="int" >      145 </v>
   <v type="int" >      146 </v>
   <v type="int" >      147 </v>
   <v type="int" >      148 </v>
   <v type="int" >      149 </v>
   <v type="int" >      150 </v>
   <v type="int" >      151 </v>
   <v type="int" >      152 </v>
   <v type="int" >      153 </v>
   <v type="int" >      154 </v>
   <v type="int" >      155 </v>
   <v type="int" >      156 </v>
   <v type="int" >      157 </v>
   <v type="int" >      158 </v>
   <v type="int" >      159 </v>
   <v type="int" >      160 </v>
   <v type="int" >      161 </v>
   <v type="int" >      162 </v>
   <v type="int" >      163 </v>
   <v type="int" >      164 </v>
   <v type="int" >      165 </v>
   <v type="int" >      166 </v>
   <v type="int" >      167 </v>
   <v type="int" >      168 </v>
   <v type="int" >      169 </v>
   <v type="int" >      170 </v>
   <v type="int" >      171 </v>
   <v type="int" >      172 </v>
   <v type="int" >      173 </v>
   <v type="int" >      174 </v>
   <v type="int" >      175 </v>
   <v type="int" >      176 </v>
   <v type="int" >      177 </v>
   <v type="int" >      178 </v>
   <v type="int" >      179 </v>
   <v type="int" >      180 </v>
   <v type="int" >      181 </v>
   <v type="int" >      182 </v>
   <v type="int" >      183 </v>
   <v type="int" >      184 </v>
   <v type="int" >      185 </v>
   <v type="int" >      186 </v>
   <v type="int" >      187 </v>
   <v type="int" >      188 </v>
   <v type="int" >      189 </v>
   <v type="int" >      190 </v>
   <v type="int" >      191 </v>
   <v type="int" >      192 </v>
   <v type="int" >      193 </v>
   <v type="int" >      194 </v>
   <v type="int" >      195 </v>
   <v type="int" >      196 </v>
   <v type="int" >      197 </v>
   <v type="int" >      198 </v>
   <v type="int" >      199 </v>
   <v type="int" >      200 </v>
   <v type="int" >      201 </v>
   <v type="int" >      202 </v>
   <v type="int" >      203 </v>
   <v type="int" >      204 </v>
   <v type="int" >      205 </v>
   <v type="int" >      206 </v>
   <v type="int" >      207 </v>
   <v type="int" >      208 </v>
   <v type="int" >      209 </v>
   <v type="int" >      210 </v>
   <v type="int" >      211 </v>
   <v type="int" >      212 </v>
   <v type="int" >      213 </v>
   <v type="int" >      214 </v>
   <v type="int" >      215 </v>
   <v type="int" >      216 </v>
   <v type="int" >      217 </v>
   <v type="int" >      218 </v>
   <v type="int" >      219 </v>
   <v type="int" >      220 </v>
   <v type="int" >      221 </v>
   <v type="int" >      222 </v>
   <v type="int" >      223 </v>
   <v type="int" >      224 </v>
   <v type="int" >      225 </v>
   <v type="int" >      226 </v>
   <v type="int" >      227 </v>
   <v type="int" >      228 </v>
   <v type="int" >      229 </v>
   <v type="int" >      230 </v>
   <v type="int" >      231 </v>
   <v type="int" >      232 </v>
   <v type="int" >      233 </v>
   <v type="int" >      234 </v>
   <v type="int" >      235 </v>
   <v type="int" >      236 </v>
   <v type="int" >      237 </v>
   <v type="int" >      238 </v>
   <v type="int" >      239 </v>
   <v type="int" >      240 </v>
   <v type="int" >      241 </v>
   <v type="int" >      242 </v>
   <v type="int" >      243 </v>
   <v type="int" >      244 </v>
   <v type="int" >      245 </v>
   <v type="int" >      246 </v>
   <v type="int" >      247 </v>
   <v type="int" >      248 </v>
   <v type="int" >      249 </v>
   <v type="int" >      250 </v>
   <v type="int" >      251 </v>
   <v type="int" >      252 </v>
   <v type="int" >      253 </v>
   <v type="int" >      254 </v>
   <v type="int" >      255 </v>
   <v type="int" >      256 </v>
   <v type="int" >      257 </v>
   <v type="int" >      258 </v>
   <v type="int" >      259 </v>
   <v type="int" >      260 </v>
   <v type="int" >      261 </v>
   <v type="int" >      262 </v>
   <v type="int" >      263 </v>
   <v type="int" >      264 </v>
   <v type="int" >      265 </v>
   <v type="int" >      266 </v>
   <v type="int" >      267 </v>
   <v type="int" >      268 </v>
   <v type="int" >      269 </v>
   <v type="int" >      270 </v>
   <v type="int" >      271 </v>
   <v type="int" >      272 </v>
   <v type="int" >      273 </v>
   <v type="int" >      274 </v>
   <v type="int" >      275 </v>
   <v type="int" >      276 </v>
   <v type="int" >      277 </v>
   <v type="int" >      278 </v>
   <v type="int" >      279 </v>
   <v type="int" >      280 </v>
   <v type="int" >      281 </v>
   <v type="int" >      282 </v>
   <v type="int" >      283 </v>
   <v type="int" >      284 </v>
   <v type="int" >      285 </v>
   <v type="int" >      286 </v>
   <v type="int" >      287 </v>
   <v type="int" >      288 </v>
   <v type="int" >      289 </v>
   <v type="int" >      290 </v>
   <v type="int" >      291 </v>
   <v type="int" >      292 </v>
   <v type="int" >      293 </v>
   <v type="int" >      294 </v>
   <v type="int" >      295 </v>
   <v type="int" >      296 </v>
   <v type="int" >      297 </v>
   <v type="int" >      298 </v>
   <v type="int" >      299 </v>
   <v type="int" >      300 </v>
   <v type="int" >      301 </v>
   <v type="int" >      302 </v>
   <v type="int" >      303 </v>
   <v type="int" >      304 </v>
   <v type="int" >      305 </v>
   <v type="int" >      306 </v>
   <v type="int" >      307 </v>
   <v type="int" >      308 </v>
   <v type="int" >      309 </v>
   <v type="int" >      310 </v>
   <v type="int" >      311 </v>
   <v type="int" >      312 </v>
   <v type="int" >      313 </v>
   <v type="int" >      314 </v>
   <v type="int" >      315 </v>
   <v type="int" >      316 </v>
   <v type="int" >      317 </v>
   <v type="int" >      318 </v>
   <v type="int" >      319 </v>
   <v type="int" >      320 </v>
   <v type="int" >      321 </v>
   <v type="int" >      322 </v>
   <v type="int" >      323 </v>
   <v type="int" >      324 </v>
   <v type="int" >      325 </v>
  </varray>
 </primitive_cell>
 <kpoints>
  <generation param="Gamma">
   <v type="int" name="divisions">       3        3        1 </v>
   <v name="usershift">      0.00000000       0.00000000       0.00000000 </v>
   <v name="genvec1">      0.33333333       0.00000000       0.00000000 </v>
   <v name="genvec2">      0.00000000       0.33333333       0.00000000 </v>
   <v name="genvec3">      0.00000000       0.00000000       1.00000000 </v>
   <v name="shift">      0.00000000       0.00000000       0.00000000 </v>
  </generation>
  <varray name="kpointlist" >
   <v>       0.00000000       0.00000000       0.00000000 </v>
   <v>       0.33333333       0.00000000       0.00000000 </v>
   <v>       0.00000000       0.33333333       0.00000000 </v>
   <v>       0.33333333       0.33333333       0.00000000 </v>
   <v>      -0.33333333       0.33333333       0.00000000 </v>
  </varray>
  <varray name="weights" >
   <v>       0.11111111 </v>
   <v>       0.22222222 </v>
   <v>       0.22222222 </v>
   <v>       0.22222222 </v>
   <v>       0.22222222 </v>
  </varray>
 </kpoints>
 <parameters>
  <separator name="general" >
   <i type="string" name="SYSTEM">PSC</i>
   <i type="logical" name="LCOMPAT"> F  </i>
  </separator>
  <separator name="electronic" >
   <i type="string" name="PREC">normal</i>
   <i name="ENMAX">    500.00000000</i>
   <i name="ENAUG">    644.87300000</i>
   <i name="EDIFF">      0.00010000</i>
   <i type="int" name="IALGO">    38</i>
   <i type="int" name="IWAVPR">    10</i>
   <i type="int" name="NBANDS">   732</i>
   <i type="int" name="NBANDSLOW">    -1</i>
   <i type="int" name="NBANDSHIGH">    -1</i>
   <i name="NELECT">   1134.00000000</i>
   <i type="int" name="TURBO">     0</i>
   <i type="int" name="IRESTART">     0</i>
   <i type="int" name="NREBOOT">     0</i>
   <i type="int" name="NMIN">     0</i>
   <i name="EREF">      0.00000000</i>
   <separator name="electronic smearing" >
    <i type="int" name="ISMEAR">     0</i>
    <i name="SIGMA">      0.05000000</i>
    <i name="KSPACING">      0.50000000</i>
    <i type="logical" name="KGAMMA"> T  </i>
    <i type="logical" name="KBLOWUP"> T  </i>
   </separator>
   <separator name="electronic projectors" >
    <i type="logical" name="LREAL"> T  </i>
    <v name="ROPT">     -0.00050000     -0.00050000     -0.00050000     -0.00050000     -0.00050000</v>
    <i type="int" name="LMAXPAW">  -100</i>
    <i type="int" name="LMAXMIX">     2</i>
    <i type="logical" name="NLSPLINE"> F  </i>
   </separator>
   <separator name="electronic startup" >
    <i type="int" name="ISTART">     0</i>
    <i type="int" name="ICHARG">     1</i>
    <i type="int" name="INIWAV">     1</i>
   </separator>
   <separator name="electronic spin" >
    <i type="int" name="ISPIN">     1</i>
    <i type="logical" name="LNONCOLLINEAR"> F  </i>
    <v name="MAGMOM">      1.00000000      1.00000000      1.00000000      1.00000000      1.00000000      1.00000000      1.00000000      1.00000000      1.00000000      1.00000000      1.00000000      1.00000000      1.00000000      1.00000000      1.00000000      1.00000000      1.00000000      1.00000000      1.00000000      1.00000000
      1.00000000      1.00000000      1.00000000      1.00000000      1.00000000      1.00000000      1.00000000      1.00000000      1.00000000      1.00000000      1.00000000      1.00000000      1.00000000      1.00000000      1.00000000      1.00000000      1.00000000      1.00000000      1.00000000      1.00000000
      1.00000000      1.00000000      1.00000000      1.00000000      1.00000000      1.00000000      1.00000000      1.00000000      1.00000000      1.00000000      1.00000000      1.00000000      1.00000000      1.00000000      1.00000000      1.00000000      1.00000000      1.00000000      1.00000000      1.00000000
      1.00000000      1.00000000      1.00000000      1.00000000      1.00000000      1.00000000      1.00000000      1.00000000      1.00000000      1.00000000      1.00000000      1.00000000      1.00000000      1.00000000      1.00000000      1.00000000      1.00000000      1.00000000      1.00000000      1.00000000
      1.00000000      1.00000000      1.00000000      1.00000000      1.00000000      1.00000000      1.00000000      1.00000000      1.00000000      1.00000000      1.00000000      1.00000000      1.00000000      1.00000000      1.00000000      1.00000000      1.00000000      1.00000000      1.00000000      1.00000000
      1.00000000      1.00000000      1.00000000      1.00000000      1.00000000      1.00000000      1.00000000      1.00000000      1.00000000      1.00000000      1.00000000      1.00000000      1.00000000      1.00000000      1.00000000      1.00000000      1.00000000      1.00000000      1.00000000      1.00000000
      1.00000000      1.00000000      1.00000000      1.00000000      1.00000000      1.00000000      1.00000000      1.00000000      1.00000000      1.00000000      1.00000000      1.00000000      1.00000000      1.00000000      1.00000000      1.00000000      1.00000000      1.00000000      1.00000000      1.00000000
      1.00000000      1.00000000      1.00000000      1.00000000      1.00000000      1.00000000      1.00000000      1.00000000      1.00000000      1.00000000      1.00000000      1.00000000      1.00000000      1.00000000      1.00000000      1.00000000      1.00000000      1.00000000      1.00000000      1.00000000
      1.00000000      1.00000000      1.00000000      1.00000000      1.00000000      1.00000000      1.00000000      1.00000000      1.00000000      1.00000000      1.00000000      1.00000000      1.00000000      1.00000000      1.00000000      1.00000000      1.00000000      1.00000000      1.00000000      1.00000000
      1.00000000      1.00000000      1.00000000      1.00000000      1.00000000      1.00000000      1.00000000      1.00000000      1.00000000      1.00000000      1.00000000      1.00000000      1.00000000      1.00000000      1.00000000      1.00000000      1.00000000      1.00000000      1.00000000      1.00000000
      1.00000000      1.00000000      1.00000000      1.00000000      1.00000000      1.00000000      1.00000000      1.00000000      1.00000000      1.00000000      1.00000000      1.00000000      1.00000000      1.00000000      1.00000000      1.00000000      1.00000000      1.00000000      1.00000000      1.00000000
      1.00000000      1.00000000      1.00000000      1.00000000      1.00000000      1.00000000      1.00000000      1.00000000      1.00000000      1.00000000      1.00000000      1.00000000      1.00000000      1.00000000      1.00000000      1.00000000      1.00000000      1.00000000      1.00000000      1.00000000
      1.00000000      1.00000000      1.00000000      1.00000000      1.00000000      1.00000000      1.00000000      1.00000000      1.00000000      1.00000000      1.00000000      1.00000000      1.00000000      1.00000000      1.00000000      1.00000000      1.00000000      1.00000000      1.00000000      1.00000000
      1.00000000      1.00000000      1.00000000      1.00000000      1.00000000      1.00000000      1.00000000      1.00000000      1.00000000      1.00000000      1.00000000      1.00000000      1.00000000      1.00000000      1.00000000      1.00000000      1.00000000      1.00000000      1.00000000      1.00000000
      1.00000000      1.00000000      1.00000000      1.00000000      1.00000000      1.00000000      1.00000000      1.00000000      1.00000000      1.00000000      1.00000000      1.00000000      1.00000000      1.00000000      1.00000000      1.00000000      1.00000000      1.00000000      1.00000000      1.00000000
      1.00000000      1.00000000      1.00000000      1.00000000      1.00000000      1.00000000      1.00000000      1.00000000      1.00000000      1.00000000      1.00000000      1.00000000      1.00000000      1.00000000      1.00000000      1.00000000      1.00000000      1.00000000      1.00000000      1.00000000
      1.00000000      1.00000000      1.00000000      1.00000000      1.00000000</v>
    <i name="NUPDOWN">     -1.00000000</i>
    <i type="logical" name="LSORBIT"> F  </i>
    <v name="SAXIS">      0.00000000      0.00000000      1.00000000</v>
    <i type="logical" name="LSPIRAL"> F  </i>
    <v name="QSPIRAL">      0.00000000      0.00000000      0.00000000</v>
    <i type="logical" name="LZEROZ"> F  </i>
   </separator>
   <separator name="electronic exchange-correlation" >
    <i type="logical" name="LASPH"> F  </i>
    <i type="logical" name="LMETAGGA"> F  </i>
   </separator>
   <separator name="electronic convergence" >
    <i type="int" name="NELM">   600</i>
    <i type="int" name="NELMDL">     0</i>
    <i type="int" name="NELMIN">     2</i>
    <i name="ENINI">    500.00000000</i>
    <separator name="electronic convergence detail" >
     <i type="logical" name="LDIAG"> T  </i>
     <i type="logical" name="LSUBROT"> F  </i>
     <i name="WEIMIN">      0.00000000</i>
     <i name="EBREAK">      0.00000003</i>
     <i name="DEPER">      0.30000000</i>
     <i type="int" name="NRMM">     4</i>
     <i name="TIME">      0.40000000</i>
    </separator>
   </separator>
   <separator name="electronic mixer" >
    <i name="AMIX">      0.40000000</i>
    <i name="BMIX">      0.01000000</i>
    <i name="AMIN">      0.01000000</i>
    <i name="AMIX_MAG">      1.60000000</i>
    <i name="BMIX_MAG">      0.01000000</i>
    <separator name="electronic mixer details" >
     <i type="int" name="IMIX">     4</i>
     <i type="logical" name="MIXFIRST"> F  </i>
     <i type="int" name="MAXMIX">   -45</i>
     <i name="WC">    100.00000000</i>
     <i type="int" name="INIMIX">     1</i>
     <i type="int" name="MIXPRE">     1</i>
     <i type="int" name="MREMOVE">     5</i>
    </separator>
   </separator>
   <separator name="electronic dipolcorrection" >
    <i type="logical" name="LDIPOL"> T  </i>
    <i type="logical" name="LMONO"> F  </i>
    <i type="int" name="IDIPOL">     3</i>
    <i name="EPSILON">      1.00000000</i>
    <v name="DIPOL">   -100.00000000   -100.00000000   -100.00000000</v>
    <i name="EFIELD">      0.00000000</i>
   </separator>
  </separator>
  <separator name="grids" >
   <i type="int" name="NGX">   100</i>
   <i type="int" name="NGY">   100</i>
   <i type="int" name="NGZ">   350</i>
   <i type="int" name="NGXF">   200</i>
   <i type="int" name="NGYF">   200</i>
   <i type="int" name="NGZF">   700</i>
   <i type="logical" name="ADDGRID"> F  </i>
  </separator>
  <separator name="ionic" >
   <i type="int" name="NSW">     0</i>
   <i type="int" name="IBRION">    -1</i>
   <i type="int" name="MDALGO">     0</i>
   <i type="int" name="ISIF">     2</i>
   <i name="PSTRESS">      0.00000000</i>
   <i name="EDIFFG">      0.00100000</i>
   <i type="int" name="NFREE">     0</i>
   <i name="POTIM">      0.50000000</i>
   <i name="SMASS">     -3.00000000</i>
   <i name="SCALEE">      1.00000000</i>
  </separator>
  <separator name="ionic md" >
   <i name="TEBEG">      0.00010000</i>
   <i name="TEEND">      0.00010000</i>
   <i type="int" name="NBLOCK">     1</i>
   <i type="int" name="KBLOCK">     1</i>
   <i type="int" name="NPACO">   256</i>
   <i name="APACO">     16.00000000</i>
  </separator>
  <separator name="symmetry" >
   <i type="int" name="ISYM">     0</i>
   <i name="SYMPREC">      0.00001000</i>
  </separator>
  <separator name="dos" >
   <i type="int" name="LORBIT">     0</i>
   <v name="RWIGS">     -1.00000000     -1.00000000     -1.00000000     -1.00000000     -1.00000000</v>
   <i type="int" name="NEDOS">   301</i>
   <i name="EMIN">     10.00000000</i>
   <i name="EMAX">    -10.00000000</i>
   <i name="EFERMI">      0.00000000</i>
  </separator>
  <separator name="writing" >
   <i type="int" name="NWRITE">     2</i>
   <i type="logical" name="LWAVE"> F  </i>
   <i type="logical" name="LDOWNSAMPLE"> F  </i>
   <i type="logical" name="LCHARG"> T  </i>
   <i type="logical" name="LPARD"> F  </i>
   <i type="logical" name="LVTOT"> T  </i>
   <i type="logical" name="LVHAR"> F  </i>
   <i type="logical" name="LELF"> F  </i>
   <i type="logical" name="LOPTICS"> F  </i>
   <v name="STM">      0.00000000      0.00000000      0.00000000      0.00000000      0.00000000      0.00000000      0.00000000</v>
  </separator>
  <separator name="performance" >
   <i type="int" name="NPAR">     4</i>
   <i type="int" name="NSIM">     4</i>
   <i type="int" name="NBLK">    -1</i>
   <i type="logical" name="LPLANE"> T  </i>
   <i type="logical" name="LSCALAPACK"> T  </i>
   <i type="logical" name="LSCAAWARE"> F  </i>
   <i type="logical" name="LSCALU"> F  </i>
   <i type="logical" name="LASYNC"> F  </i>
   <i type="logical" name="LORBITALREAL"> F  </i>
  </separator>
  <separator name="miscellaneous" >
   <i type="int" name="IDIOT">     3</i>
   <i type="int" name="PHON_NSTRUCT">    -1</i>
   <i type="logical" name="LMUSIC"> F  </i>
   <v name="POMASS">      1.00000000     12.01100000     14.00100000    126.90400000    207.20000000</v>
   <v name="DARWINR">      0.00000000      0.00000000      0.00000000      0.00000000      0.00000000</v>
   <v name="DARWINV">      1.00000000      1.00000000      1.00000000      1.00000000      1.00000000</v>
   <i type="logical" name="LCORR"> T  </i>
  </separator>
  <i type="logical" name="GGA_COMPAT"> F  </i>
  <i type="logical" name="LBERRY"> F  </i>
  <i type="int" name="ICORELEVEL">     0</i>
  <i type="logical" name="LDAU"> F  </i>
  <i type="int" name="I_CONSTRAINED_M">     0</i>
  <separator name="electronic exchange-correlation" >
   <i type="string" name="GGA">--</i>
   <i type="int" name="VOSKOWN">     0</i>
   <i type="logical" name="LHFCALC"> F  </i>
   <i type="string" name="PRECFOCK"></i>
   <i type="logical" name="LSYMGRAD"> F  </i>
   <i type="logical" name="LHFONE"> F  </i>
   <i type="logical" name="LRHFCALC"> F  </i>
   <i type="logical" name="LTHOMAS"> F  </i>
   <i type="logical" name="LMODELHF"> F  </i>
   <i type="logical" name="LFOCKACE"> F  </i>
   <i name="ENCUT4O">     -1.00000000</i>
   <i type="int" name="EXXOEP">     0</i>
   <i type="int" name="FOURORBIT">     0</i>
   <i name="AEXX">      0.00000000</i>
   <i name="HFALPHA">      0.00000000</i>
   <i name="MCALPHA">      0.00000000</i>
   <i name="ALDAX">      1.00000000</i>
   <i name="AGGAX">      1.00000000</i>
   <i name="ALDAC">      1.00000000</i>
   <i name="AGGAC">      1.00000000</i>
   <i type="int" name="NKREDX">     1</i>
   <i type="int" name="NKREDY">     1</i>
   <i type="int" name="NKREDZ">     1</i>
   <i type="logical" name="SHIFTRED"> F  </i>
   <i type="logical" name="ODDONLY"> F  </i>
   <i type="logical" name="EVENONLY"> F  </i>
   <i type="int" name="LMAXFOCK">     0</i>
   <i type="int" name="NMAXFOCKAE">     0</i>
   <i type="logical" name="LFOCKAEDFT"> F  </i>
   <i name="HFSCREEN">      0.00000000</i>
   <i name="HFSCREENC">      0.00000000</i>
   <i type="int" name="NBANDSGWLOW">     0</i>
  </separator>
  <separator name="vdW DFT" >
   <i type="logical" name="LUSE_VDW"> F  </i>
   <i name="Zab_VDW">     -0.84910000</i>
   <i name="PARAM1">      0.12340000</i>
   <i name="PARAM2">      1.00000000</i>
   <i name="PARAM3">      0.00000000</i>
  </separator>
  <separator name="model GW" >
   <i type="int" name="MODEL_GW">     0</i>
   <i name="MODEL_EPS0">     37.63423484</i>
   <i name="MODEL_ALPHA">      1.00000000</i>
  </separator>
  <separator name="linear response parameters" >
   <i type="logical" name="LEPSILON"> F  </i>
   <i type="logical" name="LRPA"> F  </i>
   <i type="logical" name="LNABLA"> F  </i>
   <i type="logical" name="LVEL"> F  </i>
   <i type="int" name="KINTER">     0</i>
   <i name="CSHIFT">      0.10000000</i>
   <i name="OMEGAMAX">     -1.00000000</i>
   <i name="DEG_THRESHOLD">      0.00200000</i>
   <i name="RTIME">     -0.10000000</i>
   <i name="WPLASMAI">      0.00000000</i>
   <v name="DFIELD">      0.00000000      0.00000000      0.00000000</v>
   <v name="WPLASMA">      0.00000000      0.00000000      0.00000000      0.00000000      0.00000000      0.00000000      0.00000000      0.00000000      0.00000000</v>
  </separator>
  <separator name="orbital magnetization" >
   <i type="logical" name="NUCIND"> F  </i>
   <v name="MAGPOS">      0.00000000      0.00000000      0.00000000</v>
   <i type="logical" name="LNICSALL"> T  </i>
   <i type="logical" name="ORBITALMAG"> F  </i>
   <i type="logical" name="LMAGBLOCH"> F  </i>
   <i type="logical" name="LCHIMAG"> F  </i>
   <i type="logical" name="LGAUGE"> T  </i>
   <i type="int" name="MAGATOM">     0</i>
   <v name="MAGDIPOL">      0.00000000      0.00000000      0.00000000</v>
   <v name="AVECCONST">      0.00000000      0.00000000      0.00000000</v>
  </separator>
  <separator name="response functions" >
   <i type="logical" name="LFINITE_TEMPERATURE"> F  </i>
   <i type="logical" name="LADDER"> F  </i>
   <i type="logical" name="LRPAFORCE"> F  </i>
   <i type="logical" name="LFXC"> F  </i>
   <i type="logical" name="LHARTREE"> T  </i>
   <i type="int" name="IBSE">     0</i>
   <v type="int" name="KPOINT">    -1     0     0     0</v>
   <i type="logical" name="LTCTC"> F  </i>
   <i type="logical" name="LTCTE"> F  </i>
   <i type="logical" name="LTETE"> F  </i>
   <i type="logical" name="LTRIPLET"> F  </i>
   <i type="logical" name="LFXCEPS"> F  </i>
   <i type="logical" name="LFXHEG"> F  </i>
   <i type="int" name="NATURALO">     2</i>
   <i type="logical" name="LHOLEGF"> F  </i>
   <i type="logical" name="L2ORDER"> F  </i>
   <i type="logical" name="LDMP1"> F  </i>
   <i type="logical" name="LMP2LT"> F  </i>
   <i type="logical" name="LSMP2LT"> F  </i>
   <i type="logical" name="LGWLF"> F  </i>
   <i name="ENCUTGW">     -2.00000000</i>
   <i name="ENCUTGWSOFT">     -2.00000000</i>
   <i name="ENCUTLF">     -1.00000000</i>
   <i type="logical" name="LESF_SPLINES"> F  </i>
   <i type="int" name="LMAXMP2">    -1</i>
   <i name="SCISSOR">      0.00000000</i>
   <i type="int" name="NOMEGA">     0</i>
   <i type="int" name="NOMEGAR">     0</i>
   <i type="int" name="NBANDSGW">    -1</i>
   <i type="int" name="NBANDSO">    -1</i>
   <i type="int" name="NBANDSV">    -1</i>
   <i type="int" name="NELM">   600</i>
   <i type="int" name="NELMHF">     1</i>
   <i type="int" name="DIM">     3</i>
   <i type="int" name="IESPILON">     4</i>
   <i type="int" name="ANTIRES">     0</i>
   <i name="OMEGAMAX">    -30.00000000</i>
   <i name="OMEGAMIN">    -30.00000000</i>
   <i name="OMEGATL">   -200.00000000</i>
   <i type="int" name="OMEGAGRID">     0</i>
   <i name="CSHIFT">     -0.10000000</i>
   <i type="logical" name="LSELFENERGY"> F  </i>
   <i type="logical" name="LSPECTRAL"> F  </i>
   <i type="logical" name="LSPECTRALGW"> F  </i>
   <i type="logical" name="LSINGLES"> F  </i>
   <i type="logical" name="LFERMIGW"> F  </i>
   <i type="logical" name="ODDONLYGW"> F  </i>
   <i type="logical" name="EVENONLYGW"> F  </i>
   <i type="int" name="NKREDLFX">     1</i>
   <i type="int" name="NKREDLFY">     1</i>
   <i type="int" name="NKREDLFZ">     1</i>
   <i type="int" name="MAXMEM">  2800</i>
   <i type="int" name="TELESCOPE">     0</i>
   <i type="int" name="NTAUPAR">    -1</i>
   <i type="int" name="NOMEGAPAR">    -1</i>
   <i name="DAMP_NEWTON">      0.80000001</i>
   <i name="LAMBDA">      1.00000000</i>
  </separator>
  <separator name="External order field" >
   <i name="OFIELD_KAPPA">      0.00000000</i>
   <v name="OFIELD_K">      0.00000000      0.00000000      0.00000000</v>
   <i name="OFIELD_Q6_NEAR">      0.00000000</i>
   <i name="OFIELD_Q6_FAR">      0.00000000</i>
   <i name="OFIELD_A">      0.00000000</i>
  </separator>
 </parameters>
 <atominfo>
  <atoms>     325 </atoms>
  <types>       5 </types>
  <array name="atoms" >
   <dimension dim="1">ion</dimension>
   <field type="string">element</field>
   <field type="int">atomtype</field>
   <set>
    <rc><c>H </c><c>   1</c></rc>
    <rc><c>H </c><c>   1</c></rc>
    <rc><c>H </c><c>   1</c></rc>
    <rc><c>H </c><c>   1</c></rc>
    <rc><c>H </c><c>   1</c></rc>
    <rc><c>H </c><c>   1</c></rc>
    <rc><c>H </c><c>   1</c></rc>
    <rc><c>H </c><c>   1</c></rc>
    <rc><c>H </c><c>   1</c></rc>
    <rc><c>H </c><c>   1</c></rc>
    <rc><c>H </c><c>   1</c></rc>
    <rc><c>H </c><c>   1</c></rc>
    <rc><c>H </c><c>   1</c></rc>
    <rc><c>H </c><c>   1</c></rc>
    <rc><c>H </c><c>   1</c></rc>
    <rc><c>H </c><c>   1</c></rc>
    <rc><c>H </c><c>   1</c></rc>
    <rc><c>H </c><c>   1</c></rc>
    <rc><c>H </c><c>   1</c></rc>
    <rc><c>H </c><c>   1</c></rc>
    <rc><c>H </c><c>   1</c></rc>
    <rc><c>H </c><c>   1</c></rc>
    <rc><c>H </c><c>   1</c></rc>
    <rc><c>H </c><c>   1</c></rc>
    <rc><c>H </c><c>   1</c></rc>
    <rc><c>H </c><c>   1</c></rc>
    <rc><c>H </c><c>   1</c></rc>
    <rc><c>H </c><c>   1</c></rc>
    <rc><c>H </c><c>   1</c></rc>
    <rc><c>H </c><c>   1</c></rc>
    <rc><c>H </c><c>   1</c></rc>
    <rc><c>H </c><c>   1</c></rc>
    <rc><c>H </c><c>   1</c></rc>
    <rc><c>H </c><c>   1</c></rc>
    <rc><c>H </c><c>   1</c></rc>
    <rc><c>H </c><c>   1</c></rc>
    <rc><c>H </c><c>   1</c></rc>
    <rc><c>H </c><c>   1</c></rc>
    <rc><c>H </c><c>   1</c></rc>
    <rc><c>H </c><c>   1</c></rc>
    <rc><c>H </c><c>   1</c></rc>
    <rc><c>H </c><c>   1</c></rc>
    <rc><c>H </c><c>   1</c></rc>
    <rc><c>H </c><c>   1</c></rc>
    <rc><c>H </c><c>   1</c></rc>
    <rc><c>H </c><c>   1</c></rc>
    <rc><c>H </c><c>   1</c></rc>
    <rc><c>H </c><c>   1</c></rc>
    <rc><c>H </c><c>   1</c></rc>
    <rc><c>H </c><c>   1</c></rc>
    <rc><c>H </c><c>   1</c></rc>
    <rc><c>H </c><c>   1</c></rc>
    <rc><c>H </c><c>   1</c></rc>
    <rc><c>H </c><c>   1</c></rc>
    <rc><c>H </c><c>   1</c></rc>
    <rc><c>H </c><c>   1</c></rc>
    <rc><c>H </c><c>   1</c></rc>
    <rc><c>H </c><c>   1</c></rc>
    <rc><c>H </c><c>   1</c></rc>
    <rc><c>H </c><c>   1</c></rc>
    <rc><c>H </c><c>   1</c></rc>
    <rc><c>H </c><c>   1</c></rc>
    <rc><c>H </c><c>   1</c></rc>
    <rc><c>H </c><c>   1</c></rc>
    <rc><c>H </c><c>   1</c></rc>
    <rc><c>H </c><c>   1</c></rc>
    <rc><c>H </c><c>   1</c></rc>
    <rc><c>H </c><c>   1</c></rc>
    <rc><c>H </c><c>   1</c></rc>
    <rc><c>H </c><c>   1</c></rc>
    <rc><c>H </c><c>   1</c></rc>
    <rc><c>H </c><c>   1</c></rc>
    <rc><c>H </c><c>   1</c></rc>
    <rc><c>H </c><c>   1</c></rc>
    <rc><c>H </c><c>   1</c></rc>
    <rc><c>H </c><c>   1</c></rc>
    <rc><c>H </c><c>   1</c></rc>
    <rc><c>H </c><c>   1</c></rc>
    <rc><c>H </c><c>   1</c></rc>
    <rc><c>H </c><c>   1</c></rc>
    <rc><c>H </c><c>   1</c></rc>
    <rc><c>H </c><c>   1</c></rc>
    <rc><c>H </c><c>   1</c></rc>
    <rc><c>H </c><c>   1</c></rc>
    <rc><c>H </c><c>   1</c></rc>
    <rc><c>H </c><c>   1</c></rc>
    <rc><c>H </c><c>   1</c></rc>
    <rc><c>H </c><c>   1</c></rc>
    <rc><c>H </c><c>   1</c></rc>
    <rc><c>H </c><c>   1</c></rc>
    <rc><c>H </c><c>   1</c></rc>
    <rc><c>H </c><c>   1</c></rc>
    <rc><c>H </c><c>   1</c></rc>
    <rc><c>H </c><c>   1</c></rc>
    <rc><c>H </c><c>   1</c></rc>
    <rc><c>H </c><c>   1</c></rc>
    <rc><c>H </c><c>   1</c></rc>
    <rc><c>H </c><c>   1</c></rc>
    <rc><c>H </c><c>   1</c></rc>
    <rc><c>H </c><c>   1</c></rc>
    <rc><c>H </c><c>   1</c></rc>
    <rc><c>H </c><c>   1</c></rc>
    <rc><c>H </c><c>   1</c></rc>
    <rc><c>H </c><c>   1</c></rc>
    <rc><c>H </c><c>   1</c></rc>
    <rc><c>H </c><c>   1</c></rc>
    <rc><c>H </c><c>   1</c></rc>
    <rc><c>H </c><c>   1</c></rc>
    <rc><c>H </c><c>   1</c></rc>
    <rc><c>H </c><c>   1</c></rc>
    <rc><c>H </c><c>   1</c></rc>
    <rc><c>H </c><c>   1</c></rc>
    <rc><c>H </c><c>   1</c></rc>
    <rc><c>H </c><c>   1</c></rc>
    <rc><c>H </c><c>   1</c></rc>
    <rc><c>H </c><c>   1</c></rc>
    <rc><c>H </c><c>   1</c></rc>
    <rc><c>H </c><c>   1</c></rc>
    <rc><c>H </c><c>   1</c></rc>
    <rc><c>H </c><c>   1</c></rc>
    <rc><c>H </c><c>   1</c></rc>
    <rc><c>H </c><c>   1</c></rc>
    <rc><c>H </c><c>   1</c></rc>
    <rc><c>H </c><c>   1</c></rc>
    <rc><c>H </c><c>   1</c></rc>
    <rc><c>H </c><c>   1</c></rc>
    <rc><c>H </c><c>   1</c></rc>
    <rc><c>H </c><c>   1</c></rc>
    <rc><c>H </c><c>   1</c></rc>
    <rc><c>H </c><c>   1</c></rc>
    <rc><c>H </c><c>   1</c></rc>
    <rc><c>H </c><c>   1</c></rc>
    <rc><c>H </c><c>   1</c></rc>
    <rc><c>H </c><c>   1</c></rc>
    <rc><c>H </c><c>   1</c></rc>
    <rc><c>H </c><c>   1</c></rc>
    <rc><c>H </c><c>   1</c></rc>
    <rc><c>H </c><c>   1</c></rc>
    <rc><c>H </c><c>   1</c></rc>
    <rc><c>H </c><c>   1</c></rc>
    <rc><c>H </c><c>   1</c></rc>
    <rc><c>H </c><c>   1</c></rc>
    <rc><c>H </c><c>   1</c></rc>
    <rc><c>C </c><c>   2</c></rc>
    <rc><c>C </c><c>   2</c></rc>
    <rc><c>C </c><c>   2</c></rc>
    <rc><c>C </c><c>   2</c></rc>
    <rc><c>C </c><c>   2</c></rc>
    <rc><c>C </c><c>   2</c></rc>
    <rc><c>C </c><c>   2</c></rc>
    <rc><c>C </c><c>   2</c></rc>
    <rc><c>C </c><c>   2</c></rc>
    <rc><c>C </c><c>   2</c></rc>
    <rc><c>C </c><c>   2</c></rc>
    <rc><c>C </c><c>   2</c></rc>
    <rc><c>C </c><c>   2</c></rc>
    <rc><c>C </c><c>   2</c></rc>
    <rc><c>C </c><c>   2</c></rc>
    <rc><c>C </c><c>   2</c></rc>
    <rc><c>C </c><c>   2</c></rc>
    <rc><c>C </c><c>   2</c></rc>
    <rc><c>C </c><c>   2</c></rc>
    <rc><c>C </c><c>   2</c></rc>
    <rc><c>C </c><c>   2</c></rc>
    <rc><c>C </c><c>   2</c></rc>
    <rc><c>C </c><c>   2</c></rc>
    <rc><c>C </c><c>   2</c></rc>
    <rc><c>C </c><c>   2</c></rc>
    <rc><c>C </c><c>   2</c></rc>
    <rc><c>C </c><c>   2</c></rc>
    <rc><c>C </c><c>   2</c></rc>
    <rc><c>C </c><c>   2</c></rc>
    <rc><c>C </c><c>   2</c></rc>
    <rc><c>C </c><c>   2</c></rc>
    <rc><c>C </c><c>   2</c></rc>
    <rc><c>C </c><c>   2</c></rc>
    <rc><c>C </c><c>   2</c></rc>
    <rc><c>C </c><c>   2</c></rc>
    <rc><c>C </c><c>   2</c></rc>
    <rc><c>C </c><c>   2</c></rc>
    <rc><c>C </c><c>   2</c></rc>
    <rc><c>C </c><c>   2</c></rc>
    <rc><c>N </c><c>   3</c></rc>
    <rc><c>N </c><c>   3</c></rc>
    <rc><c>N </c><c>   3</c></rc>
    <rc><c>N </c><c>   3</c></rc>
    <rc><c>N </c><c>   3</c></rc>
    <rc><c>N </c><c>   3</c></rc>
    <rc><c>N </c><c>   3</c></rc>
    <rc><c>N </c><c>   3</c></rc>
    <rc><c>N </c><c>   3</c></rc>
    <rc><c>N </c><c>   3</c></rc>
    <rc><c>N </c><c>   3</c></rc>
    <rc><c>N </c><c>   3</c></rc>
    <rc><c>N </c><c>   3</c></rc>
    <rc><c>N </c><c>   3</c></rc>
    <rc><c>N </c><c>   3</c></rc>
    <rc><c>N </c><c>   3</c></rc>
    <rc><c>N </c><c>   3</c></rc>
    <rc><c>N </c><c>   3</c></rc>
    <rc><c>N </c><c>   3</c></rc>
    <rc><c>N </c><c>   3</c></rc>
    <rc><c>N </c><c>   3</c></rc>
    <rc><c>N </c><c>   3</c></rc>
    <rc><c>N </c><c>   3</c></rc>
    <rc><c>N </c><c>   3</c></rc>
    <rc><c>N </c><c>   3</c></rc>
    <rc><c>N </c><c>   3</c></rc>
    <rc><c>N </c><c>   3</c></rc>
    <rc><c>N </c><c>   3</c></rc>
    <rc><c>N </c><c>   3</c></rc>
    <rc><c>N </c><c>   3</c></rc>
    <rc><c>N </c><c>   3</c></rc>
    <rc><c>N </c><c>   3</c></rc>
    <rc><c>N </c><c>   3</c></rc>
    <rc><c>N </c><c>   3</c></rc>
    <rc><c>N </c><c>   3</c></rc>
    <rc><c>N </c><c>   3</c></rc>
    <rc><c>N </c><c>   3</c></rc>
    <rc><c>N </c><c>   3</c></rc>
    <rc><c>N </c><c>   3</c></rc>
    <rc><c>N </c><c>   3</c></rc>
    <rc><c>N </c><c>   3</c></rc>
    <rc><c>N </c><c>   3</c></rc>
    <rc><c>N </c><c>   3</c></rc>
    <rc><c>N </c><c>   3</c></rc>
    <rc><c>N </c><c>   3</c></rc>
    <rc><c>N </c><c>   3</c></rc>
    <rc><c>N </c><c>   3</c></rc>
    <rc><c>I </c><c>   4</c></rc>
    <rc><c>I </c><c>   4</c></rc>
    <rc><c>I </c><c>   4</c></rc>
    <rc><c>I </c><c>   4</c></rc>
    <rc><c>I </c><c>   4</c></rc>
    <rc><c>I </c><c>   4</c></rc>
    <rc><c>I </c><c>   4</c></rc>
    <rc><c>I </c><c>   4</c></rc>
    <rc><c>I </c><c>   4</c></rc>
    <rc><c>I </c><c>   4</c></rc>
    <rc><c>I </c><c>   4</c></rc>
    <rc><c>I </c><c>   4</c></rc>
    <rc><c>I </c><c>   4</c></rc>
    <rc><c>I </c><c>   4</c></rc>
    <rc><c>I </c><c>   4</c></rc>
    <rc><c>I </c><c>   4</c></rc>
    <rc><c>I </c><c>   4</c></rc>
    <rc><c>I </c><c>   4</c></rc>
    <rc><c>I </c><c>   4</c></rc>
    <rc><c>I </c><c>   4</c></rc>
    <rc><c>I </c><c>   4</c></rc>
    <rc><c>I </c><c>   4</c></rc>
    <rc><c>I </c><c>   4</c></rc>
    <rc><c>I </c><c>   4</c></rc>
    <rc><c>I </c><c>   4</c></rc>
    <rc><c>I </c><c>   4</c></rc>
    <rc><c>I </c><c>   4</c></rc>
    <rc><c>I </c><c>   4</c></rc>
    <rc><c>I </c><c>   4</c></rc>
    <rc><c>I </c><c>   4</c></rc>
    <rc><c>I </c><c>   4</c></rc>
    <rc><c>I </c><c>   4</c></rc>
    <rc><c>I </c><c>   4</c></rc>
    <rc><c>I </c><c>   4</c></rc>
    <rc><c>I </c><c>   4</c></rc>
    <rc><c>I </c><c>   4</c></rc>
    <rc><c>I </c><c>   4</c></rc>
    <rc><c>I </c><c>   4</c></rc>
    <rc><c>I </c><c>   4</c></rc>
    <rc><c>I </c><c>   4</c></rc>
    <rc><c>I </c><c>   4</c></rc>
    <rc><c>I </c><c>   4</c></rc>
    <rc><c>I </c><c>   4</c></rc>
    <rc><c>I </c><c>   4</c></rc>
    <rc><c>I </c><c>   4</c></rc>
    <rc><c>I </c><c>   4</c></rc>
    <rc><c>I </c><c>   4</c></rc>
    <rc><c>I </c><c>   4</c></rc>
    <rc><c>I </c><c>   4</c></rc>
    <rc><c>I </c><c>   4</c></rc>
    <rc><c>I </c><c>   4</c></rc>
    <rc><c>I </c><c>   4</c></rc>
    <rc><c>I </c><c>   4</c></rc>
    <rc><c>I </c><c>   4</c></rc>
    <rc><c>I </c><c>   4</c></rc>
    <rc><c>I </c><c>   4</c></rc>
    <rc><c>I </c><c>   4</c></rc>
    <rc><c>I </c><c>   4</c></rc>
    <rc><c>I </c><c>   4</c></rc>
    <rc><c>I </c><c>   4</c></rc>
    <rc><c>I </c><c>   4</c></rc>
    <rc><c>I </c><c>   4</c></rc>
    <rc><c>I </c><c>   4</c></rc>
    <rc><c>I </c><c>   4</c></rc>
    <rc><c>I </c><c>   4</c></rc>
    <rc><c>I </c><c>   4</c></rc>
    <rc><c>I </c><c>   4</c></rc>
    <rc><c>I </c><c>   4</c></rc>
    <rc><c>I </c><c>   4</c></rc>
    <rc><c>I </c><c>   4</c></rc>
    <rc><c>I </c><c>   4</c></rc>
    <rc><c>I </c><c>   4</c></rc>
    <rc><c>Pb</c><c>   5</c></rc>
    <rc><c>Pb</c><c>   5</c></rc>
    <rc><c>Pb</c><c>   5</c></rc>
    <rc><c>Pb</c><c>   5</c></rc>
    <rc><c>Pb</c><c>   5</c></rc>
    <rc><c>Pb</c><c>   5</c></rc>
    <rc><c>Pb</c><c>   5</c></rc>
    <rc><c>Pb</c><c>   5</c></rc>
    <rc><c>Pb</c><c>   5</c></rc>
    <rc><c>Pb</c><c>   5</c></rc>
    <rc><c>Pb</c><c>   5</c></rc>
    <rc><c>Pb</c><c>   5</c></rc>
    <rc><c>Pb</c><c>   5</c></rc>
    <rc><c>Pb</c><c>   5</c></rc>
    <rc><c>Pb</c><c>   5</c></rc>
    <rc><c>Pb</c><c>   5</c></rc>
    <rc><c>Pb</c><c>   5</c></rc>
    <rc><c>Pb</c><c>   5</c></rc>
    <rc><c>Pb</c><c>   5</c></rc>
    <rc><c>Pb</c><c>   5</c></rc>
    <rc><c>Pb</c><c>   5</c></rc>
    <rc><c>Pb</c><c>   5</c></rc>
    <rc><c>Pb</c><c>   5</c></rc>
    <rc><c>Pb</c><c>   5</c></rc>
   </set>
  </array>
  <array name="atomtypes" >
   <dimension dim="1">type</dimension>
   <field type="int">atomspertype</field>
   <field type="string">element</field>
   <field>mass</field>
   <field>valence</field>
   <field type="string">pseudopotential</field>
   <set>
    <rc><c> 143</c><c>H </c><c>      1.00000000</c><c>      1.00000000</c><c>  PAW_PBE H 15Jun2001                   </c></rc>
    <rc><c>  39</c><c>C </c><c>     12.01100000</c><c>      4.00000000</c><c>  PAW_PBE C 08Apr2002                   </c></rc>
    <rc><c>  47</c><c>N </c><c>     14.00100000</c><c>      5.00000000</c><c>  PAW_PBE N 08Apr2002                   </c></rc>
    <rc><c>  72</c><c>I </c><c>    126.90400000</c><c>      7.00000000</c><c>  PAW_PBE I 08Apr2002                   </c></rc>
    <rc><c>  24</c><c>Pb</c><c>    207.20000000</c><c>      4.00000000</c><c>  PAW_PBE Pb 08Apr2002                  </c></rc>
   </set>
  </array>
 </atominfo>
 <structure name="initialpos" >
  <crystal>
   <varray name="basis" >
    <v>      18.06080055       0.00000000       0.00000000 </v>
    <v>      -0.00491865      18.06279945       0.00000000 </v>
    <v>       0.00000000       0.00000000      62.48749924 </v>
   </varray>
   <i name="volume">  20385.21054034 </i>
   <varray name="rec_basis" >
    <v>       0.05536853       0.00001508      -0.00000000 </v>
    <v>       0.00000000       0.05536240       0.00000000 </v>
    <v>       0.00000000      -0.00000000       0.01600320 </v>
   </varray>
  </crystal>
  <varray name="positions" >
   <v>       0.44263735       0.32470120       0.57012160 </v>
   <v>       0.41975177       0.82804269       0.56963719 </v>
   <v>       0.96708238       0.32147566       0.57910313 </v>
   <v>       0.94933498       0.81193770       0.57710548 </v>
   <v>       0.32420052       0.95337475       0.57255647 </v>
   <v>       0.34140889       0.56307990       0.56891506 </v>
   <v>       0.79897661       0.07822228       0.57598233 </v>
   <v>       0.01986037       0.13691471       0.56185389 </v>
   <v>       0.06437162       0.65062171       0.56690300 </v>
   <v>       0.56108911       0.17429789       0.55317247 </v>
   <v>       0.51480599       0.65238716       0.56286630 </v>
   <v>       0.36173857       0.02078936       0.55601026 </v>
   <v>       0.28489346       0.62840919       0.55618699 </v>
   <v>       0.87102828       0.02381371       0.56532596 </v>
   <v>       0.97548132       0.18619573       0.58223700 </v>
   <v>       0.99832196       0.68540293       0.58430486 </v>
   <v>       0.56044454       0.25576451       0.56846465 </v>
   <v>       0.44025342       0.69266114       0.57602451 </v>
   <v>       0.28743726       0.43624012       0.57405189 </v>
   <v>       0.18942098       0.93170972       0.57093335 </v>
   <v>       0.67204291       0.02844022       0.57211358 </v>
   <v>       0.36633238       0.28353578       0.55755982 </v>
   <v>       0.48515713       0.87499273       0.55440947 </v>
   <v>       0.02020738       0.36294519       0.55923753 </v>
   <v>       0.99320512       0.86158507       0.55683183 </v>
   <v>       0.19872291       0.42292422       0.56377414 </v>
   <v>       0.13675041       0.99146989       0.55504766 </v>
   <v>       0.66537318       0.93920822       0.56085089 </v>
   <v>       0.43519502       0.18436208       0.54478670 </v>
   <v>       0.55431441       0.76702977       0.54815822 </v>
   <v>       0.05428655       0.24806048       0.54427897 </v>
   <v>       0.07068915       0.76350578       0.54723806 </v>
   <v>       0.18840603       0.54168949       0.55102031 </v>
   <v>       0.24278528       0.05793545       0.54384596 </v>
   <v>       0.79029551       0.92898776       0.55480488 </v>
   <v>       0.48068671       0.33340284       0.66876969 </v>
   <v>       0.43903771       0.81419739       0.67326363 </v>
   <v>       0.96795681       0.28005369       0.67940450 </v>
   <v>       0.92129565       0.73881293       0.67279533 </v>
   <v>       0.31121935       0.05322592       0.67055990 </v>
   <v>       0.29920038       0.54963470       0.67587957 </v>
   <v>       0.79095936       0.06280619       0.67520909 </v>
   <v>       0.76597680       0.59525207       0.66466273 </v>
   <v>       0.08428847       0.16399122       0.64520778 </v>
   <v>       0.10726872       0.71274760       0.65185255 </v>
   <v>       0.58370753       0.17438296       0.64978011 </v>
   <v>       0.56655857       0.67285582       0.65277180 </v>
   <v>       0.18314260       0.41409550       0.64737967 </v>
   <v>       0.17016719       0.92215276       0.65095906 </v>
   <v>       0.70864954       0.40337133       0.66174961 </v>
   <v>       0.67827443       0.91582640       0.65107047 </v>
   <v>       0.06518948       0.17671275       0.67240781 </v>
   <v>       0.04787994       0.67774320       0.67145522 </v>
   <v>       0.59600794       0.25711779       0.66323513 </v>
   <v>       0.53044457       0.70379824       0.67692006 </v>
   <v>       0.20217848       0.44437255       0.67361581 </v>
   <v>       0.20643882       0.95595190       0.67507228 </v>
   <v>       0.68086621       0.48946179       0.67182169 </v>
   <v>       0.69227298       0.95894149       0.67571865 </v>
   <v>       0.39800833       0.29400277       0.65917438 </v>
   <v>       0.42498682       0.84309447       0.64710251 </v>
   <v>       0.93543220       0.32499145       0.65684647 </v>
   <v>       0.90509344       0.80718501       0.65376284 </v>
   <v>       0.33278148       0.07352810       0.64394771 </v>
   <v>       0.33202203       0.58024142       0.65114519 </v>
   <v>       0.83218944       0.07779300       0.65021843 </v>
   <v>       0.83979359       0.57808442       0.64739548 </v>
   <v>       0.00547084       0.25635513       0.63329909 </v>
   <v>       0.02079096       0.79688903       0.63869385 </v>
   <v>       0.45821096       0.19176347       0.64458712 </v>
   <v>       0.50335724       0.75768948       0.63216178 </v>
   <v>       0.24602911       0.99338340       0.62975859 </v>
   <v>       0.26133947       0.49717443       0.63152206 </v>
   <v>       0.76645254       0.98599561       0.63331515 </v>
   <v>       0.81057836       0.45308370       0.64404453 </v>
   <v>       0.44874502       0.30128397       0.76888902 </v>
   <v>       0.44874501       0.80128391       0.76888902 </v>
   <v>       0.94874497       0.30128397       0.76888902 </v>
   <v>       0.94874501       0.80128391       0.76888902 </v>
   <v>       0.30127600       0.05129450       0.76887296 </v>
   <v>       0.30127601       0.55129450       0.76887296 </v>
   <v>       0.80127594       0.05129450       0.76887296 </v>
   <v>       0.80127598       0.55129450       0.76887296 </v>
   <v>       0.07877100       0.17118050       0.74344197 </v>
   <v>       0.07877101       0.67118045       0.74344197 </v>
   <v>       0.57877100       0.17118050       0.74344197 </v>
   <v>       0.57877099       0.67118045       0.74344197 </v>
   <v>       0.17119950       0.42117448       0.74342103 </v>
   <v>       0.17119950       0.92117451       0.74342103 </v>
   <v>       0.67119951       0.42117448       0.74342103 </v>
   <v>       0.67119950       0.92117451       0.74342103 </v>
   <v>       0.05125600       0.19871499       0.76888902 </v>
   <v>       0.05125600       0.69871493       0.76888902 </v>
   <v>       0.55125603       0.19871499       0.76888902 </v>
   <v>       0.55125602       0.69871493       0.76888902 </v>
   <v>       0.19872349       0.44870397       0.76887205 </v>
   <v>       0.19872349       0.94870397       0.76887205 </v>
   <v>       0.69872352       0.44870397       0.76887205 </v>
   <v>       0.69872351       0.94870397       0.76887205 </v>
   <v>       0.42123152       0.32881747       0.74344197 </v>
   <v>       0.42123151       0.82881744       0.74344197 </v>
   <v>       0.92123147       0.32881747       0.74344197 </v>
   <v>       0.92123151       0.82881744       0.74344197 </v>
   <v>       0.32880050       0.07882500       0.74342103 </v>
   <v>       0.32880049       0.57882496       0.74342103 </v>
   <v>       0.82880048       0.07882500       0.74342103 </v>
   <v>       0.82880052       0.57882496       0.74342103 </v>
   <v>       0.00000350       0.25000148       0.72582199 </v>
   <v>       0.00000350       0.75000145       0.72582199 </v>
   <v>       0.50000351       0.25000148       0.72582199 </v>
   <v>       0.50000350       0.75000145       0.72582199 </v>
   <v>       0.25000050       0.00000000       0.72580398 </v>
   <v>       0.25000052       0.50000000       0.72580398 </v>
   <v>       0.75000050       0.00000000       0.72580398 </v>
   <v>       0.75000049       0.50000000       0.72580398 </v>
   <v>       0.77484557       0.55510106       0.52046311 </v>
   <v>       0.72098856       0.47548149       0.52562173 </v>
   <v>       0.87224886       0.50089682       0.54176931 </v>
   <v>       0.85625957       0.48087794       0.56876330 </v>
   <v>       0.74357998       0.64030456       0.55948349 </v>
   <v>       0.80598502       0.59847173       0.57786436 </v>
   <v>       0.66809491       0.54908433       0.57021323 </v>
   <v>       0.67624750       0.45675208       0.56104648 </v>
   <v>       0.61646334       0.55294422       0.53770154 </v>
   <v>       0.67078810       0.63476999       0.53593654 </v>
   <v>       0.60658125       0.64422279       0.50487207 </v>
   <v>       0.68670148       0.60054351       0.49534908 </v>
   <v>       0.79445154       0.39051153       0.53051456 </v>
   <v>       0.77619281       0.37017124       0.55740220 </v>
   <v>       0.86710842       0.36587741       0.54759182 </v>
   <v>       0.86448146       0.69437696       0.55618900 </v>
   <v>       0.84563517       0.64758162       0.53189972 </v>
   <v>       0.90754952       0.60716814       0.55102488 </v>
   <v>       0.75738711       0.52765607       0.60003371 </v>
   <v>       0.77716574       0.43713243       0.59040593 </v>
   <v>       0.68778000       0.46038441       0.59958074 </v>
   <v>       0.53454194       0.52961413       0.50359902 </v>
   <v>       0.57557361       0.54680875       0.47827541 </v>
   <v>       0.69367431       0.47516702       0.46814387 </v>
   <v>       0.56147122       0.42006536       0.52372310 </v>
   <v>       0.76016980       0.35527719       0.47145202 </v>
   <v>       0.62995218       0.29978232       0.52676869 </v>
   <v>       0.72941678       0.26795069       0.50127394 </v>
   <v>       0.02078651       0.24962593       0.55881099 </v>
   <v>       0.03140376       0.75662096       0.56047898 </v>
   <v>       0.46300839       0.22809893       0.55394667 </v>
   <v>       0.50312910       0.76399480       0.55756733 </v>
   <v>       0.24021786       0.52509248       0.55873279 </v>
   <v>       0.24826766       0.01042978       0.55453035 </v>
   <v>       0.76898601       0.97962858       0.56230216 </v>
   <v>       0.00987437       0.24438475       0.65068740 </v>
   <v>       0.00637670       0.76068164       0.65223727 </v>
   <v>       0.48995578       0.23350898       0.65349393 </v>
   <v>       0.49571831       0.75828182       0.64953470 </v>
   <v>       0.25793712       0.49745431       0.64906103 </v>
   <v>       0.25124345       0.99788569       0.64728462 </v>
   <v>       0.77515518       0.48887119       0.65378225 </v>
   <v>       0.75543256       0.99611103       0.65040780 </v>
   <v>       0.49998898       0.24999498       0.74327702 </v>
   <v>       0.49998903       0.74999496       0.74327702 </v>
   <v>       0.99998898       0.24999498       0.74327702 </v>
   <v>       0.99998903       0.74999496       0.74327702 </v>
   <v>       0.25000050       0.00000100       0.74325596 </v>
   <v>       0.25000052       0.50000100       0.74325596 </v>
   <v>       0.75000050       0.00000100       0.74325596 </v>
   <v>       0.75000049       0.50000100       0.74325596 </v>
   <v>       0.62350374       0.45658894       0.49579729 </v>
   <v>       0.67911230       0.43675899       0.48108392 </v>
   <v>       0.60474204       0.40533419       0.51203726 </v>
   <v>       0.71717469       0.36969891       0.48303320 </v>
   <v>       0.64330199       0.33826804       0.51387268 </v>
   <v>       0.69998351       0.32071283       0.49944590 </v>
   <v>       0.73110941       0.53303700       0.53077767 </v>
   <v>       0.83188851       0.47619711       0.55270668 </v>
   <v>       0.79225697       0.60459294       0.56078147 </v>
   <v>       0.70699783       0.50257758       0.56853712 </v>
   <v>       0.66175330       0.57947522       0.52884632 </v>
   <v>       0.63730631       0.59246652       0.50545092 </v>
   <v>       0.81525820       0.39731847       0.54680792 </v>
   <v>       0.85666931       0.63923536       0.54902125 </v>
   <v>       0.73534028       0.48122582       0.59055287 </v>
   <v>       0.58819511       0.53198052       0.49519380 </v>
   <v>       0.00595303       0.18751911       0.56832217 </v>
   <v>       0.03311852       0.69499670       0.57162727 </v>
   <v>       0.53403847       0.22118119       0.55787605 </v>
   <v>       0.48417889       0.69916144       0.56565721 </v>
   <v>       0.42249712       0.28471768       0.56022069 </v>
   <v>       0.46429451       0.82560259       0.55985526 </v>
   <v>       0.99953303       0.31495163       0.56567296 </v>
   <v>       0.98595544       0.81170132       0.56441465 </v>
   <v>       0.24429388       0.45577844       0.56487525 </v>
   <v>       0.18848649       0.97370722       0.55976021 </v>
   <v>       0.69702401       0.98542282       0.56429561 </v>
   <v>       0.31462243       0.99436459       0.56159865 </v>
   <v>       0.29262139       0.57441203       0.56127394 </v>
   <v>       0.81597734       0.03013451       0.56872532 </v>
   <v>       0.05542844       0.19167398       0.65669110 </v>
   <v>       0.05585703       0.71317072       0.65896524 </v>
   <v>       0.56094532       0.22102236       0.65586959 </v>
   <v>       0.53257545       0.70922119       0.66067517 </v>
   <v>       0.21195647       0.44864938       0.65761896 </v>
   <v>       0.20693885       0.95709009       0.65885511 </v>
   <v>       0.71688799       0.45955601       0.66286751 </v>
   <v>       0.70613980       0.95513145       0.66005597 </v>
   <v>       0.45463349       0.29228080       0.66058507 </v>
   <v>       0.45102216       0.80827412       0.65735774 </v>
   <v>       0.96887080       0.28490134       0.66319557 </v>
   <v>       0.94056551       0.77044145       0.66056791 </v>
   <v>       0.30164604       0.04439920       0.65476029 </v>
   <v>       0.29847920       0.54445936       0.65977167 </v>
   <v>       0.79511364       0.04926477       0.65944159 </v>
   <v>       0.79510681       0.55934066       0.65543816 </v>
   <v>       0.04586250       0.20411950       0.75272599 </v>
   <v>       0.04586250       0.70411946       0.75272599 </v>
   <v>       0.54586251       0.20411950       0.75272599 </v>
   <v>       0.54586250       0.70411946       0.75272599 </v>
   <v>       0.20411900       0.45410100       0.75270499 </v>
   <v>       0.20411899       0.95410095       0.75270499 </v>
   <v>       0.70411898       0.45410100       0.75270499 </v>
   <v>       0.70411896       0.95410095       0.75270499 </v>
   <v>       0.45414002       0.29588849       0.75272697 </v>
   <v>       0.45414001       0.79588852       0.75272697 </v>
   <v>       0.95414002       0.29588849       0.75272697 </v>
[...]
   <v>       0.56108911       0.17429789       0.55317247 </v>
   <v>       0.51480599       0.65238716       0.56286630 </v>
   <v>       0.36173857       0.02078936       0.55601026 </v>
   <v>       0.28489346       0.62840919       0.55618699 </v>
   <v>       0.87102828       0.02381371       0.56532596 </v>
   <v>       0.97548132       0.18619573       0.58223700 </v>
   <v>       0.99832196       0.68540293       0.58430486 </v>
   <v>       0.56044454       0.25576451       0.56846465 </v>
   <v>       0.44025342       0.69266114       0.57602451 </v>
   <v>       0.28743726       0.43624012       0.57405189 </v>
   <v>       0.18942098       0.93170972       0.57093335 </v>
   <v>       0.67204291       0.02844022       0.57211358 </v>
   <v>       0.36633238       0.28353578       0.55755982 </v>
   <v>       0.48515713       0.87499273       0.55440947 </v>
   <v>       0.02020738       0.36294519       0.55923753 </v>
   <v>       0.99320512       0.86158507       0.55683183 </v>
   <v>       0.19872291       0.42292422       0.56377414 </v>
   <v>       0.13675041       0.99146989       0.55504766 </v>
   <v>       0.66537318       0.93920822       0.56085089 </v>
   <v>       0.43519502       0.18436208       0.54478670 </v>
   <v>       0.55431441       0.76702977       0.54815822 </v>
   <v>       0.05428655       0.24806048       0.54427897 </v>
   <v>       0.07068915       0.76350578       0.54723806 </v>
   <v>       0.18840603       0.54168949       0.55102031 </v>
   <v>       0.24278528       0.05793545       0.54384596 </v>
   <v>       0.79029551       0.92898776       0.55480488 </v>
   <v>       0.48068671       0.33340284       0.66876969 </v>
   <v>       0.43903771       0.81419739       0.67326363 </v>
   <v>       0.96795681       0.28005369       0.67940450 </v>
   <v>       0.92129565       0.73881293       0.67279533 </v>
   <v>       0.31121935       0.05322592       0.67055990 </v>
   <v>       0.29920038       0.54963470       0.67587957 </v>
   <v>       0.79095936       0.06280619       0.67520909 </v>
   <v>       0.76597680       0.59525207       0.66466273 </v>
   <v>       0.08428847       0.16399122       0.64520778 </v>
   <v>       0.10726872       0.71274760       0.65185255 </v>
   <v>       0.58370753       0.17438296       0.64978011 </v>
   <v>       0.56655857       0.67285582       0.65277180 </v>
   <v>       0.18314260       0.41409550       0.64737967 </v>
   <v>       0.17016719       0.92215276       0.65095906 </v>
   <v>       0.70864954       0.40337133       0.66174961 </v>
   <v>       0.67827443       0.91582640       0.65107047 </v>
   <v>       0.06518948       0.17671275       0.67240781 </v>
   <v>       0.04787994       0.67774320       0.67145522 </v>
   <v>       0.59600794       0.25711779       0.66323513 </v>
   <v>       0.53044457       0.70379824       0.67692006 </v>
   <v>       0.20217848       0.44437255       0.67361581 </v>
   <v>       0.20643882       0.95595190       0.67507228 </v>
   <v>       0.68086621       0.48946179       0.67182169 </v>
   <v>       0.69227298       0.95894149       0.67571865 </v>
   <v>       0.39800833       0.29400277       0.65917438 </v>
   <v>       0.42498682       0.84309447       0.64710251 </v>
   <v>       0.93543220       0.32499145       0.65684647 </v>
   <v>       0.90509344       0.80718501       0.65376284 </v>
   <v>       0.33278148       0.07352810       0.64394771 </v>
   <v>       0.33202203       0.58024142       0.65114519 </v>
   <v>       0.83218944       0.07779300       0.65021843 </v>
   <v>       0.83979359       0.57808442       0.64739548 </v>
   <v>       0.00547084       0.25635513       0.63329909 </v>
   <v>       0.02079096       0.79688903       0.63869385 </v>
   <v>       0.45821096       0.19176347       0.64458712 </v>
   <v>       0.50335724       0.75768948       0.63216178 </v>
   <v>       0.24602911       0.99338340       0.62975859 </v>
   <v>       0.26133947       0.49717443       0.63152206 </v>
   <v>       0.76645254       0.98599561       0.63331515 </v>
   <v>       0.81057836       0.45308370       0.64404453 </v>
   <v>       0.44874502       0.30128397       0.76888902 </v>
   <v>       0.44874501       0.80128391       0.76888902 </v>
   <v>       0.94874497       0.30128397       0.76888902 </v>
   <v>       0.94874501       0.80128391       0.76888902 </v>
   <v>       0.30127600       0.05129450       0.76887296 </v>
   <v>       0.30127601       0.55129450       0.76887296 </v>
   <v>       0.80127594       0.05129450       0.76887296 </v>
   <v>       0.80127598       0.55129450       0.76887296 </v>
   <v>       0.07877100       0.17118050       0.74344197 </v>
   <v>       0.07877101       0.67118045       0.74344197 </v>
   <v>       0.57877100       0.17118050       0.74344197 </v>
   <v>       0.57877099       0.67118045       0.74344197 </v>
   <v>       0.17119950       0.42117448       0.74342103 </v>
   <v>       0.17119950       0.92117451       0.74342103 </v>
   <v>       0.67119951       0.42117448       0.74342103 </v>
   <v>       0.67119950       0.92117451       0.74342103 </v>
   <v>       0.05125600       0.19871499       0.76888902 </v>
   <v>       0.05125600       0.69871493       0.76888902 </v>
   <v>       0.55125603       0.19871499       0.76888902 </v>
   <v>       0.55125602       0.69871493       0.76888902 </v>
   <v>       0.19872349       0.44870397       0.76887205 </v>
   <v>       0.19872349       0.94870397       0.76887205 </v>
   <v>       0.69872352       0.44870397       0.76887205 </v>
   <v>       0.69872351       0.94870397       0.76887205 </v>
   <v>       0.42123152       0.32881747       0.74344197 </v>
   <v>       0.42123151       0.82881744       0.74344197 </v>
   <v>       0.92123147       0.32881747       0.74344197 </v>
   <v>       0.92123151       0.82881744       0.74344197 </v>
   <v>       0.32880050       0.07882500       0.74342103 </v>
   <v>       0.32880049       0.57882496       0.74342103 </v>
   <v>       0.82880048       0.07882500       0.74342103 </v>
   <v>       0.82880052       0.57882496       0.74342103 </v>
   <v>       0.00000350       0.25000148       0.72582199 </v>
   <v>       0.00000350       0.75000145       0.72582199 </v>
   <v>       0.50000351       0.25000148       0.72582199 </v>
   <v>       0.50000350       0.75000145       0.72582199 </v>
   <v>       0.25000050       0.00000000       0.72580398 </v>
   <v>       0.25000052       0.50000000       0.72580398 </v>
   <v>       0.75000050       0.00000000       0.72580398 </v>
   <v>       0.75000049       0.50000000       0.72580398 </v>
   <v>       0.77484557       0.55510106       0.52046311 </v>
   <v>       0.72098856       0.47548149       0.52562173 </v>
   <v>       0.87224886       0.50089682       0.54176931 </v>
   <v>       0.85625957       0.48087794       0.56876330 </v>
   <v>       0.74357998       0.64030456       0.55948349 </v>
   <v>       0.80598502       0.59847173       0.57786436 </v>
   <v>       0.66809491       0.54908433       0.57021323 </v>
   <v>       0.67624750       0.45675208       0.56104648 </v>
   <v>       0.61646334       0.55294422       0.53770154 </v>
   <v>       0.67078810       0.63476999       0.53593654 </v>
   <v>       0.60658125       0.64422279       0.50487207 </v>
   <v>       0.68670148       0.60054351       0.49534908 </v>
   <v>       0.79445154       0.39051153       0.53051456 </v>
   <v>       0.77619281       0.37017124       0.55740220 </v>
   <v>       0.86710842       0.36587741       0.54759182 </v>
   <v>       0.86448146       0.69437696       0.55618900 </v>
   <v>       0.84563517       0.64758162       0.53189972 </v>
   <v>       0.90754952       0.60716814       0.55102488 </v>
   <v>       0.75738711       0.52765607       0.60003371 </v>
   <v>       0.77716574       0.43713243       0.59040593 </v>
   <v>       0.68778000       0.46038441       0.59958074 </v>
   <v>       0.53454194       0.52961413       0.50359902 </v>
   <v>       0.57557361       0.54680875       0.47827541 </v>
   <v>       0.69367431       0.47516702       0.46814387 </v>
   <v>       0.56147122       0.42006536       0.52372310 </v>
   <v>       0.76016980       0.35527719       0.47145202 </v>
   <v>       0.62995218       0.29978232       0.52676869 </v>
   <v>       0.72941678       0.26795069       0.50127394 </v>
   <v>       0.02078651       0.24962593       0.55881099 </v>
   <v>       0.03140376       0.75662096       0.56047898 </v>
   <v>       0.46300839       0.22809893       0.55394667 </v>
   <v>       0.50312910       0.76399480       0.55756733 </v>
   <v>       0.24021786       0.52509248       0.55873279 </v>
   <v>       0.24826766       0.01042978       0.55453035 </v>
   <v>       0.76898601       0.97962858       0.56230216 </v>
   <v>       0.00987437       0.24438475       0.65068740 </v>
   <v>       0.00637670       0.76068164       0.65223727 </v>
   <v>       0.48995578       0.23350898       0.65349393 </v>
   <v>       0.49571831       0.75828182       0.64953470 </v>
   <v>       0.25793712       0.49745431       0.64906103 </v>
   <v>       0.25124345       0.99788569       0.64728462 </v>
   <v>       0.77515518       0.48887119       0.65378225 </v>
   <v>       0.75543256       0.99611103       0.65040780 </v>
   <v>       0.49998898       0.24999498       0.74327702 </v>
   <v>       0.49998903       0.74999496       0.74327702 </v>
   <v>       0.99998898       0.24999498       0.74327702 </v>
   <v>       0.99998903       0.74999496       0.74327702 </v>
   <v>       0.25000050       0.00000100       0.74325596 </v>
   <v>       0.25000052       0.50000100       0.74325596 </v>
   <v>       0.75000050       0.00000100       0.74325596 </v>
   <v>       0.75000049       0.50000100       0.74325596 </v>
   <v>       0.62350374       0.45658894       0.49579729 </v>
   <v>       0.67911230       0.43675899       0.48108392 </v>
   <v>       0.60474204       0.40533419       0.51203726 </v>
   <v>       0.71717469       0.36969891       0.48303320 </v>
   <v>       0.64330199       0.33826804       0.51387268 </v>
   <v>       0.69998351       0.32071283       0.49944590 </v>
   <v>       0.73110941       0.53303700       0.53077767 </v>
   <v>       0.83188851       0.47619711       0.55270668 </v>
   <v>       0.79225697       0.60459294       0.56078147 </v>
   <v>       0.70699783       0.50257758       0.56853712 </v>
   <v>       0.66175330       0.57947522       0.52884632 </v>
   <v>       0.63730631       0.59246652       0.50545092 </v>
   <v>       0.81525820       0.39731847       0.54680792 </v>
   <v>       0.85666931       0.63923536       0.54902125 </v>
   <v>       0.73534028       0.48122582       0.59055287 </v>
   <v>       0.58819511       0.53198052       0.49519380 </v>
   <v>       0.00595303       0.18751911       0.56832217 </v>
   <v>       0.03311852       0.69499670       0.57162727 </v>
   <v>       0.53403847       0.22118119       0.55787605 </v>
   <v>       0.48417889       0.69916144       0.56565721 </v>
   <v>       0.42249712       0.28471768       0.56022069 </v>
   <v>       0.46429451       0.82560259       0.55985526 </v>
   <v>       0.99953303       0.31495163       0.56567296 </v>
   <v>       0.98595544       0.81170132       0.56441465 </v>
   <v>       0.24429388       0.45577844       0.56487525 </v>
   <v>       0.18848649       0.97370722       0.55976021 </v>
   <v>       0.69702401       0.98542282       0.56429561 </v>
   <v>       0.31462243       0.99436459       0.56159865 </v>
   <v>       0.29262139       0.57441203       0.56127394 </v>
   <v>       0.81597734       0.03013451       0.56872532 </v>
   <v>       0.05542844       0.19167398       0.65669110 </v>
   <v>       0.05585703       0.71317072       0.65896524 </v>
   <v>       0.56094532       0.22102236       0.65586959 </v>
   <v>       0.53257545       0.70922119       0.66067517 </v>
   <v>       0.21195647       0.44864938       0.65761896 </v>
   <v>       0.20693885       0.95709009       0.65885511 </v>
   <v>       0.71688799       0.45955601       0.66286751 </v>
   <v>       0.70613980       0.95513145       0.66005597 </v>
   <v>       0.45463349       0.29228080       0.66058507 </v>
   <v>       0.45102216       0.80827412       0.65735774 </v>
   <v>       0.96887080       0.28490134       0.66319557 </v>
   <v>       0.94056551       0.77044145       0.66056791 </v>
   <v>       0.30164604       0.04439920       0.65476029 </v>
   <v>       0.29847920       0.54445936       0.65977167 </v>
   <v>       0.79511364       0.04926477       0.65944159 </v>
   <v>       0.79510681       0.55934066       0.65543816 </v>
   <v>       0.04586250       0.20411950       0.75272599 </v>
   <v>       0.04586250       0.70411946       0.75272599 </v>
   <v>       0.54586251       0.20411950       0.75272599 </v>
   <v>       0.54586250       0.70411946       0.75272599 </v>
   <v>       0.20411900       0.45410100       0.75270499 </v>
   <v>       0.20411899       0.95410095       0.75270499 </v>
   <v>       0.70411898       0.45410100       0.75270499 </v>
   <v>       0.70411896       0.95410095       0.75270499 </v>
   <v>       0.45414002       0.29588849       0.75272697 </v>
   <v>       0.45414001       0.79588852       0.75272697 </v>
   <v>       0.95414002       0.29588849       0.75272697 </v>
   <v>       0.95414006       0.79588852       0.75272697 </v>
   <v>       0.29588249       0.04590050       0.75270499 </v>
   <v>       0.29588248       0.54590053       0.75270499 </v>
   <v>       0.79588244       0.04590050       0.75270499 </v>
   <v>       0.79588248       0.54590053       0.75270499 </v>
   <v>       0.76581921       0.52884602       0.55300508 </v>
   <v>       0.50574354       0.02015121       0.55178450 </v>
   <v>       0.47510410       0.50071324       0.55529808 </v>
   <v>       0.99911529       0.00168405       0.54995411 </v>
   <v>       0.03973816       0.50258841       0.55281034 </v>
   <v>       0.23005536       0.23944859       0.55218723 </v>
   <v>       0.24824467       0.77000428       0.55392653 </v>
   <v>       0.73600166       0.20267495       0.55530821 </v>
   <v>       0.70614589       0.79205540       0.55194639 </v>
   <v>       0.00202475       0.98245373       0.65402901 </v>
   <v>       0.00825364       0.49457926       0.65530758 </v>
   <v>       0.50195814       0.01115312       0.65456574 </v>
   <v>       0.51535457       0.48795162       0.65520820 </v>
   <v>       0.26022007       0.24507933       0.65453143 </v>
   <v>       0.25036564       0.75539458       0.65459040 </v>
   <v>       0.75327539       0.26257544       0.65467385 </v>
   <v>       0.74397973       0.75516776       0.65411099 </v>
   <v>       0.13480919       0.10728683       0.60805833 </v>
   <v>       0.14778853       0.60764533       0.61022136 </v>
   <v>       0.64890024       0.10566726       0.61092303 </v>
   <v>       0.61744552       0.63355406       0.61279090 </v>
   <v>       0.36006387       0.38448095       0.60631738 </v>
   <v>       0.37098660       0.88268176       0.60776908 </v>
   <v>       0.89278789       0.36374634       0.61255593 </v>
   <v>       0.87290336       0.87022399       0.60765584 </v>
   <v>       0.12468134       0.36309582       0.61049106 </v>
   <v>       0.12514788       0.87124261       0.60649795 </v>
   <v>       0.58422947       0.33214119       0.60269238 </v>
   <v>       0.61671882       0.87273932       0.61108469 </v>
   <v>       0.38648994       0.13448442       0.60624540 </v>
   <v>       0.38390531       0.62832550       0.61149841 </v>
   <v>       0.88687369       0.13612540       0.61206737 </v>
   <v>       0.90581722       0.64080778       0.61333245 </v>
   <v>       0.00000000       0.00000000       0.75492797 </v>
   <v>       0.00000000       0.50000000       0.75492797 </v>
   <v>       0.50000000       0.00000000       0.75492797 </v>
   <v>       0.49999999       0.50000000       0.75492797 </v>
   <v>       0.25000050       0.25000000       0.75493902 </v>
   <v>       0.25000051       0.74999997       0.75493902 </v>
   <v>       0.75000047       0.25000000       0.75493902 </v>
   <v>       0.75000046       0.74999997       0.75493902 </v>
   <v>       0.13579050       0.11421000       0.70478299 </v>
   <v>       0.13579050       0.61420998       0.70478299 </v>
   <v>       0.63579045       0.11421000       0.70478299 </v>
   <v>       0.63579049       0.61420998       0.70478299 </v>
   <v>       0.36420952       0.38578999       0.70478299 </v>
   <v>       0.36420950       0.88578996       0.70478299 </v>
   <v>       0.86420954       0.38578999       0.70478299 </v>
   <v>       0.86420953       0.88578996       0.70478299 </v>
   <v>       0.11421799       0.36421899       0.70478098 </v>
   <v>       0.11421799       0.86421899       0.70478098 </v>
   <v>       0.61421800       0.36421899       0.70478098 </v>
   <v>       0.61421799       0.86421899       0.70478098 </v>
   <v>       0.38578201       0.13578149       0.70478202 </v>
   <v>       0.38578200       0.63578149       0.70478202 </v>
   <v>       0.88578199       0.13578149       0.70478202 </v>
   <v>       0.88578203       0.63578149       0.70478202 </v>
   <v>       0.13466700       0.11533200       0.80125603 </v>
   <v>       0.13466699       0.61533199       0.80125603 </v>
   <v>       0.63466699       0.11533200       0.80125603 </v>
   <v>       0.63466698       0.61533199       0.80125603 </v>
   <v>       0.36533300       0.38466799       0.80125603 </v>
   <v>       0.36533299       0.88466796       0.80125603 </v>
   <v>       0.86533295       0.38466799       0.80125603 </v>
   <v>       0.86533294       0.88466796       0.80125603 </v>
   <v>       0.11532850       0.36533700       0.80126500 </v>
   <v>       0.11532850       0.86533698       0.80126500 </v>
   <v>       0.61532850       0.36533700       0.80126500 </v>
   <v>       0.61532849       0.86533698       0.80126500 </v>
   <v>       0.38467151       0.13466300       0.80126500 </v>
   <v>       0.38467150       0.63466297       0.80126500 </v>
   <v>       0.88467149       0.13466300       0.80126500 </v>
   <v>       0.88467153       0.63466297       0.80126500 </v>
   <v>       0.99580379       0.99695197       0.60544409 </v>
   <v>       0.00883696       0.50069793       0.60564689 </v>
   <v>       0.49979689       0.00686311       0.60400869 </v>
   <v>       0.49763569       0.49238103       0.60452405 </v>
   <v>       0.24423454       0.24189286       0.60280685 </v>
   <v>       0.24839653       0.74691258       0.60400887 </v>
   <v>       0.74068459       0.25012487       0.60268787 </v>
   <v>       0.73316388       0.75732016       0.60167546 </v>
   <v>       0.00000050       0.00000050       0.70482896 </v>
   <v>       0.00000050       0.50000048       0.70482896 </v>
   <v>       0.50000048       0.00000050       0.70482896 </v>
   <v>       0.50000046       0.50000048       0.70482896 </v>
   <v>       0.24999999       0.24999947       0.70482499 </v>
   <v>       0.25000001       0.74999950       0.70482499 </v>
   <v>       0.74999999       0.24999947       0.70482499 </v>
   <v>       0.74999998       0.74999950       0.70482499 </v>
   <v>       0.00000000       0.00000000       0.80731797 </v>
   <v>       0.00000000       0.50000000       0.80731797 </v>
   <v>       0.50000000       0.00000000       0.80731797 </v>
   <v>       0.49999999       0.50000000       0.80731797 </v>
   <v>       0.24999999       0.25000000       0.80731797 </v>
   <v>       0.25000001       0.74999997       0.80731797 </v>
   <v>       0.74999999       0.25000000       0.80731797 </v>
   <v>       0.74999998       0.74999997       0.80731797 </v>
  </varray>
 </structure>
</modeling>
