 vasp.6.2.1 16May21 (build Nov 15 2021 14:57:28) complex                         
 executed on             LinuxPGI date 2023.07.24  22:41:00
 running on    4 total cores
 distrk:  each k-point on    4 cores,    1 groups
 distr:  one band on NCORE=   1 cores,    4 groups


--------------------------------------------------------------------------------------------------------


 INCAR:
   SYSTEM = PSC
   ISTART = 1
   ICHARG = 1
   PREC = Normal
   ENCUT = 500
   GGA_COMPAT = F
   NELM = 600
   ISYM = 0
   LREAL = Auto
   ISMEAR = 0
   SIGMA = 0.05
   AMIN = 0.01
   BMIX = 0.01
   LVTOT = T
   LWAVE = F
   LDIPOL = T
   IDIPOL = 3
   LVDW = T
   IVDW = 12

 POTCAR:    PAW_PBE H 15Jun2001                   
 POTCAR:    PAW_PBE C 08Apr2002                   
 POTCAR:    PAW_PBE N 08Apr2002                   
 POTCAR:    PAW_PBE I 08Apr2002                   
 POTCAR:    PAW_PBE Pb 08Apr2002                  
 WARNING: For LVTOT=.TRUE., VASP.5.x writes the TOTAL local potential to the
     file LOCPOT. If you want only the Hartree contributions, use LVHAR=.TRUE.
     instead. 

 POTCAR:    PAW_PBE H 15Jun2001                   
   SHA256 =  030f79b5d3ab3cf0e668861823c8fb652ff669f3e15e46930bd03bfd63a607b6 H/POTCAR              
   COPYR  = (c) Copyright 15Jun2001 Georg Kresse                                                    
   COPYR  = This file is part of the software VASP. Any use, copying, and all other rights are regul
   COPYR  = If you do not have a valid VASP license, you may not use, copy or distribute this file. 
   VRHFIN =H: ultrasoft test                                                                        
   LEXCH  = PE                                                                                      
   EATOM  =    12.4884 eV,    0.9179 Ry                                                             
                                                                                                    
   TITEL  = PAW_PBE H 15Jun2001                                                                     
   LULTRA =        F    use ultrasoft PP ?                                                          
   IUNSCR =        0    unscreen: 0-lin 1-nonlin 2-no                                               
   RPACOR =    0.000    partial core radius                                                         
   POMASS =    1.000; ZVAL   =    1.000    mass and valenz                                          
   RCORE  =    1.100    outmost cutoff radius                                                       
   RWIGS  =    0.700; RWIGS  =    0.370    wigner-seitz radius (au A)                               
   ENMAX  =  250.000; ENMIN  =  200.000 eV                                                          
   RCLOC  =    0.701    cutoff for local pot                                                        
   LCOR   =        T    correct aug charges                                                         
   LPAW   =        T    paw PP                                                                      
   EAUG   =  400.000                                                                                
   RMAX   =    1.123    core radius for proj-oper                                                   
   RAUG   =    1.200    factor for augmentation sphere                                              
   RDEP   =    1.112    radius for radial grids                                                     
   RDEPT  =    0.926    core radius for aug-charge                                                  
                                                                                                    
   Atomic configuration                                                                             
    2 entries                                                                                       
     n  l   j            E        occ.                                                              
     1  0  0.50        -6.4927   1.0000                                                             
     2  1  0.50        -3.4015   0.0000                                                             
   Description                                                                                      
     l       E           TYP  RCUT    TYP  RCUT                                                     
     0     -6.4927494     23  1.100                                                                 
     0      6.8029130     23  1.100                                                                 
     1     -4.0817478     23  1.100                                                                 
  local pseudopotential read in
  atomic valenz-charges read in
  non local Contribution for L=            0  read in
    real space projection operators read in
  non local Contribution for L=            0  read in
    real space projection operators read in
  non local Contribution for L=            1  read in
    real space projection operators read in
    PAW grid and wavefunctions read in
 
   number of l-projection  operators is LMAX  =            3
   number of lm-projection operators is LMMAX =            5
 
 POTCAR:    PAW_PBE C 08Apr2002                   
   SHA256 =  253f7b50bb8d59471dbedb8285d89021f4a42ed1a2c5d38a03a736e69125dd95 C/POTCAR              
   COPYR  = (c) Copyright 08Apr2002 Georg Kresse                                                    
   COPYR  = This file is part of the software VASP. Any use, copying, and all other rights are regul
   COPYR  = If you do not have a valid VASP license, you may not use, copy or distribute this file. 
   VRHFIN =C: s2p2                                                                                  
   LEXCH  = PE                                                                                      
   EATOM  =   147.1560 eV,   10.8157 Ry                                                             
                                                                                                    
   TITEL  = PAW_PBE C 08Apr2002                                                                     
   LULTRA =        F    use ultrasoft PP ?                                                          
   IUNSCR =        1    unscreen: 0-lin 1-nonlin 2-no                                               
   RPACOR =    1.200    partial core radius                                                         
   POMASS =   12.011; ZVAL   =    4.000    mass and valenz                                          
   RCORE  =    1.500    outmost cutoff radius                                                       
   RWIGS  =    1.630; RWIGS  =    0.863    wigner-seitz radius (au A)                               
   ENMAX  =  400.000; ENMIN  =  300.000 eV                                                          
   ICORE  =        2    local potential                                                             
   LCOR   =        T    correct aug charges                                                         
   LPAW   =        T    paw PP                                                                      
   EAUG   =  644.873                                                                                
   DEXC   =    0.000                                                                                
   RMAX   =    1.529    core radius for proj-oper                                                   
   RAUG   =    1.300    factor for augmentation sphere                                              
   RDEP   =    1.501    radius for radial grids                                                     
   RDEPT  =    1.300    core radius for aug-charge                                                  
                                                                                                    
   Atomic configuration                                                                             
    4 entries                                                                                       
     n  l   j            E        occ.                                                              
     1  0  0.50      -273.3789   2.0000                                                             
     2  0  0.50       -13.7508   2.0000                                                             
     2  1  0.50        -5.2854   2.0000                                                             
     3  2  1.50        -5.4423   0.0000                                                             
   Description                                                                                      
     l       E           TYP  RCUT    TYP  RCUT                                                     
     0    -13.7508458     23  1.200                                                                 
     0     -8.2022199     23  1.200                                                                 
     1     -5.2854383     23  1.500                                                                 
     1     34.0145650     23  1.500                                                                 
     2     -5.4423304      7  1.500                                                                 
  local pseudopotential read in
  partial core-charges read in
  partial kinetic energy density read in
  atomic valenz-charges read in
  non local Contribution for L=            0  read in
    real space projection operators read in
  non local Contribution for L=            0  read in
    real space projection operators read in
  non local Contribution for L=            1  read in
    real space projection operators read in
  non local Contribution for L=            1  read in
    real space projection operators read in
    PAW grid and wavefunctions read in
 
   number of l-projection  operators is LMAX  =            4
   number of lm-projection operators is LMMAX =            8
 
 POTCAR:    PAW_PBE N 08Apr2002                   
   SHA256 =  e053789ff3a61a86a1b75d8a110fcc91f86041011e7b0817c7c99e4e8a6349d7 N/POTCAR              
   COPYR  = (c) Copyright 08Apr2002 Georg Kresse                                                    
   COPYR  = This file is part of the software VASP. Any use, copying, and all other rights are regul
   COPYR  = If you do not have a valid VASP license, you may not use, copy or distribute this file. 
   VRHFIN =N: s2p3                                                                                  
   LEXCH  = PE                                                                                      
   EATOM  =   264.5486 eV,   19.4438 Ry                                                             
                                                                                                    
   TITEL  = PAW_PBE N 08Apr2002                                                                     
   LULTRA =        F    use ultrasoft PP ?                                                          
   IUNSCR =        1    unscreen: 0-lin 1-nonlin 2-no                                               
   RPACOR =    1.200    partial core radius                                                         
   POMASS =   14.001; ZVAL   =    5.000    mass and valenz                                          
   RCORE  =    1.500    outmost cutoff radius                                                       
   RWIGS  =    1.400; RWIGS  =    0.741    wigner-seitz radius (au A)                               
   ENMAX  =  400.000; ENMIN  =  300.000 eV                                                          
   ICORE  =        2    local potential                                                             
   LCOR   =        T    correct aug charges                                                         
   LPAW   =        T    paw PP                                                                      
   EAUG   =  627.112                                                                                
   DEXC   =    0.000                                                                                
   RMAX   =    1.529    core radius for proj-oper                                                   
   RAUG   =    1.300    factor for augmentation sphere                                              
   RDEP   =    1.514    radius for radial grids                                                     
   RDEPT  =    1.338    core radius for aug-charge                                                  
                                                                                                    
   Atomic configuration                                                                             
    4 entries                                                                                       
     n  l   j            E        occ.                                                              
     1  0  0.50      -384.7179   2.0000                                                             
     2  0  0.50       -18.5828   2.0000                                                             
     2  1  0.50        -7.0898   3.0000                                                             
     3  2  1.50        -6.8029   0.0000                                                             
   Description                                                                                      
     l       E           TYP  RCUT    TYP  RCUT                                                     
     0    -18.5828119     23  1.200                                                                 
     0    -13.5018863     23  1.200                                                                 
     1     -7.0897853     23  1.500                                                                 
     1      9.5240782     23  1.500                                                                 
     2     -6.8029130      7  1.500                                                                 
  local pseudopotential read in
  partial core-charges read in
  partial kinetic energy density read in
  atomic valenz-charges read in
  non local Contribution for L=            0  read in
    real space projection operators read in
  non local Contribution for L=            0  read in
    real space projection operators read in
  non local Contribution for L=            1  read in
    real space projection operators read in
  non local Contribution for L=            1  read in
    real space projection operators read in
    PAW grid and wavefunctions read in
 
   number of l-projection  operators is LMAX  =            4
   number of lm-projection operators is LMMAX =            8
 
 POTCAR:    PAW_PBE I 08Apr2002                   
   SHA256 =  e40f3f59b681c1fc3e3091736183c4589116986673d2b852a5012aec72758799 I/POTCAR              
   COPYR  = (c) Copyright 08Apr2002 Georg Kresse                                                    
   COPYR  = This file is part of the software VASP. Any use, copying, and all other rights are regul
   COPYR  = If you do not have a valid VASP license, you may not use, copy or distribute this file. 
   VRHFIN =I : s2p5                                                                                 
   LEXCH  = PE                                                                                      
   EATOM  =   315.8678 eV,   23.2156 Ry                                                             
                                                                                                    
   TITEL  = PAW_PBE I 08Apr2002                                                                     
   LULTRA =        F    use ultrasoft PP ?                                                          
   IUNSCR =        1    unscreen: 0-lin 1-nonlin 2-no                                               
   RPACOR =    2.200    partial core radius                                                         
   POMASS =  126.904; ZVAL   =    7.000    mass and valenz                                          
   RCORE  =    2.300    outmost cutoff radius                                                       
   RWIGS  =    2.810; RWIGS  =    1.487    wigner-seitz radius (au A)                               
   ENMAX  =  175.647; ENMIN  =  131.735 eV                                                          
   ICORE  =        3    local potential                                                             
   LCOR   =        T    correct aug charges                                                         
   LPAW   =        T    paw PP                                                                      
   EAUG   =  370.139                                                                                
   DEXC   =    0.000                                                                                
   RMAX   =    2.359    core radius for proj-oper                                                   
   RAUG   =    1.300    factor for augmentation sphere                                              
   RDEP   =    2.392    radius for radial grids                                                     
   RDEPT  =    2.170    core radius for aug-charge                                                  
                                                                                                    
   Atomic configuration                                                                             
   13 entries                                                                                       
     n  l   j            E        occ.                                                              
     1  0  0.50    -32976.3739   2.0000                                                             
     2  0  0.50     -5094.5933   2.0000                                                             
     2  1  1.50     -4572.0131   6.0000                                                             
     3  0  0.50     -1028.2813   2.0000                                                             
     3  1  1.50      -859.0250   6.0000                                                             
     3  2  2.50      -605.7620  10.0000                                                             
     4  0  0.50      -180.5540   2.0000                                                             
     4  1  1.50      -127.5306   6.0000                                                             
     4  2  2.50       -50.2720  10.0000                                                             
     5  0  0.50       -17.4058   2.0000                                                             
     5  1  0.50        -7.0851   5.0000                                                             
     5  2  1.50        -7.0750   0.0000                                                             
     4  3  2.50        -7.0750   0.0000                                                             
   Description                                                                                      
     l       E           TYP  RCUT    TYP  RCUT                                                     
     0    -17.4058016     23  2.300                                                                 
     0    -18.7663842     23  2.300                                                                 
     1     -7.0850686     23  2.300                                                                 
     1     -4.2150896     23  2.300                                                                 
     2     -7.0750295     23  2.300                                                                 
     3     -1.3605826     23  2.300                                                                 
  local pseudopotential read in
  partial core-charges read in
  partial kinetic energy density read in
  atomic valenz-charges read in
  non local Contribution for L=            0  read in
    real space projection operators read in
  non local Contribution for L=            0  read in
    real space projection operators read in
  non local Contribution for L=            1  read in
    real space projection operators read in
  non local Contribution for L=            1  read in
    real space projection operators read in
  non local Contribution for L=            2  read in
    real space projection operators read in
    PAW grid and wavefunctions read in
 
   number of l-projection  operators is LMAX  =            5
   number of lm-projection operators is LMMAX =           13
 
 POTCAR:    PAW_PBE Pb 08Apr2002                  
   SHA256 =  797118a27cf1bcd06b9881c67a26cdde129e3cd1a551dd4a281f9681ce847303 Pb/POTCAR             
   COPYR  = (c) Copyright 08Apr2002 Georg Kresse                                                    
   COPYR  = This file is part of the software VASP. Any use, copying, and all other rights are regul
   COPYR  = If you do not have a valid VASP license, you may not use, copy or distribute this file. 
   VRHFIN =Pb:                                                                                      
   LEXCH  = PE                                                                                      
   EATOM  =    96.9868 eV,    7.1283 Ry                                                             
                                                                                                    
   TITEL  = PAW_PBE Pb 08Apr2002                                                                    
   LULTRA =        F    use ultrasoft PP ?                                                          
   IUNSCR =        1    unscreen: 0-lin 1-nonlin 2-no                                               
   RPACOR =    2.200    partial core radius                                                         
   POMASS =  207.200; ZVAL   =    4.000    mass and valenz                                          
   RCORE  =    3.100    outmost cutoff radius                                                       
   RWIGS  =    3.260; RWIGS  =    1.725    wigner-seitz radius (au A)                               
   ENMAX  =   97.973; ENMIN  =   73.480 eV                                                          
   ICORE  =        3    local potential                                                             
   LCOR   =        T    correct aug charges                                                         
   LPAW   =        T    paw PP                                                                      
   EAUG   =  234.873                                                                                
   DEXC   =    0.000                                                                                
   RMAX   =    3.158    core radius for proj-oper                                                   
   RAUG   =    1.300    factor for augmentation sphere                                              
   RDEP   =    3.202    radius for radial grids                                                     
   RDEPT  =    2.659    core radius for aug-charge                                                  
                                                                                                    
   Atomic configuration                                                                             
   17 entries                                                                                       
     n  l   j            E        occ.                                                              
     1  0  0.50    -88091.8466   2.0000                                                             
     2  0  0.50    -15753.4197   2.0000                                                             
     2  1  1.50    -13508.1797   6.0000                                                             
     3  0  0.50     -3781.7194   2.0000                                                             
     3  1  1.50     -3138.2529   6.0000                                                             
     3  2  2.50     -2483.2977  10.0000                                                             
     4  0  0.50      -856.2895   2.0000                                                             
     4  1  1.50      -645.4943   6.0000                                                             
     4  2  2.50      -401.8768  10.0000                                                             
     4  3  3.50      -132.9059  14.0000                                                             
     5  0  0.50      -144.0950   2.0000                                                             
     5  1  1.50       -85.7879   6.0000                                                             
     5  2  2.50       -21.1769  10.0000                                                             
     6  0  0.50       -12.0372   2.0000                                                             
     6  1  1.50        -3.4971   2.0000                                                             
     6  2  2.50        -1.3606   0.0000                                                             
     5  3  2.50        -2.7212   0.0000                                                             
   Description                                                                                      
     l       E           TYP  RCUT    TYP  RCUT                                                     
     0    -12.0371566     23  3.100                                                                 
     0    -13.3977392     23  3.100                                                                 
     1     -3.4971341     23  3.100                                                                 
     1     -5.4423304     23  3.100                                                                 
     2     -1.3605826     23  3.100                                                                 
     3     -1.3605826     23  3.100                                                                 
  local pseudopotential read in
  partial core-charges read in
  partial kinetic energy density read in
  atomic valenz-charges read in
  non local Contribution for L=            0  read in
    real space projection operators read in
  non local Contribution for L=            0  read in
    real space projection operators read in
  non local Contribution for L=            1  read in
    real space projection operators read in
  non local Contribution for L=            1  read in
    real space projection operators read in
  non local Contribution for L=            2  read in
    real space projection operators read in
    PAW grid and wavefunctions read in
 
   number of l-projection  operators is LMAX  =            5
   number of lm-projection operators is LMMAX =           13
 
 Optimization of the real space projectors (new method)

 maximal supplied QI-value         = 34.20
 optimisation between [QCUT,QGAM] = [ 11.29, 22.57] = [ 35.68,142.71] Ry 
 Optimized for a Real-space Cutoff    1.16 Angstroem

   l    n(q)    QCUT    max X(q) W(low)/X(q) W(high)/X(q)  e(spline) 
   0      8    11.287    19.460    0.40E-03    0.73E-03    0.16E-06
   0      8    11.287    12.209    0.38E-03    0.70E-03    0.15E-06
   1      7    11.287     4.655    0.22E-03    0.25E-04    0.22E-06
 Optimization of the real space projectors (new method)

 maximal supplied QI-value         = 25.13
 optimisation between [QCUT,QGAM] = [ 11.31, 22.87] = [ 35.82,146.48] Ry 
 Optimized for a Real-space Cutoff    1.00 Angstroem

   l    n(q)    QCUT    max X(q) W(low)/X(q) W(high)/X(q)  e(spline) 
   0      7    11.310   115.676    0.43E-03    0.13E-02    0.19E-06
   0      7    11.310    87.132    0.43E-03    0.13E-02    0.18E-06
   1      6    11.310     4.429    0.42E-03    0.74E-03    0.11E-06
   1      6    11.310     2.733    0.34E-03    0.55E-03    0.92E-07
 Optimization of the real space projectors (new method)

 maximal supplied QI-value         = 25.13
 optimisation between [QCUT,QGAM] = [ 11.31, 22.87] = [ 35.82,146.48] Ry 
 Optimized for a Real-space Cutoff    1.27 Angstroem

   l    n(q)    QCUT    max X(q) W(low)/X(q) W(high)/X(q)  e(spline) 
   0      9    11.310    79.467    0.75E-04    0.16E-03    0.36E-06
   0      9    11.310    66.151    0.74E-04    0.16E-03    0.36E-06
   1      8    11.310    17.416    0.35E-03    0.12E-03    0.95E-06
   1      8    11.310    12.382    0.37E-03    0.13E-03    0.98E-06
 Optimization of the real space projectors (new method)

 maximal supplied QI-value         = 16.25
 optimisation between [QCUT,QGAM] = [ 11.38, 22.75] = [ 36.24,144.96] Ry 
 Optimized for a Real-space Cutoff    1.31 Angstroem

   l    n(q)    QCUT    max X(q) W(low)/X(q) W(high)/X(q)  e(spline) 
   0      9    11.376   194.483    0.24E-03    0.23E-03    0.67E-07
   0      9    11.376   190.334    0.23E-03    0.22E-03    0.65E-07
   1      8    11.376   116.687    0.25E-03    0.63E-04    0.16E-06
   1      8    11.376    88.696    0.25E-03    0.61E-04    0.16E-06
   2      8    11.376     4.877    0.17E-03    0.14E-03    0.29E-07
 Optimization of the real space projectors (new method)

 maximal supplied QI-value         = 12.09
 optimisation between [QCUT,QGAM] = [ 11.37, 22.86] = [ 36.19,146.31] Ry 
 Optimized for a Real-space Cutoff    1.66 Angstroem

   l    n(q)    QCUT    max X(q) W(low)/X(q) W(high)/X(q)  e(spline) 
   0     11    11.369   135.111    0.12E-03    0.69E-04    0.19E-05
   0     11    11.369   146.850    0.11E-03    0.65E-04    0.18E-05
   1     11    11.369   148.016    0.17E-03    0.32E-03    0.89E-06
   1     11    11.369   122.989    0.17E-03    0.32E-03    0.91E-06
   2     10    11.369     8.916    0.12E-03    0.45E-04    0.33E-06
  PAW_PBE H 15Jun2001                   :
 energy of atom  1       EATOM=  -12.4884
 kinetic energy error for atom=    0.0020 (will be added to EATOM!!)
  PAW_PBE C 08Apr2002                   :
 energy of atom  2       EATOM= -147.1560
 kinetic energy error for atom=    0.0076 (will be added to EATOM!!)
  PAW_PBE N 08Apr2002                   :
 energy of atom  3       EATOM= -264.5486
 kinetic energy error for atom=    0.0138 (will be added to EATOM!!)
  PAW_PBE I 08Apr2002                   :
 energy of atom  4       EATOM= -315.8678
 kinetic energy error for atom=    0.0009 (will be added to EATOM!!)
  PAW_PBE Pb 08Apr2002                  :
 energy of atom  5       EATOM=  -96.9868
 kinetic energy error for atom=    0.0000 (will be added to EATOM!!)
 
 
 POSCAR:  H  C  N  I Pb
  positions in cartesian coordinates
  No initial velocities read in
 exchange correlation table for  LEXCH =        8
   RHO(1)=    0.500       N(1)  =     2000
   RHO(2)=  100.500       N(2)  =     4000
 


--------------------------------------------------------------------------------------------------------


 ion  position               nearest neighbor table
   1  0.439  0.300  0.576- 187 0.99
   2  0.440  0.829  0.578- 188 1.00
   3  0.983  0.306  0.581- 189 1.00
   4  0.969  0.798  0.583- 190 1.02
   5  0.318  0.996  0.580- 194 1.04
   6  0.314  0.556  0.580- 195 1.04
   7  0.783  0.067  0.583- 196 1.04
   8  0.055  0.137  0.561- 183 1.01
   9  0.056  0.643  0.557- 184 1.02
  10  0.591  0.196  0.554- 185 1.02
  11  0.547  0.671  0.562- 186 1.01
  12  0.343  0.048  0.558- 194 0.99
  13  0.295  0.609  0.558- 195 0.99
  14  0.847  0.063  0.563- 196 0.99
  15  0.031  0.178  0.584- 183 0.98
  16  0.026  0.674  0.582- 184 1.01
  17  0.566  0.259  0.574- 185 1.01
  18  0.489  0.700  0.583- 186 1.03
  19  0.246  0.434  0.582- 191 1.04
  20  0.187  0.947  0.580- 192 1.04
  21  0.682  0.972  0.582- 193 1.03
  22  0.375  0.264  0.557- 187 1.04
  23  0.471  0.879  0.556- 188 1.03
  24  0.989  0.350  0.557- 189 1.02
  25  0.965  0.848  0.559- 190 1.02
  26  0.186  0.416  0.561- 191 0.99
  27  0.132  0.975  0.559- 192 1.00
  28  0.687  0.909  0.560- 193 1.00
  29  0.466  0.195  0.541- 146 1.10
  30  0.543  0.779  0.543- 147 1.09
  31  0.032  0.238  0.541- 144 1.09
  32  0.019  0.752  0.540- 145 1.12
  33  0.213  0.525  0.543- 148 1.08
  34  0.226  0.041  0.542- 149 1.08
  35  0.792  0.961  0.546- 150 1.08
  36  0.458  0.311  0.675- 205 0.99
  37  0.434  0.815  0.672- 206 1.00
  38  0.969  0.281  0.681- 207 0.99
  39  0.931  0.791  0.675- 208 1.04
  40  0.298  0.053  0.675- 209 0.99
  41  0.302  0.547  0.676- 210 1.00
  42  0.796  0.056  0.675- 211 0.99
  43  0.803  0.581  0.671- 212 1.04
  44  0.082  0.166  0.646- 197 1.04
  45  0.097  0.693  0.656- 198 1.04
  46  0.572  0.162  0.652- 199 1.03
  47  0.574  0.679  0.657- 200 1.00
  48  0.178  0.414  0.649- 201 1.05
  49  0.176  0.915  0.651- 202 1.04
  50  0.692  0.418  0.660- 203 1.00
  51  0.671  0.923  0.649- 204 1.04
  52  0.067  0.179  0.673- 197 1.05
  53  0.043  0.697  0.678- 198 1.04
  54  0.568  0.217  0.675- 199 1.04
  55  0.533  0.718  0.680- 200 1.00
  56  0.210  0.438  0.674- 201 0.99
  57  0.201  0.948  0.676- 202 1.00
  58  0.709  0.482  0.680- 203 1.02
  59  0.692  0.959  0.674- 204 1.00
  60  0.401  0.308  0.653- 205 1.03
  61  0.417  0.832  0.645- 206 1.03
  62  0.931  0.324  0.659- 207 1.00
  63  0.927  0.836  0.651- 208 1.02
  64  0.329  0.079  0.650- 209 1.03
  65  0.323  0.586  0.651- 210 1.04
  66  0.836  0.075  0.650- 211 1.03
  67  0.836  0.579  0.645- 212 0.99
  68  0.996  0.259  0.635- 151 1.12
  69  0.031  0.783  0.637- 152 1.11
  70  0.469  0.213  0.636- 153 1.10
  71  0.507  0.746  0.634- 154 1.11
  72  0.254  0.993  0.632- 156 1.10
  73  0.246  0.504  0.632- 155 1.11
  74  0.762  0.994  0.632- 158 1.10
  75  0.770  0.474  0.636- 157 1.10
  76  0.449  0.301  0.769- 221 1.02
  77  0.449  0.801  0.769- 222 1.02
  78  0.949  0.301  0.769- 223 1.02
  79  0.949  0.801  0.769- 224 1.02
  80  0.301  0.051  0.769- 225 1.02
  81  0.301  0.551  0.769- 226 1.02
  82  0.801  0.051  0.769- 227 1.02
  83  0.801  0.551  0.769- 228 1.02
  84  0.079  0.171  0.743- 213 1.02
  85  0.079  0.671  0.743- 214 1.02
  86  0.579  0.171  0.743- 215 1.02
  87  0.579  0.671  0.743- 216 1.02
  88  0.171  0.421  0.743- 217 1.02
  89  0.171  0.921  0.743- 218 1.02
  90  0.671  0.421  0.743- 219 1.02
  91  0.671  0.921  0.743- 220 1.02
  92  0.051  0.199  0.769- 213 1.02
  93  0.051  0.699  0.769- 214 1.02
  94  0.551  0.199  0.769- 215 1.02
  95  0.551  0.699  0.769- 216 1.02
  96  0.199  0.449  0.769- 217 1.02
  97  0.199  0.949  0.769- 218 1.02
  98  0.699  0.449  0.769- 219 1.02
  99  0.699  0.949  0.769- 220 1.02
 100  0.421  0.329  0.743- 221 1.02
 101  0.421  0.829  0.743- 222 1.02
 102  0.921  0.329  0.743- 223 1.02
 103  0.921  0.829  0.743- 224 1.02
 104  0.329  0.079  0.743- 225 1.02
 105  0.329  0.579  0.743- 226 1.02
 106  0.829  0.079  0.743- 227 1.02
 107  0.829  0.579  0.743- 228 1.02
 108  0.000  0.250  0.726- 161 1.09
 109  0.000  0.750  0.726- 162 1.09
 110  0.500  0.250  0.726- 159 1.09
 111  0.500  0.750  0.726- 160 1.09
 112  0.250  0.000  0.726- 163 1.09
 113  0.250  0.500  0.726- 164 1.09
 114  0.750  0.000  0.726- 165 1.09
 115  0.750  0.500  0.726- 166 1.09
 116  0.776  0.558  0.524- 173 1.09
 117  0.726  0.477  0.528- 173 1.08
 118  0.869  0.504  0.546- 174 1.10
 119  0.851  0.482  0.572- 174 1.10
 120  0.739  0.639  0.563- 175 1.11
 121  0.799  0.592  0.581- 175 1.09
 122  0.659  0.539  0.571- 176 1.09
 123  0.674  0.451  0.561- 176 1.09
 124  0.614  0.547  0.539- 177 1.11
 125  0.669  0.628  0.541- 177 1.07
 126  0.613  0.650  0.509- 178 1.10
 127  0.692  0.605  0.499- 178 1.09
 128  0.830  0.388  0.532- 179 1.10
 129  0.757  0.375  0.551- 179 1.12
 130  0.849  0.359  0.559- 179 1.10
 131  0.859  0.691  0.559- 180 1.10
 132  0.849  0.634  0.536- 180 1.11
 133  0.906  0.604  0.558- 180 1.11
 134  0.758  0.512  0.600- 181 1.09
 135  0.755  0.419  0.592- 181 1.09
 136  0.675  0.463  0.601- 181 1.09
 137  0.541  0.536  0.507- 182 1.08
 138  0.577  0.556  0.482- 182 1.09
 139  0.707  0.492  0.474- 168 1.07
 140  0.550  0.417  0.521- 169 1.11
 141  0.774  0.374  0.476- 170 1.06
 142  0.619  0.296  0.524- 171 1.10
 143  0.731  0.275  0.502- 172 1.07
 144  0.020  0.242  0.558-  31 1.09 189 1.30 183 1.32
 145  0.010  0.745  0.557-  32 1.12 190 1.30 184 1.31
 146  0.483  0.229  0.554-  29 1.10 185 1.30 187 1.34
 147  0.510  0.773  0.558-  30 1.09 186 1.31 188 1.33
 148  0.239  0.512  0.558-  33 1.08 191 1.29 195 1.32
 149  0.237  0.013  0.557-  34 1.08 192 1.29 194 1.32
 150  0.769  0.985  0.561-  35 1.08 196 1.29 193 1.33
 151  0.006  0.246  0.652-  68 1.12 197 1.28 207 1.33
 152  0.013  0.764  0.653-  69 1.11 198 1.27 208 1.31
 153  0.487  0.234  0.652-  70 1.10 199 1.28 205 1.34
 154  0.496  0.755  0.651-  71 1.11 206 1.31 200 1.31
 155  0.252  0.501  0.650-  73 1.11 210 1.29 201 1.33
 156  0.252  0.996  0.650-  72 1.10 202 1.29 209 1.34
 157  0.764  0.498  0.652-  75 1.10 203 1.31 212 1.32
 158  0.753  0.998  0.649-  74 1.10 204 1.29 211 1.34
 159  0.500  0.250  0.743- 110 1.09 221 1.31 215 1.31
 160  0.500  0.750  0.743- 111 1.09 222 1.31 216 1.31
 161  1.000  0.250  0.743- 108 1.09 223 1.31 213 1.31
 162  1.000  0.750  0.743- 109 1.09 224 1.31 214 1.31
 163  0.250  0.000  0.743- 112 1.09 225 1.31 218 1.31
 164  0.250  0.500  0.743- 113 1.09 226 1.31 217 1.31
 165  0.750  0.000  0.743- 114 1.09 227 1.31 220 1.31
 166  0.750  0.500  0.743- 115 1.09 228 1.31 219 1.31
 167  0.625  0.463  0.497- 168 1.40 169 1.40 182 1.51
 168  0.688  0.450  0.485- 139 1.07 167 1.40 170 1.42
 169  0.599  0.407  0.511- 140 1.11 167 1.40 171 1.42
 170  0.726  0.381  0.486- 141 1.06 172 1.41 168 1.42
 171  0.638  0.339  0.513- 142 1.10 172 1.40 169 1.42
 172  0.701  0.326  0.500- 143 1.07 171 1.40 170 1.41
 173  0.733  0.533  0.534- 117 1.08 116 1.09 229 1.49 177 1.53
 174  0.829  0.477  0.556- 118 1.10 119 1.10 229 1.49 179 1.54
 175  0.787  0.601  0.565- 121 1.09 120 1.11 180 1.51 229 1.53
 176  0.701  0.496  0.570- 122 1.09 123 1.09 229 1.49 181 1.50
 177  0.661  0.578  0.532- 125 1.07 124 1.11 173 1.53 178 1.53
 178  0.643  0.597  0.509- 127 1.09 126 1.10 177 1.53 182 1.54
 179  0.815  0.396  0.549- 130 1.10 128 1.10 129 1.12 174 1.54
 180  0.855  0.633  0.554- 131 1.10 132 1.11 133 1.11 175 1.51
 181  0.724  0.471  0.592- 136 1.09 134 1.09 135 1.09 176 1.50
 182  0.592  0.540  0.498- 137 1.08 138 1.09 167 1.51 178 1.54
 183  0.036  0.182  0.569-  15 0.98   8 1.01 144 1.32
 184  0.033  0.684  0.566-  16 1.01   9 1.02 145 1.31
 185  0.551  0.227  0.562-  17 1.01  10 1.02 146 1.30
 186  0.517  0.712  0.569-  11 1.01  18 1.03 147 1.31
 187  0.429  0.270  0.563-   1 0.99  22 1.04 146 1.34
 188  0.469  0.830  0.564-   2 1.00  23 1.03 147 1.33
 189  0.991  0.302  0.566-   3 1.00  24 1.02 144 1.30
 190  0.977  0.800  0.567-   4 1.02  25 1.02 145 1.30
 191  0.223  0.450  0.567-  26 0.99  19 1.04 148 1.29
 192  0.183  0.976  0.565-  27 1.00  20 1.04 149 1.29
 193  0.706  0.955  0.568-  28 1.00  21 1.03 150 1.33
 194  0.304  0.021  0.565-  12 0.99   5 1.04 149 1.32
 195  0.285  0.563  0.566-  13 0.99   6 1.04 148 1.32
 196  0.804  0.039  0.570-  14 0.99   7 1.04 150 1.29
 197  0.053  0.196  0.657-  44 1.04  52 1.05 151 1.28
 198  0.051  0.717  0.663-  53 1.04  45 1.04 152 1.27
 199  0.545  0.204  0.660-  46 1.03  54 1.04 153 1.28
 200  0.538  0.714  0.664-  47 1.00  55 1.00 154 1.31
 201  0.211  0.448  0.659-  56 0.99  48 1.05 155 1.33
 202  0.208  0.951  0.660-  57 1.00  49 1.04 156 1.29
 203  0.718  0.464  0.665-  50 1.00  58 1.02 157 1.31
 204  0.703  0.958  0.659-  59 1.00  51 1.04 158 1.29
 205  0.447  0.289  0.661-  36 0.99  60 1.03 153 1.34
 206  0.446  0.804  0.657-  37 1.00  61 1.03 154 1.31
 207  0.965  0.287  0.665-  38 0.99  62 1.00 151 1.33
 208  0.953  0.798  0.660-  63 1.02  39 1.04 152 1.31
 209  0.296  0.046  0.659-  40 0.99  64 1.03 156 1.34
 210  0.294  0.546  0.660-  41 1.00  65 1.04 155 1.29
 211  0.798  0.047  0.659-  42 0.99  66 1.03 158 1.34
 212  0.804  0.557  0.656-  67 0.99  43 1.04 157 1.32
 213  0.046  0.204  0.753-  92 1.02  84 1.02 161 1.31
 214  0.046  0.704  0.753-  93 1.02  85 1.02 162 1.31
 215  0.546  0.204  0.753-  94 1.02  86 1.02 159 1.31
 216  0.546  0.704  0.753-  95 1.02  87 1.02 160 1.31
 217  0.204  0.454  0.753-  96 1.02  88 1.02 164 1.31
 218  0.204  0.954  0.753-  97 1.02  89 1.02 163 1.31
 219  0.704  0.454  0.753-  98 1.02  90 1.02 166 1.31
 220  0.704  0.954  0.753-  99 1.02  91 1.02 165 1.31
 221  0.454  0.296  0.753-  76 1.02 100 1.02 159 1.31
 222  0.454  0.796  0.753-  77 1.02 101 1.02 160 1.31
 223  0.954  0.296  0.753-  78 1.02 102 1.02 161 1.31
 224  0.954  0.796  0.753-  79 1.02 103 1.02 162 1.31
 225  0.296  0.046  0.753-  80 1.02 104 1.02 163 1.31
 226  0.296  0.546  0.753-  81 1.02 105 1.02 164 1.31
 227  0.796  0.046  0.753-  82 1.02 106 1.02 165 1.31
 228  0.796  0.546  0.753-  83 1.02 107 1.02 166 1.31
 229  0.762  0.526  0.556- 174 1.49 176 1.49 173 1.49 175 1.53
 230  0.494  0.019  0.552- 304 3.20
 231  0.471  0.514  0.558- 305 3.02
 232  0.996  0.995  0.551- 302 3.35
 233  0.035  0.492  0.552- 303 3.37
 234  0.234  0.240  0.552- 306 3.18
 235  0.256  0.754  0.553- 307 3.09
 236  0.748  0.213  0.556- 308 3.08
 237  0.721  0.785  0.547- 309 3.58
 238  0.001  0.996  0.654- 302 3.11 310 3.17
 239  0.013  0.501  0.655- 303 3.10 311 3.13
 240  0.494  0.999  0.654- 304 3.19 312 3.20
 241  0.507  0.488  0.656- 313 3.04 305 3.18
 242  0.253  0.247  0.654- 314 3.17 306 3.21
 243  0.250  0.752  0.655- 315 3.14 307 3.28
 244  0.741  0.256  0.655- 316 3.10 308 3.22
 245  0.753  0.757  0.654- 309 3.15 317 3.19
 246  0.144  0.106  0.611- 306 3.18 302 3.30
 247  0.146  0.608  0.608- 307 3.14 303 3.18
 248  0.650  0.104  0.609- 308 3.18 304 3.26
 249  0.618  0.635  0.615- 309 3.25 305 3.38
 250  0.351  0.391  0.607- 306 3.24 305 3.24
 251  0.359  0.892  0.607- 304 3.28 307 3.31
 252  0.891  0.363  0.614- 303 3.29 308 3.37
 253  0.862  0.891  0.607- 302 3.13 309 3.24
 254  0.114  0.356  0.611- 306 3.11 303 3.26
 255  0.110  0.861  0.607- 307 3.25 302 3.25
 256  0.578  0.329  0.608- 305 3.38 308 3.38
 257  0.612  0.863  0.610- 309 3.13 304 3.30
 258  0.383  0.132  0.609- 304 3.13 306 3.29
 259  0.386  0.638  0.613- 307 3.25 305 3.26
 260  0.889  0.142  0.612- 302 3.24 308 3.27
 261  0.915  0.652  0.615- 303 3.27 309 3.66
 262  0.000  0.000  0.755- 310 3.13 318 3.27
 263  0.000  0.500  0.755- 311 3.13 319 3.27
 264  0.500  0.000  0.755- 312 3.13 320 3.27
 265  0.500  0.500  0.755- 313 3.13 321 3.27
 266  0.250  0.250  0.755- 314 3.13 322 3.27
 267  0.250  0.750  0.755- 315 3.13 323 3.27
 268  0.750  0.250  0.755- 316 3.13 324 3.27
 269  0.750  0.750  0.755- 317 3.13 325 3.27
 270  0.136  0.114  0.705- 310 3.20 314 3.20
 271  0.136  0.614  0.705- 311 3.20 315 3.20
 272  0.636  0.114  0.705- 312 3.20 316 3.20
 273  0.636  0.614  0.705- 313 3.20 317 3.20
 274  0.364  0.386  0.705- 313 3.20 314 3.20
 275  0.364  0.886  0.705- 312 3.20 315 3.20
 276  0.864  0.386  0.705- 311 3.20 316 3.20
 277  0.864  0.886  0.705- 310 3.20 317 3.20
 278  0.114  0.364  0.705- 314 3.21 311 3.21
 279  0.114  0.864  0.705- 315 3.21 310 3.21
 280  0.614  0.364  0.705- 316 3.21 313 3.21
 281  0.614  0.864  0.705- 317 3.21 312 3.21
 282  0.386  0.136  0.705- 314 3.21 312 3.21
 283  0.386  0.636  0.705- 315 3.21 313 3.21
 284  0.886  0.136  0.705- 316 3.21 310 3.21
 285  0.886  0.636  0.705- 317 3.21 311 3.21
 286  0.135  0.115  0.801- 318 3.22 322 3.22
 287  0.135  0.615  0.801- 319 3.22 323 3.22
 288  0.635  0.115  0.801- 320 3.22 324 3.22
 289  0.635  0.615  0.801- 321 3.22 325 3.22
 290  0.365  0.385  0.801- 321 3.22 322 3.22
 291  0.365  0.885  0.801- 320 3.22 323 3.22
 292  0.865  0.385  0.801- 319 3.22 324 3.22
 293  0.865  0.885  0.801- 318 3.22 325 3.22
 294  0.115  0.365  0.801- 319 3.23 322 3.23
 295  0.115  0.865  0.801- 318 3.23 323 3.23
 296  0.615  0.365  0.801- 321 3.23 324 3.23
 297  0.615  0.865  0.801- 320 3.23 325 3.23
 298  0.385  0.135  0.801- 320 3.23 322 3.23
 299  0.385  0.635  0.801- 321 3.23 323 3.23
 300  0.885  0.135  0.801- 318 3.23 324 3.23
 301  0.885  0.635  0.801- 319 3.23 325 3.23
 302  0.996  0.001  0.604- 238 3.11 253 3.13 260 3.24 255 3.25 246 3.30 232 3.35
 303  0.007  0.500  0.605- 239 3.10 247 3.18 254 3.26 261 3.27 252 3.29 233 3.37
 304  0.500  0.006  0.603- 258 3.13 240 3.19 230 3.20 248 3.26 251 3.28 257 3.30
 305  0.496  0.497  0.606- 231 3.02 241 3.18 250 3.24 259 3.26 249 3.38 256 3.38
 306  0.244  0.248  0.603- 254 3.11 246 3.18 234 3.18 242 3.21 250 3.24 258 3.29
 307  0.248  0.747  0.602- 235 3.09 247 3.14 255 3.25 259 3.25 243 3.28 251 3.31
 308  0.747  0.250  0.604- 236 3.08 248 3.18 244 3.22 260 3.27 252 3.37 256 3.38
 309  0.746  0.756  0.603- 257 3.13 245 3.15 253 3.24 249 3.25 237 3.58 261 3.66
 310  0.000  0.000  0.705- 262 3.13 238 3.17 270 3.20 277 3.20 279 3.21 284 3.21
 311  0.000  0.500  0.705- 239 3.13 263 3.13 271 3.20 276 3.20 278 3.21 285 3.21
 312  0.500  0.000  0.705- 264 3.13 240 3.20 272 3.20 275 3.20 281 3.21 282 3.21
 313  0.500  0.500  0.705- 241 3.04 265 3.13 273 3.20 274 3.20 280 3.21 283 3.21
 314  0.250  0.250  0.705- 266 3.13 242 3.17 270 3.20 274 3.20 282 3.21 278 3.21
 315  0.250  0.750  0.705- 267 3.13 243 3.14 271 3.20 275 3.20 283 3.21 279 3.21
 316  0.750  0.250  0.705- 244 3.10 268 3.13 272 3.20 276 3.20 284 3.21 280 3.21
 317  0.750  0.750  0.705- 269 3.13 245 3.19 273 3.20 277 3.20 285 3.21 281 3.21
 318  0.000  0.000  0.807- 286 3.22 293 3.22 300 3.23 295 3.23 262 3.27
 319  0.000  0.500  0.807- 287 3.22 292 3.22 301 3.23 294 3.23 263 3.27
 320  0.500  0.000  0.807- 288 3.22 291 3.22 298 3.23 297 3.23 264 3.27
 321  0.500  0.500  0.807- 289 3.22 290 3.22 299 3.23 296 3.23 265 3.27
 322  0.250  0.250  0.807- 290 3.22 286 3.22 294 3.23 298 3.23 266 3.27
 323  0.250  0.750  0.807- 291 3.22 287 3.22 299 3.23 295 3.23 267 3.27
 324  0.750  0.250  0.807- 292 3.22 288 3.22 296 3.23 300 3.23 268 3.27
 325  0.750  0.750  0.807- 293 3.22 289 3.22 297 3.23 301 3.23 269 3.27
 

IMPORTANT INFORMATION: All symmetrisations will be switched off!
NOSYMM: (Re-)initialisation of all symmetry stuff for point group C_1.


----------------------------------------------------------------------------------------

                                     Primitive cell                                     

  volume of cell :   20385.2105

  direct lattice vectors                    reciprocal lattice vectors
    18.060800552  0.000000000  0.000000000     0.055368531  0.000015077 -0.000000000
    -0.004918649 18.062799454  0.000000000     0.000000000  0.055362404  0.000000000
     0.000000000  0.000000000 62.487499237     0.000000000 -0.000000000  0.016003201

  length of vectors
    18.060800552 18.062800123 62.487499237     0.055368533  0.055362404  0.016003201

  position of ions in fractional coordinates (direct lattice)
     0.438944564  0.300181682  0.575730204
     0.439614382  0.829420179  0.577711497
     0.983321185  0.306455976  0.581354010
     0.969032745  0.797727777  0.582982265
     0.317713416  0.996304299  0.579702801
     0.314244128  0.556487629  0.580069207
     0.782837835  0.066586707  0.582936113
     0.054946110  0.136911056  0.561040010
     0.056073271  0.642636690  0.557492914
     0.590697359  0.195955941  0.554346777
     0.547430835  0.670652418  0.562133430
     0.343307383  0.048199729  0.557782279
     0.295113675  0.609449532  0.557970182
     0.847403433  0.062743866  0.562900734
     0.030694640  0.177764519  0.584424204
     0.025637720  0.673625087  0.582146466
     0.565718888  0.259099842  0.574042306
     0.489431354  0.700076050  0.582666223
     0.245942763  0.433839014  0.582090424
     0.186670686  0.946820831  0.579799500
     0.681931097  0.972141348  0.581611386
     0.374879713  0.263639785  0.557168142
     0.471266590  0.878742737  0.555805626
     0.989175685  0.350126118  0.556744290
     0.965495040  0.848240712  0.559073919
     0.185740660  0.416139350  0.561228586
     0.132340238  0.975097742  0.558561670
     0.686637024  0.909206648  0.560395961
     0.466468300  0.194583571  0.540611486
     0.542615891  0.779230313  0.543152705
     0.032427548  0.237876776  0.540657821
     0.018819135  0.751722921  0.539776541
     0.213083224  0.525264704  0.543481750
     0.225690914  0.041310101  0.542298835
     0.792497107  0.961395521  0.546388764
     0.458384591  0.310672348  0.674812400
     0.433546953  0.815031696  0.672194933
     0.968556501  0.281391481  0.681081903
     0.931065995  0.791293110  0.675102680
     0.298106542  0.053040919  0.675028508
     0.302394044  0.546534628  0.675916747
     0.795699256  0.056148971  0.674775161
     0.803160474  0.581481639  0.670755009
     0.082399057  0.166335929  0.645634628
     0.097414674  0.692667054  0.655829721
     0.571897294  0.162425401  0.651871776
     0.574316839  0.679264568  0.657088884
     0.178071945  0.413802497  0.648974774
     0.176345198  0.914565562  0.650504071
     0.692105979  0.418116888  0.659566247
     0.670830337  0.922978388  0.649381837
     0.066669473  0.179344623  0.672712432
     0.042587295  0.697375922  0.678466817
     0.568328084  0.217077385  0.674691160
     0.533387313  0.717781073  0.679566158
     0.209740982  0.437763731  0.674392272
     0.200609730  0.948238125  0.675524640
     0.708565167  0.481928455  0.679977190
     0.691507345  0.958985180  0.674429206
     0.400921812  0.307543820  0.652601598
     0.417098149  0.831618781  0.645211814
     0.931015820  0.323710107  0.658646691
     0.927210799  0.836265348  0.650583555
     0.329152865  0.079227302  0.649838838
     0.323048196  0.585866699  0.651214968
     0.835967629  0.075218709  0.650050123
     0.836107633  0.578634470  0.644563369
     0.996080448  0.258863546  0.634897190
     0.030674559  0.782812162  0.636889165
     0.468793306  0.213049369  0.636240781
     0.506864119  0.745801870  0.633801023
     0.254495607  0.993281841  0.632346265
     0.245646051  0.504476400  0.632357497
     0.762460626  0.993670327  0.632126677
     0.769722738  0.474275534  0.635824621
     0.448745018  0.301283966  0.768889017
     0.448745007  0.801283913  0.768889017
     0.948744965  0.301283966  0.768889017
     0.948745007  0.801283913  0.768889017
     0.301275995  0.051294496  0.768872961
     0.301276011  0.551294499  0.768872961
     0.801275943  0.051294496  0.768872961
     0.801275984  0.551294499  0.768872961
     0.078771004  0.171180501  0.743441971
     0.078771006  0.671180448  0.743441971
     0.578771004  0.171180501  0.743441971
     0.578770992  0.671180448  0.743441971
     0.171199499  0.421174482  0.743421032
     0.171199501  0.921174508  0.743421032
     0.671199512  0.421174482  0.743421032
     0.671199501  0.921174508  0.743421032
     0.051256000  0.198714991  0.768889017
     0.051256002  0.698714925  0.768889017
     0.551256027  0.198714991  0.768889017
     0.551256016  0.698714925  0.768889017
     0.198723491  0.448703970  0.768872046
     0.198723493  0.948703970  0.768872046
     0.698723518  0.448703970  0.768872046
     0.698723507  0.948703970  0.768872046
     0.421231519  0.328817467  0.743441971
     0.421231508  0.828817440  0.743441971
     0.921231466  0.328817467  0.743441971
     0.921231508  0.828817440  0.743441971
     0.328800503  0.078824997  0.743421032
     0.328800492  0.578824964  0.743421032
     0.828800477  0.078824997  0.743421032
     0.828800519  0.578824964  0.743421032
     0.000003500  0.250001478  0.725821992
     0.000003500  0.750001452  0.725821992
     0.500003506  0.250001478  0.725821992
     0.500003495  0.750001452  0.725821992
     0.250000502  0.000000000  0.725803983
     0.250000517  0.500000000  0.725803983
     0.750000502  0.000000000  0.725803983
     0.750000490  0.500000000  0.725803983
     0.776299694  0.557879059  0.523949401
     0.725976448  0.477462614  0.527940067
     0.868802190  0.504281999  0.545719991
     0.851076322  0.482052213  0.572389265
     0.739068740  0.638857377  0.563312926
     0.799229541  0.592050419  0.581487704
     0.659067198  0.539208841  0.571153972
     0.674159682  0.451434931  0.561285848
     0.614287423  0.547187841  0.538760652
     0.668850180  0.628262621  0.540886321
     0.613198586  0.650428522  0.508571264
     0.692237149  0.605240447  0.498765500
     0.830468195  0.388166995  0.532342986
     0.757172469  0.375289846  0.550972140
     0.848786494  0.359310991  0.559221226
     0.858520569  0.691463741  0.559117262
     0.849092894  0.633594027  0.536056986
     0.906314742  0.603609367  0.558275908
     0.758281386  0.511559529  0.599865098
     0.755121680  0.418511234  0.591619308
     0.674665826  0.462759404  0.601268760
     0.540769422  0.535965848  0.506976951
     0.577086857  0.556134993  0.481681242
     0.707069671  0.491836842  0.473978285
     0.549564678  0.417233661  0.520996295
     0.773885151  0.373507818  0.476458792
     0.618589281  0.295927771  0.523717726
     0.730555626  0.274854281  0.501531098
     0.020173988  0.241867491  0.557706030
     0.009637185  0.744570152  0.557318258
     0.483338557  0.228703360  0.554295375
     0.510312070  0.773278903  0.557878794
     0.239352959  0.512070716  0.558493603
     0.236609695  0.012849254  0.557137191
     0.768553722  0.985488568  0.560576050
     0.005766552  0.245835027  0.652152411
     0.012850048  0.764463429  0.653074654
     0.486925697  0.234075526  0.651961028
     0.496363042  0.755168974  0.651162711
     0.251829442  0.500659232  0.649983154
     0.252091091  0.996089112  0.649923938
     0.763512571  0.497756837  0.651892777
     0.752526297  0.998221712  0.649498377
     0.499988984  0.249994984  0.743277021
     0.499989025  0.749994958  0.743277021
     0.999988984  0.249994984  0.743277021
     0.999989025  0.749994958  0.743277021
     0.250000502  0.000001000  0.743255960
     0.250000517  0.500001003  0.743255960
     0.750000502  0.000001000  0.743255960
     0.750000491  0.500001003  0.743255960
     0.625210032  0.462786278  0.497303874
     0.687501432  0.449822647  0.484518296
     0.599434539  0.407446102  0.511135436
     0.725653308  0.381164435  0.485895525
     0.637607998  0.338734723  0.512587875
     0.700817707  0.326168368  0.500172276
     0.732841053  0.533054055  0.533824850
     0.828542163  0.476885007  0.556172154
     0.787454481  0.601061720  0.564530577
     0.701148802  0.496464085  0.569900730
     0.661401444  0.578226238  0.531849907
     0.642769082  0.597429818  0.508544891
     0.815124045  0.396427459  0.549219470
     0.855115659  0.633375603  0.553661154
     0.724307164  0.470655195  0.591720036
     0.591751715  0.539627052  0.497964650
     0.036157769  0.181913231  0.568816102
     0.032581678  0.683612987  0.566414437
     0.550640656  0.226640818  0.561599570
     0.517440396  0.711641175  0.568764517
     0.428990276  0.269928282  0.562753488
     0.468593437  0.829784589  0.564128397
     0.991233806  0.302224241  0.565508616
     0.977101834  0.799938945  0.566865455
     0.223252975  0.449739860  0.567470740
     0.182678235  0.975609214  0.565364178
     0.706377043  0.954749993  0.567544668
     0.303711688  0.021134750  0.565315951
     0.285320372  0.563058883  0.565885462
     0.804375923  0.038652908  0.569737856
     0.052757764  0.195821360  0.657156952
     0.051301045  0.716653103  0.662987586
     0.544868049  0.204085468  0.660045591
     0.538051430  0.714214747  0.663671011
     0.210752863  0.447675945  0.658735332
     0.207666189  0.951262074  0.659630897
     0.717812193  0.463565784  0.664805577
     0.702623925  0.958431735  0.658767687
     0.446674866  0.288527856  0.660711313
     0.446127657  0.803670950  0.656929429
     0.965125969  0.286731177  0.665355003
     0.953273493  0.798161352  0.659956829
     0.296277078  0.046232054  0.659326881
     0.294061406  0.546434788  0.660085333
     0.797796971  0.046799574  0.659173225
     0.803671522  0.557496751  0.655670937
     0.045862501  0.204119496  0.752725994
     0.045862500  0.704119456  0.752725994
     0.545862507  0.204119496  0.752725994
     0.545862496  0.704119456  0.752725994
     0.204119002  0.454101003  0.752704994
     0.204118991  0.954100951  0.752704994
     0.704118976  0.454101003  0.752704994
     0.704118964  0.954100951  0.752704994
     0.454140018  0.295888490  0.752726971
     0.454140007  0.795888516  0.752726971
     0.954140018  0.295888490  0.752726971
     0.954140060  0.795888516  0.752726971
     0.295882492  0.045900498  0.752704994
     0.295882481  0.545900528  0.752704994
     0.795882439  0.045900498  0.752704994
     0.795882481  0.545900528  0.752704994
     0.761924505  0.525680539  0.556104636
     0.493505784  0.018562506  0.551630902
     0.470563057  0.514112509  0.558091178
     0.995913733  0.994826010  0.550852304
     0.035041560  0.491744868  0.552181732
     0.234076398  0.240304784  0.552043277
     0.256228081  0.753776435  0.552824134
     0.748316166  0.213053857  0.555769913
     0.720504910  0.784649205  0.547049480
     0.000814821  0.996076414  0.654173995
     0.013246476  0.500786369  0.654931470
     0.493786975  0.999218938  0.653718703
     0.506948498  0.487534357  0.656430611
     0.253353614  0.246561338  0.654065330
     0.249751153  0.751575932  0.654590216
     0.740935943  0.256377540  0.655384137
     0.753111667  0.757066313  0.653744465
     0.144174133  0.105537275  0.610628359
     0.146325571  0.607603091  0.607593694
     0.650243369  0.104166891  0.608982827
     0.617935724  0.635011804  0.614546379
     0.350637703  0.391189346  0.607433140
     0.358911415  0.892312116  0.607207264
     0.890893871  0.363119923  0.614422330
     0.862155238  0.891133460  0.607179732
     0.113955601  0.356384810  0.610700822
     0.109652800  0.860887874  0.606579881
     0.577728106  0.328518077  0.608462276
     0.612068288  0.863178238  0.610067394
     0.382980681  0.131721266  0.608564652
     0.386463337  0.637961084  0.612575892
     0.888797542  0.141595242  0.612087940
     0.915073029  0.652372745  0.615162591
     0.000000000  0.000000000  0.754927972
     0.000000000  0.500000000  0.754927972
     0.500000000  0.000000000  0.754927972
     0.499999989  0.500000000  0.754927972
     0.250000496  0.250000000  0.754939022
     0.250000511  0.749999974  0.754939022
     0.750000470  0.250000000  0.754939022
     0.750000458  0.749999974  0.754939022
     0.135790500  0.114209997  0.704782994
     0.135790502  0.614209984  0.704782994
     0.635790447  0.114209997  0.704782994
     0.635790488  0.614209984  0.704782994
     0.364209516  0.385789989  0.704782994
     0.364209505  0.885789963  0.704782994
     0.864209542  0.385789989  0.704782994
     0.864209531  0.885789963  0.704782994
     0.114217990  0.364218986  0.704780979
     0.114217992  0.864218986  0.704780979
     0.614218004  0.364218986  0.704780979
     0.614217992  0.864218986  0.704780979
     0.385782012  0.135781489  0.704782017
     0.385782001  0.635781489  0.704782017
     0.885781985  0.135781489  0.704782017
     0.885782027  0.635781489  0.704782017
     0.134667000  0.115332001  0.801256025
     0.134666989  0.615331988  0.801256025
     0.634666987  0.115332001  0.801256025
     0.634666976  0.615331988  0.801256025
     0.365333002  0.384667985  0.801256025
     0.365332990  0.884667959  0.801256025
     0.865332949  0.384667985  0.801256025
     0.865332938  0.884667959  0.801256025
     0.115328503  0.365337004  0.801264999
     0.115328505  0.865336978  0.801264999
     0.615328503  0.365337004  0.801264999
     0.615328492  0.865336978  0.801264999
     0.384671513  0.134662996  0.801264999
     0.384671501  0.634662970  0.801264999
     0.884671486  0.134662996  0.801264999
     0.884671528  0.634662970  0.801264999
     0.996367831  0.000575169  0.604495846
     0.006726033  0.500292816  0.605357163
     0.500290265  0.005637854  0.602712225
     0.496054829  0.496524327  0.605647931
     0.244241527  0.247566712  0.602749036
     0.248163881  0.747414470  0.602127391
     0.746964403  0.250311665  0.603922061
     0.745641590  0.755664481  0.603333992
     0.000000500  0.000000500  0.704828963
     0.000000500  0.500000475  0.704828963
     0.500000475  0.000000500  0.704828963
     0.500000464  0.500000475  0.704828963
     0.249999994  0.249999472  0.704824995
     0.250000010  0.749999498  0.704824995
     0.749999994  0.249999472  0.704824995
     0.749999983  0.749999498  0.704824995
     0.000000000  0.000000000  0.807317968
     0.000000000  0.500000000  0.807317968
     0.500000000  0.000000000  0.807317968
     0.499999989  0.500000000  0.807317968
     0.249999994  0.250000000  0.807317968
     0.250000010  0.749999974  0.807317968
     0.749999994  0.250000000  0.807317968
     0.749999983  0.749999974  0.807317968

  ion indices of the primitive-cell ions
   primitive index   ion index
                 1           1
                 2           2
                 3           3
                 4           4
                 5           5
                 6           6
                 7           7
                 8           8
                 9           9
                10          10
                11          11
                12          12
                13          13
                14          14
                15          15
                16          16
                17          17
                18          18
                19          19
                20          20
                21          21
                22          22
                23          23
                24          24
                25          25
                26          26
                27          27
                28          28
                29          29
                30          30
                31          31
                32          32
                33          33
                34          34
                35          35
                36          36
                37          37
                38          38
                39          39
                40          40
                41          41
                42          42
                43          43
                44          44
                45          45
                46          46
                47          47
                48          48
                49          49
                50          50
                51          51
                52          52
                53          53
                54          54
                55          55
                56          56
                57          57
                58          58
                59          59
                60          60
                61          61
                62          62
                63          63
                64          64
                65          65
                66          66
                67          67
                68          68
                69          69
                70          70
                71          71
                72          72
                73          73
                74          74
                75          75
                76          76
                77          77
                78          78
                79          79
                80          80
                81          81
                82          82
                83          83
                84          84
                85          85
                86          86
                87          87
                88          88
                89          89
                90          90
                91          91
                92          92
                93          93
                94          94
                95          95
                96          96
                97          97
                98          98
                99          99
               100         100
               101         101
               102         102
               103         103
               104         104
               105         105
               106         106
               107         107
               108         108
               109         109
               110         110
               111         111
               112         112
               113         113
               114         114
               115         115
               116         116
               117         117
               118         118
               119         119
               120         120
               121         121
               122         122
               123         123
               124         124
               125         125
               126         126
               127         127
               128         128
               129         129
               130         130
               131         131
               132         132
               133         133
               134         134
               135         135
               136         136
               137         137
               138         138
               139         139
               140         140
               141         141
               142         142
               143         143
               144         144
               145         145
               146         146
               147         147
               148         148
               149         149
               150         150
               151         151
               152         152
               153         153
               154         154
               155         155
               156         156
               157         157
               158         158
               159         159
               160         160
               161         161
               162         162
               163         163
               164         164
               165         165
               166         166
               167         167
               168         168
               169         169
               170         170
               171         171
               172         172
               173         173
               174         174
               175         175
               176         176
               177         177
               178         178
               179         179
               180         180
               181         181
               182         182
               183         183
               184         184
               185         185
               186         186
               187         187
               188         188
               189         189
               190         190
               191         191
               192         192
               193         193
               194         194
               195         195
               196         196
               197         197
               198         198
               199         199
               200         200
               201         201
               202         202
               203         203
               204         204
               205         205
               206         206
               207         207
               208         208
               209         209
               210         210
               211         211
               212         212
               213         213
               214         214
               215         215
               216         216
               217         217
               218         218
               219         219
               220         220
               221         221
               222         222
               223         223
               224         224
               225         225
               226         226
               227         227
               228         228
               229         229
               230         230
               231         231
               232         232
               233         233
               234         234
               235         235
               236         236
               237         237
               238         238
               239         239
               240         240
               241         241
               242         242
               243         243
               244         244
               245         245
               246         246
               247         247
               248         248
               249         249
               250         250
               251         251
               252         252
               253         253
               254         254
               255         255
               256         256
               257         257
               258         258
               259         259
               260         260
               261         261
               262         262
               263         263
               264         264
               265         265
               266         266
               267         267
               268         268
               269         269
               270         270
               271         271
               272         272
               273         273
               274         274
               275         275
               276         276
               277         277
               278         278
               279         279
               280         280
               281         281
               282         282
               283         283
               284         284
               285         285
               286         286
               287         287
               288         288
               289         289
               290         290
               291         291
               292         292
               293         293
               294         294
               295         295
               296         296
               297         297
               298         298
               299         299
               300         300
               301         301
               302         302
               303         303
               304         304
               305         305
               306         306
               307         307
               308         308
               309         309
               310         310
               311         311
               312         312
               313         313
               314         314
               315         315
               316         316
               317         317
               318         318
               319         319
               320         320
               321         321
               322         322
               323         323
               324         324
               325         325

----------------------------------------------------------------------------------------

 
 
 KPOINTS: Automatic Mesh                          

Automatic generation of k-mesh.
 Grid dimensions read from file:
 generate k-points for:    3    3    1

 Generating k-lattice:

  Cartesian coordinates                     Fractional coordinates (reciprocal lattice)
     0.018456177  0.000005026 -0.000000000     0.333333333  0.000000000  0.000000000
     0.000000000  0.018454135  0.000000000     0.000000000  0.333333333  0.000000000
     0.000000000 -0.000000000  0.016003201     0.000000000  0.000000000  1.000000000

  Length of vectors
     0.018456178  0.018454135  0.016003201

  Shift w.r.t. Gamma in fractional coordinates (k-lattice)
     0.000000000  0.000000000  0.000000000

 
 Subroutine IBZKPT returns following result:
 ===========================================
 
 Found      5 irreducible k-points:
 
 Following reciprocal coordinates:
            Coordinates               Weight
  0.000000  0.000000  0.000000      1.000000
  0.333333  0.000000  0.000000      2.000000
  0.000000  0.333333  0.000000      2.000000
  0.333333  0.333333  0.000000      2.000000
 -0.333333  0.333333  0.000000      2.000000
 
 Following cartesian coordinates:
            Coordinates               Weight
  0.000000  0.000000  0.000000      1.000000
  0.018456  0.000005  0.000000      2.000000
  0.000000  0.018454  0.000000      2.000000
  0.018456  0.018459  0.000000      2.000000
 -0.018456  0.018449  0.000000      2.000000
 


--------------------------------------------------------------------------------------------------------




 Dimension of arrays:
   k-points           NKPTS =      5   k-points in BZ     NKDIM =      5   number of bands    NBANDS=    732
   number of dos      NEDOS =    301   number of ions     NIONS =    325
   non local maximal  LDIM  =      5   non local SUM 2l+1 LMDIM =     13
   total plane-waves  NPLWV = ******
   max r-space proj   IRMAX =   3336   max aug-charges    IRDMAX=  19845
   dimension x,y,z NGX =   100 NGY =  100 NGZ =  350
   dimension x,y,z NGXF=   200 NGYF=  200 NGZF=  700
   support grid    NGXF=   200 NGYF=  200 NGZF=  700
   ions per type =             143  39  47  72  24
   NGX,Y,Z   is equivalent  to a cutoff of   9.20,  9.20,  9.31 a.u.
   NGXF,Y,Z  is equivalent  to a cutoff of  18.41, 18.41, 18.62 a.u.

 SYSTEM =  PSC                                     
 POSCAR =   H  C  N  I Pb                          

 Startparameter for this run:
   NWRITE =      2    write-flag & timer
   PREC   = normal    normal or accurate (medium, high low for compatibility)
   ISTART =      0    job   : 0-new  1-cont  2-samecut
   ICHARG =      1    charge: 1-file 2-atom 10-const
   ISPIN  =      1    spin polarized calculation?
   LNONCOLLINEAR =      F non collinear calculations
   LSORBIT =      F    spin-orbit coupling
   INIWAV =      1    electr: 0-lowe 1-rand  2-diag
   LASPH  =      F    aspherical Exc in radial PAW
 Electronic Relaxation 1
   ENCUT  =  500.0 eV  36.75 Ry    6.06 a.u.  32.93 32.93113.93*2*pi/ulx,y,z
   ENINI  =  500.0     initial cutoff
   ENAUG  =  644.9 eV  augmentation charge cutoff
   NELM   =    600;   NELMIN=  2; NELMDL=  0     # of ELM steps 
   EDIFF  = 0.1E-03   stopping-criterion for ELM
   LREAL  =      T    real-space projection
   NLSPLINE    = F    spline interpolate recip. space projectors
   LCOMPAT=      F    compatible to vasp.4.4
   GGA_COMPAT  = F    GGA compatible to vasp.4.4-vasp.4.6
   LMAXPAW     = -100 max onsite density
   LMAXMIX     =    2 max onsite mixed and CHGCAR
   VOSKOWN=      0    Vosko Wilk Nusair interpolation
   ROPT   =   -0.00050  -0.00050  -0.00050  -0.00050
   ROPT   =   -0.00050
 Ionic relaxation
   EDIFFG = 0.1E-02   stopping-criterion for IOM
   NSW    =      0    number of steps for IOM
   NBLOCK =      1;   KBLOCK =      1    inner block; outer block 
   IBRION =     -1    ionic relax: 0-MD 1-quasi-New 2-CG
   NFREE  =      0    steps in history (QN), initial steepest desc. (CG)
   ISIF   =      2    stress and relaxation
   IWAVPR =     10    prediction:  0-non 1-charg 2-wave 3-comb
   ISYM   =      0    0-nonsym 1-usesym 2-fastsym
   LCORR  =      T    Harris-Foulkes like correction to forces

   POTIM  = 0.5000    time-step for ionic-motion
   TEIN   =    0.0    initial temperature
   TEBEG  =    0.0;   TEEND  =   0.0 temperature during run
   SMASS  =  -3.00    Nose mass-parameter (am)
   estimated Nose-frequenzy (Omega)   =  0.10E-29 period in steps = 0.13E+47 mass=  -0.745E-26a.u.
   SCALEE = 1.0000    scale energy and forces
   NPACO  =    256;   APACO  = 16.0  distance and # of slots for P.C.
   PSTRESS=    0.0 pullay stress

  Mass of Ions in am
   POMASS =   1.00 12.01 14.00126.90207.20
  Ionic Valenz
   ZVAL   =   1.00  4.00  5.00  7.00  4.00
  Atomic Wigner-Seitz radii
   RWIGS  =  -1.00 -1.00 -1.00 -1.00 -1.00
  virtual crystal weights 
   VCA    =   1.00  1.00  1.00  1.00  1.00
   NELECT =    1134.0000    total number of electrons
   NUPDOWN=      -1.0000    fix difference up-down

 DOS related values:
   EMIN   =  10.00;   EMAX   =-10.00  energy-range for DOS
   EFERMI =   0.00
   ISMEAR =     0;   SIGMA  =   0.05  broadening in eV -4-tet -1-fermi 0-gaus

 Electronic relaxation 2 (details)
   IALGO  =     38    algorithm
   LDIAG  =      T    sub-space diagonalisation (order eigenvalues)
   LSUBROT=      F    optimize rotation matrix (better conditioning)
   TURBO    =      0    0=normal 1=particle mesh
   IRESTART =      0    0=no restart 2=restart with 2 vectors
   NREBOOT  =      0    no. of reboots
   NMIN     =      0    reboot dimension
   EREF     =   0.00    reference energy to select bands
   IMIX   =      4    mixing-type and parameters
     AMIX     =   0.40;   BMIX     =  0.01
     AMIX_MAG =   1.60;   BMIX_MAG =  0.01
     AMIN     =   0.01
     WC   =   100.;   INIMIX=   1;  MIXPRE=   1;  MAXMIX= -45

 Intra band minimization:
   WEIMIN = 0.0000     energy-eigenvalue tresh-hold
   EBREAK =  0.34E-07  absolut break condition
   DEPER  =   0.30     relativ break condition  

   TIME   =   0.40     timestep for ELM

  volume/ion in A,a.u.               =      62.72       423.28
  Fermi-wavevector in a.u.,A,eV,Ry     =   0.624944  1.180972  5.313816  0.390554
  Thomas-Fermi vector in A             =   1.685677
 
 Write flags
   LWAVE        =      F    write WAVECAR
   LDOWNSAMPLE  =      F    k-point downsampling of WAVECAR
   LCHARG       =      T    write CHGCAR
   LVTOT        =      T    write LOCPOT, total local potential
   LVHAR        =      F    write LOCPOT, Hartree potential only
   LELF         =      F    write electronic localiz. function (ELF)
   LORBIT       =      0    0 simple, 1 ext, 2 COOP (PROOUT), +10 PAW based schemes


 Dipole corrections
   LMONO  =      F    monopole corrections only (constant potential shift)
   LDIPOL =      T    correct potential (dipole corrections)
   IDIPOL =      3    1-x, 2-y, 3-z, 4-all directions 
   EPSILON=  1.0000000 bulk dielectric constant

 Exchange correlation treatment:
   GGA     =    --    GGA type
   LEXCH   =     8    internal setting for exchange type
   VOSKOWN=      0    Vosko Wilk Nusair interpolation
   LHFCALC =     F    Hartree Fock is set to
   LHFONE  =     F    Hartree Fock one center treatment
   AEXX    =    0.0000 exact exchange contribution

 Linear response parameters
   LEPSILON=     F    determine dielectric tensor
   LRPA    =     F    only Hartree local field effects (RPA)
   LNABLA  =     F    use nabla operator in PAW spheres
   LVEL    =     F    velocity operator in full k-point grid
   LINTERFAST=   F  fast interpolation
   KINTER  =     0    interpolate to denser k-point grid
   CSHIFT  =0.1000    complex shift for real part using Kramers Kronig
   OMEGAMAX=  -1.0    maximum frequency
   DEG_THRESHOLD= 0.2000000E-02 threshold for treating states as degnerate
   RTIME   =   -0.100 relaxation time in fs
  (WPLASMAI=    0.000 imaginary part of plasma frequency in eV, 0.658/RTIME)
   DFIELD  = 0.0000000 0.0000000 0.0000000 field for delta impulse in time
 
 Orbital magnetization related:
   ORBITALMAG=     F  switch on orbital magnetization
   LCHIMAG   =     F  perturbation theory with respect to B field
   DQ        =  0.001000  dq finite difference perturbation B field
   LLRAUG    =     F  two centre corrections for induced B field



--------------------------------------------------------------------------------------------------------


 Static calculation
 charge density and potential will be updated during run
 non-spin polarized calculation
 Variant of blocked Davidson
 Davidson routine will perform the subspace rotation
 perform sub-space diagonalisation
    after iterative eigenvector-optimisation
 modified Broyden-mixing scheme, WC =      100.0
 initial mixing is a Kerker type mixing with AMIX =  0.4000 and BMIX =      0.0100
 Hartree-type preconditioning will be used
 using additional bands           165
 real space projection scheme for non local part
[...]
     13.54561      0.00000     45.35368        -0.000017      0.000579      0.010415
     13.54315      9.03140     45.35368         0.008813     -0.004904      0.024039
     14.01785     10.07686     32.74029         0.149639      0.126102      0.077513
     13.10937      8.62431     32.98965        -0.205461     -0.639129     -0.207499
     15.68878      9.10874     34.10068         0.003243     -0.193314     -0.033752
     15.36875      8.70721     35.76717         0.026310     -0.290479      0.080463
     13.34503     11.53955     35.20002         0.409759     -0.273379     -0.015486
     14.43181     10.69409     36.33571         0.034617      0.049462      0.156799
     11.90063      9.73962     35.68998        -0.078099      0.419477      0.065991
     12.17364      8.15418     35.07335         0.000208     -0.219621     -0.236596
     11.09183      9.88374     33.66581         0.149865      0.159752     -0.038209
     12.07688     11.34818     33.79863        -0.048548      0.816035      0.318893
     11.07166     11.74856     31.77935         0.009647      0.169417     -0.068463
     12.49938     10.93234     31.16661         0.313574      0.076148     -0.055085
     14.99701      7.01138     33.26478        -0.040948     -0.033663      0.136052
     13.67330      6.77879     34.42887         0.629176      0.435441      0.007945
     15.32800      6.49016     34.94434        -0.017507      0.093043     -0.131650
     15.50217     12.48977     34.93784         0.055673     -0.228002     -0.164172
     15.33218     11.44448     33.49686         0.127285      0.145641      0.247410
     16.36580     10.90287     34.88527        -0.276064      0.261629     -0.156969
     13.69265      9.24020     37.48407         0.172660      0.255769      0.248141
     13.63604      7.55948     36.96881         0.025073     -0.052231     -0.104271
     12.18273      8.35873     37.57178        -0.225272     -0.093157      0.182274
      9.76409      9.68104     31.67972        -0.569918      0.115698      0.316059
     10.41992     10.04535     30.09906        -0.000899      0.257360     -0.223432
     12.76783      8.88395     29.61772         0.329474      0.671971     -0.586307
      9.92353      7.53641     32.55576         0.394073     -0.014601     -0.180536
     13.97515      6.74660     29.77272         0.857997     -0.289671     -0.607905
     11.17076      5.34528     32.72581         0.035979      0.140353     -0.093722
     13.19307      4.96464     31.33942         0.255596     -0.482561      0.084683
      0.36317      4.36880     34.84966         0.291704     -0.775825     -0.193275
      0.17039     13.44902     34.82542         0.349518      0.296842     -1.474389
      8.72836      4.13102     34.63653        -1.887884      0.483275      0.122001
      9.21284     13.96758     34.86045        -0.497018      0.828702      0.505418
      4.32039      9.24943     34.89887         0.738513      1.538544     -0.247413
      4.27330      0.23209     34.81411         1.372795      0.727007     -0.164624
     13.87585     17.80068     35.02900        -1.083175     -1.266853     -0.046927
      0.10294      4.44047     40.75137        -1.574183      1.722830     -1.080637
      0.22832     13.80835     40.80900        -1.175990      1.953005     -1.969951
      8.79312      4.22806     40.73941        -1.899444      1.491660     -0.563299
      8.96100     13.64047     40.68953         0.272682     -0.261981     -1.176392
      4.54578      9.04331     40.61582        -1.609517     -1.560958     -0.950514
      4.54807     17.99216     40.61212         1.579335      1.727380     -0.303820
     13.78720      8.99088     40.73515         0.599021      0.353297     -0.921370
     13.58632     18.03068     40.58553         2.033922      1.745529     -0.327789
      9.02897      4.51561     46.44552         0.005846      0.009275      0.024803
      9.02651     13.54701     46.44552         0.006137      0.007037      0.052026
     18.05937      4.51561     46.44552        -0.006294      0.022749      0.053051
     18.05691     13.54701     46.44552         0.025876     -0.005598      0.051175
      4.51521      0.00002     46.44421         0.007785      0.005493      0.065674
      4.51275      9.03142     46.44421         0.004380      0.005172      0.048118
     13.54561      0.00002     46.44421         0.008226      0.008145      0.045345
     13.54315      9.03142     46.44421        -0.025662     -0.029609      0.052267
     11.28952      8.35922     31.07528         0.022799      0.394234      0.232073
     12.41461      8.12506     30.27634         0.170937     -1.786569      0.730864
     10.82426      7.35962     31.93958         0.233638     -0.930767      0.147346
     13.10400      6.88490     30.36240        -1.421065      0.844447      0.787104
     11.51404      6.11850     32.03033        -0.370864      0.672860     -0.061690
     12.65572      5.89151     31.25451        -0.209991      0.788738     -0.298709
     13.23307      9.62845     33.35738        -0.273595      0.425786     -0.516218
     14.96179      8.61388     34.75381         0.196724     -0.545087     -0.164863
     14.21910     10.85686     35.27610        -0.480482      0.102455      0.121988
     12.66087      8.96753     35.61167        -0.444061     -0.380477      0.283691
     11.94260     10.44438     33.23397         0.164846     -0.973184     -0.294325
     11.60599     10.79125     31.77770        -0.540516     -0.179905      0.050931
     14.71984      7.16059     34.31935        -0.304794      0.073248      0.098501
     15.44096     11.44054     34.59690         0.017870     -0.113429      0.016300
     13.07925      8.50135     36.97511         0.288980     -0.029698      0.017421
     10.68486      9.74718     31.11657         0.372624     -0.451063     -0.135640
      0.65214      3.28586     35.54390        -0.121490      0.824013     -1.623713
      0.58509     12.34796     35.39382         0.114516      0.177248     -0.674313
      9.94390      4.09377     35.09295         0.181932     -0.391253     -0.770624
      9.34189     12.85423     35.54067        -0.178784      0.097981     -0.135839
      7.74658      4.87566     35.16506         0.480239     -1.349155     -1.602024
      8.45909     14.98823     35.25097         1.224029     -0.677012     -1.578298
     17.90099      5.45902     35.33722         0.137477      0.045304     -0.629119
     17.64331     14.44914     35.42200        -0.174721     -0.196149      0.456388
      4.02992      8.12356     35.45983         0.902387     -0.332346      1.612296
      3.29452     17.62223     35.32819         0.349425     -1.056021      1.629898
     12.75304     17.24546     35.46445         0.730274      1.875296      0.869716
      5.48517      0.38175     35.32518        -1.775150     -1.182657      1.085806
      5.15034     10.17042     35.36077        -0.164806     -2.022805      1.278522
     14.52748      0.69818     35.60149        -1.149009      0.811231      1.739589
      0.95188      3.53708     41.06409         1.836936     -1.972574      0.811731
      0.92301     12.94476     41.42844         2.024916     -2.483658      1.484541
      9.83975      3.68635     41.24460         1.924454     -1.043331      0.987048
      9.71413     12.90072     41.47114        -0.957378      0.913102     -0.103046
      3.80416      8.08628     41.16272         0.031025      0.174480     -1.695594
      3.74594     17.18246     41.21869        -1.101491     -1.205866     -0.862027
     12.96198      8.37330     41.54204         0.633659      1.078260      0.296181
     12.68524     17.31196     41.16475        -1.023701     -1.120043     -1.129005
      8.06589      5.21162     41.28620         0.276500     -1.389478     -1.891443
      8.05347     14.51655     41.04988         0.206154     -0.226753     -1.235067
     17.42954      5.17917     41.57637         0.987140     -1.017881     -1.334325
     17.21296     14.41703     41.23905        -0.604521      0.060668      0.902723
      5.35077      0.83508     41.19969        -0.835206     -1.049216     -2.181508
      5.30830      9.87014     41.24708         1.068322      1.330975     -0.980733
     14.40862      0.84533     41.19009        -0.689596     -1.006077     -1.894719
     14.51221     10.06995     40.97124        -1.755159     -1.135910      2.249012
      0.82731      3.68697     47.03596         0.029747     -0.037243     -0.093915
      0.82485     12.71837     47.03596         0.007322     -0.015988     -0.091316
      9.85771      3.68697     47.03596         0.023685     -0.031295     -0.085115
      9.85525     12.71837     47.03596         0.029005     -0.020681     -0.100352
      3.68432      8.20234     47.03465        -0.016095     -0.012268     -0.068939
      3.68186     17.23373     47.03465        -0.016922     -0.010041     -0.075337
     12.71472      8.20234     47.03465         0.004031      0.006438     -0.086717
     12.71226     17.23373     47.03465        -0.016025     -0.019869     -0.071327
      8.20068      5.34457     47.03603        -0.021298      0.014969     -0.088904
      8.19822     14.37597     47.03603        -0.015622      0.016782     -0.099419
     17.23108      5.34457     47.03603        -0.004822      0.006453     -0.093764
     17.22862     14.37597     47.03603        -0.028055      0.021593     -0.091370
      5.34365      0.82909     47.03465         0.001040      0.002156     -0.072257
      5.34119      9.86049     47.03465         0.005678      0.011118     -0.073883
     14.37405      0.82909     47.03465         0.009355      0.002231     -0.074229
     14.37159      9.86049     47.03465         0.026474      0.033767     -0.075336
     13.75838      9.49526     34.74959         0.173260      0.765794     -0.105430
      8.91302      0.33529     34.47004         0.099537      0.055132      0.006990
      8.49622      9.28631     34.87372         0.186705     -0.045458     -0.252844
     17.98211     17.96934     34.42138        -0.101643      0.000729      0.002509
      0.63046      8.88229     34.50446        -0.092161     -0.064893     -0.009887
      4.22643      4.34058     34.49580         0.021423      0.003730      0.006344
      4.62398     13.61531     34.54460        -0.011195      0.027562      0.031082
     13.51414      3.84835     34.72867        -0.050824     -0.030767     -0.135373
     13.00904     14.17296     34.18375        -0.093021     -0.168786      0.162886
      0.00982     17.99193     40.87770         0.045763     -0.015630      0.020529
      0.23678      9.04560     40.92503        -0.008704      0.001786      0.039788
      8.91327     18.04869     40.84925         0.125155      0.043918      0.112656
      9.15350      8.80624     41.01871        -0.024571      0.029477     -0.129410
      4.57456      4.45359     40.87091        -0.042047      0.003052      0.112418
      4.50701     13.57557     40.90371        -0.054955      0.012773      0.008426
     13.38064      4.63090     40.95332         0.013716      0.033381     -0.046168
     13.59808     13.67474     40.85086         0.015128     -0.006983     -0.035780
      2.60338      1.90630     38.15664        -0.152578     -0.084024     -0.015821
      2.63977     10.97501     37.96701        -0.026762     -0.060929      0.069945
     11.74340      1.88155     38.05381        -0.085404     -0.094030      0.028423
     11.15729     11.47009     38.40147         0.143889     -0.181782     -0.194469
      6.33087      7.06597     37.95698         0.140462      0.072351      0.061652
      6.47784     16.11765     37.94286        -0.016936     -0.035743      0.084388
     16.08847      6.55896     38.39371        -0.109262      0.233352     -0.198142
     15.56683     16.09636     37.94114        -0.015830     -0.127060      0.052378
      2.05638      6.43731     38.16117        -0.037408      0.090357     -0.026758
      1.97618     15.55005     37.90366         0.078823      0.043770      0.069443
     10.43262      5.93396     38.02129         0.107500      0.172415     -0.090068
     11.05020     15.59142     38.12159         0.057035      0.006063      0.043191
      6.91629      2.37925     38.02768         0.018112      0.013440     -0.064750
      6.97670     11.52336     38.27834         0.016653      0.001436     -0.052421
     16.05170      2.55761     38.24784         0.067526     -0.086999     -0.026386
     16.52374     11.78368     38.43997        -0.218858     -0.030184     -0.367173
      0.00000      0.00000     47.17356         0.000288      0.000231      0.351312
     -0.00246      9.03140     47.17356        -0.001745      0.005964      0.406762
      9.03040      0.00000     47.17356         0.000091     -0.004133      0.396995
      9.02794      9.03140     47.17356         0.003016      0.003763      0.591228
      4.51398      4.51570     47.17425        -0.004364     -0.005493      0.428018
      4.51152     13.54710     47.17425        -0.000257      0.003204      0.473119
     13.54438      4.51570     47.17425         0.001778     -0.002874      0.512986
     13.54192     13.54710     47.17425         0.000591     -0.000306      0.312216
      2.45192      2.06295     44.04013        -0.011254     -0.041773     -0.034676
      2.44946     11.09435     44.04013         0.032003     -0.020880      0.059240
     11.48232      2.06295     44.04013         0.032469     -0.063146     -0.019890
     11.47986     11.09435     44.04013         0.123194     -0.014500     -0.016583
      6.57602      6.96845     44.04013        -0.078410      0.043782      0.034078
      6.57356     15.99985     44.04013        -0.011122      0.011115     -0.000130
     15.60642      6.96845     44.04013        -0.002554      0.063532      0.051600
     15.60396     15.99985     44.04013        -0.044011      0.012406      0.037617
      2.06108      6.57881     44.04000         0.012615     -0.022407      0.022621
      2.05862     15.61021     44.04000        -0.003388      0.040966      0.028392
     11.09148      6.57881     44.04000        -0.040651     -0.081277      0.060814
     11.08902     15.61021     44.04000         0.006953     -0.013157     -0.025308
      6.96686      2.45259     44.04007        -0.002406     -0.023360      0.042495
      6.96440     11.48399     44.04007         0.012504      0.037178     -0.011265
     15.99726      2.45259     44.04007         0.048114     -0.009317      0.000727
     15.99481     11.48399     44.04007        -0.019969      0.065410     -0.064865
      2.43163      2.08322     50.06849        -0.001658     -0.022118      0.019720
      2.42917     11.11462     50.06849         0.003655     -0.013227      0.020765
     11.46203      2.08322     50.06849         0.001586     -0.021896      0.022395
     11.45957     11.11462     50.06849         0.035802      0.016939      0.019902
      6.59631      6.94818     50.06849        -0.024047     -0.002350      0.022933
      6.59385     15.97958     50.06849        -0.005475      0.015459      0.020081
     15.62671      6.94818     50.06849        -0.000577      0.019725      0.021687
     15.62425     15.97958     50.06849        -0.012613      0.007969      0.018642
      2.08113      6.59901     50.06905        -0.016189     -0.006328      0.021887
      2.07867     15.63041     50.06905        -0.022984      0.001574      0.020283
     11.11153      6.59901     50.06905        -0.001646     -0.016384      0.022811
     11.10907     15.63041     50.06905        -0.000548     -0.019691      0.019852
      6.94681      2.43239     50.06905         0.012967      0.004168      0.021938
      6.94435     11.46379     50.06905        -0.001650      0.023060      0.022418
     15.97721      2.43239     50.06905         0.026283     -0.007235      0.021387
     15.97475     11.46379     50.06905         0.001265      0.020566      0.019285
     17.99520      0.01039     37.77343         0.012421      0.071504      0.013628
      0.11902      9.03669     37.82726        -0.016169     -0.013559      0.043290
      9.03561      0.10184     37.66198         0.078634      0.126464      0.042515
      8.95671      8.96862     37.84542        -0.014433     -0.089536      0.133481
      4.40998      4.47175     37.66428         0.131041     -0.141059     -0.001297
      4.47836     13.50040     37.62543         0.032252      0.020830     -0.047775
     13.48954      4.52133     37.73758        -0.109897     -0.053767      0.096330
     13.46317     13.64942     37.70083        -0.157213      0.019649      0.012549
      0.00001      0.00001     44.04300        -0.038746     -0.041609      0.109685
     -0.00245      9.03141     44.04300         0.016108     -0.104818      0.080775
      9.03041      0.00001     44.04300        -0.039156      0.078328     -0.046060
      9.02795      9.03141     44.04300        -0.043072     -0.025771      0.146586
      4.51397      4.51569     44.04275         0.074645      0.037101     -0.025855
      4.51151     13.54709     44.04275        -0.018236     -0.020814      0.014534
     13.54437      4.51569     44.04275         0.029806      0.061139      0.086872
     13.54191     13.54709     44.04275        -0.048235      0.067473      0.080363
      0.00000      0.00000     50.44728         0.005363      0.011107     -0.611266
     -0.00246      9.03140     50.44728         0.004858     -0.011770     -0.627556
      9.03040      0.00000     50.44728        -0.004967      0.013156     -0.626411
      9.02794      9.03140     50.44728        -0.006720     -0.012019     -0.677292
      4.51397      4.51570     50.44728         0.013967      0.015250     -0.636271
      4.51151     13.54710     50.44728         0.014455     -0.013464     -0.646355
     13.54437      4.51570     50.44728        -0.016447      0.012965     -0.659405
     13.54191     13.54710     50.44728        -0.013494     -0.014559     -0.599381
 -----------------------------------------------------------------------------------
    total drift:                                0.123646     -0.016156      0.289130


--------------------------------------------------------------------------------------------------------



  FREE ENERGIE OF THE ION-ELECTRON SYSTEM (eV)
  ---------------------------------------------------
  free  energy   TOTEN  =     -1573.04289055 eV

  energy  without entropy=    -1573.04289055  energy(sigma->0) =    -1573.04289055
 


--------------------------------------------------------------------------------------------------------


    POTLOK:  cpu time    0.4995: real time    0.4994


--------------------------------------------------------------------------------------------------------


     LOOP+:  cpu time  286.5804: real time  287.2333
 vacuum level on the upper side and lower side of the slab         2.286         1.581
    4ORBIT:  cpu time    0.0000: real time    0.0000

 total amount of memory used by VASP MPI-rank0  8653597. kBytes
=======================================================================

   base      :      30000. kBytes
   nonlr-proj:      53635. kBytes
   fftplans  :     249280. kBytes
   grid      :     701440. kBytes
   one-center:       2636. kBytes
   wavefun   :    7616606. kBytes
 
  
  
 General timing and accounting informations for this job:
 ========================================================
  
                  Total CPU time used (sec):      500.496
                            User time (sec):      406.745
                          System time (sec):       93.751
                         Elapsed time (sec):      503.181
  
                   Maximum memory used (kb):    10309512.
                   Average memory used (kb):          N/A
  
                          Minor page faults:      3614227
                          Major page faults:           12
                 Voluntary context switches:        11186
