<?xml version="1.0" encoding="ISO-8859-1"?>
<modeling>
 <generator>
  <i name="program" type="string">vasp </i>
  <i name="version" type="string">6.2.1  </i>
  <i name="subversion" type="string">16May21 (build Nov 15 2021 14:57:28) complex                          parallel </i>
  <i name="platform" type="string">LinuxPGI </i>
  <i name="date" type="string">2023 07 24 </i>
  <i name="time" type="string">22:41:00 </i>
 </generator>
 <incar>
  <i type="string" name="SYSTEM">PSC</i>
  <i type="int" name="ISTART">     1</i>
  <i type="string" name="PREC">Normal</i>
  <i name="BMIX">      0.01000000</i>
  <i name="AMIN">      0.01000000</i>
  <i type="int" name="ICHARG">     1</i>
  <i type="int" name="NELM">   600</i>
  <i type="int" name="ISYM">     0</i>
  <i name="ENCUT">    500.00000000</i>
  <i type="string" name="LREAL">Auto</i>
  <i type="int" name="ISMEAR">     0</i>
  <i name="SIGMA">      0.05000000</i>
  <i type="logical" name="LWAVE"> F  </i>
  <i type="logical" name="LVTOT"> T  </i>
  <i type="logical" name="GGA_COMPAT"> F  </i>
  <i type="logical" name="LDIPOL"> T  </i>
  <i type="int" name="IDIPOL">     3</i>
  <i type="int" name="IVDW">    12</i>
 </incar>
 <primitive_cell>
  <structure name="primitive_cell" >
   <crystal>
    <varray name="basis" >
     <v>      18.06080055       0.00000000       0.00000000 </v>
     <v>      -0.00491865      18.06279945       0.00000000 </v>
     <v>       0.00000000       0.00000000      62.48749924 </v>
    </varray>
    <i name="volume">  20385.21054034 </i>
    <varray name="rec_basis" >
     <v>       0.05536853       0.00001508      -0.00000000 </v>
     <v>       0.00000000       0.05536240       0.00000000 </v>
     <v>       0.00000000      -0.00000000       0.01600320 </v>
    </varray>
   </crystal>
   <varray name="positions" >
    <v>       0.43894456       0.30018168       0.57573020 </v>
    <v>       0.43961438       0.82942018       0.57771150 </v>
    <v>       0.98332119       0.30645598       0.58135401 </v>
    <v>       0.96903274       0.79772778       0.58298227 </v>
    <v>       0.31771342       0.99630430       0.57970280 </v>
    <v>       0.31424413       0.55648763       0.58006921 </v>
    <v>       0.78283784       0.06658671       0.58293611 </v>
    <v>       0.05494611       0.13691106       0.56104001 </v>
    <v>       0.05607327       0.64263669       0.55749291 </v>
    <v>       0.59069736       0.19595594       0.55434678 </v>
    <v>       0.54743084       0.67065242       0.56213343 </v>
    <v>       0.34330738       0.04819973       0.55778228 </v>
    <v>       0.29511368       0.60944953       0.55797018 </v>
    <v>       0.84740343       0.06274387       0.56290073 </v>
    <v>       0.03069464       0.17776452       0.58442420 </v>
    <v>       0.02563772       0.67362509       0.58214647 </v>
    <v>       0.56571889       0.25909984       0.57404231 </v>
    <v>       0.48943135       0.70007605       0.58266622 </v>
    <v>       0.24594276       0.43383901       0.58209042 </v>
    <v>       0.18667069       0.94682083       0.57979950 </v>
    <v>       0.68193110       0.97214135       0.58161139 </v>
    <v>       0.37487971       0.26363978       0.55716814 </v>
    <v>       0.47126659       0.87874274       0.55580563 </v>
    <v>       0.98917569       0.35012612       0.55674429 </v>
    <v>       0.96549504       0.84824071       0.55907392 </v>
    <v>       0.18574066       0.41613935       0.56122859 </v>
    <v>       0.13234024       0.97509774       0.55856167 </v>
    <v>       0.68663702       0.90920665       0.56039596 </v>
    <v>       0.46646830       0.19458357       0.54061149 </v>
    <v>       0.54261589       0.77923031       0.54315270 </v>
    <v>       0.03242755       0.23787678       0.54065782 </v>
    <v>       0.01881913       0.75172292       0.53977654 </v>
    <v>       0.21308322       0.52526470       0.54348175 </v>
    <v>       0.22569091       0.04131010       0.54229884 </v>
    <v>       0.79249711       0.96139552       0.54638876 </v>
    <v>       0.45838459       0.31067235       0.67481240 </v>
    <v>       0.43354695       0.81503170       0.67219493 </v>
    <v>       0.96855650       0.28139148       0.68108190 </v>
    <v>       0.93106600       0.79129311       0.67510268 </v>
    <v>       0.29810654       0.05304092       0.67502851 </v>
    <v>       0.30239404       0.54653463       0.67591675 </v>
    <v>       0.79569926       0.05614897       0.67477516 </v>
    <v>       0.80316047       0.58148164       0.67075501 </v>
    <v>       0.08239906       0.16633593       0.64563463 </v>
    <v>       0.09741467       0.69266705       0.65582972 </v>
    <v>       0.57189729       0.16242540       0.65187178 </v>
    <v>       0.57431684       0.67926457       0.65708888 </v>
    <v>       0.17807194       0.41380250       0.64897477 </v>
    <v>       0.17634520       0.91456556       0.65050407 </v>
    <v>       0.69210598       0.41811689       0.65956625 </v>
    <v>       0.67083034       0.92297839       0.64938184 </v>
    <v>       0.06666947       0.17934462       0.67271243 </v>
    <v>       0.04258730       0.69737592       0.67846682 </v>
    <v>       0.56832808       0.21707739       0.67469116 </v>
    <v>       0.53338731       0.71778107       0.67956616 </v>
    <v>       0.20974098       0.43776373       0.67439227 </v>
    <v>       0.20060973       0.94823813       0.67552464 </v>
    <v>       0.70856517       0.48192846       0.67997719 </v>
    <v>       0.69150734       0.95898518       0.67442921 </v>
    <v>       0.40092181       0.30754382       0.65260160 </v>
    <v>       0.41709815       0.83161878       0.64521181 </v>
    <v>       0.93101582       0.32371011       0.65864669 </v>
    <v>       0.92721080       0.83626535       0.65058355 </v>
    <v>       0.32915287       0.07922730       0.64983884 </v>
    <v>       0.32304820       0.58586670       0.65121497 </v>
    <v>       0.83596763       0.07521871       0.65005012 </v>
    <v>       0.83610763       0.57863447       0.64456337 </v>
    <v>       0.99608045       0.25886355       0.63489719 </v>
    <v>       0.03067456       0.78281216       0.63688917 </v>
    <v>       0.46879331       0.21304937       0.63624078 </v>
    <v>       0.50686412       0.74580187       0.63380102 </v>
    <v>       0.25449561       0.99328184       0.63234626 </v>
    <v>       0.24564605       0.50447640       0.63235750 </v>
    <v>       0.76246063       0.99367033       0.63212668 </v>
    <v>       0.76972274       0.47427553       0.63582462 </v>
    <v>       0.44874502       0.30128397       0.76888902 </v>
    <v>       0.44874501       0.80128391       0.76888902 </v>
    <v>       0.94874497       0.30128397       0.76888902 </v>
    <v>       0.94874501       0.80128391       0.76888902 </v>
    <v>       0.30127600       0.05129450       0.76887296 </v>
    <v>       0.30127601       0.55129450       0.76887296 </v>
    <v>       0.80127594       0.05129450       0.76887296 </v>
    <v>       0.80127598       0.55129450       0.76887296 </v>
    <v>       0.07877100       0.17118050       0.74344197 </v>
    <v>       0.07877101       0.67118045       0.74344197 </v>
    <v>       0.57877100       0.17118050       0.74344197 </v>
    <v>       0.57877099       0.67118045       0.74344197 </v>
    <v>       0.17119950       0.42117448       0.74342103 </v>
    <v>       0.17119950       0.92117451       0.74342103 </v>
    <v>       0.67119951       0.42117448       0.74342103 </v>
    <v>       0.67119950       0.92117451       0.74342103 </v>
    <v>       0.05125600       0.19871499       0.76888902 </v>
    <v>       0.05125600       0.69871493       0.76888902 </v>
    <v>       0.55125603       0.19871499       0.76888902 </v>
    <v>       0.55125602       0.69871493       0.76888902 </v>
    <v>       0.19872349       0.44870397       0.76887205 </v>
    <v>       0.19872349       0.94870397       0.76887205 </v>
    <v>       0.69872352       0.44870397       0.76887205 </v>
    <v>       0.69872351       0.94870397       0.76887205 </v>
    <v>       0.42123152       0.32881747       0.74344197 </v>
    <v>       0.42123151       0.82881744       0.74344197 </v>
    <v>       0.92123147       0.32881747       0.74344197 </v>
    <v>       0.92123151       0.82881744       0.74344197 </v>
    <v>       0.32880050       0.07882500       0.74342103 </v>
    <v>       0.32880049       0.57882496       0.74342103 </v>
    <v>       0.82880048       0.07882500       0.74342103 </v>
    <v>       0.82880052       0.57882496       0.74342103 </v>
    <v>       0.00000350       0.25000148       0.72582199 </v>
    <v>       0.00000350       0.75000145       0.72582199 </v>
    <v>       0.50000351       0.25000148       0.72582199 </v>
    <v>       0.50000350       0.75000145       0.72582199 </v>
    <v>       0.25000050       0.00000000       0.72580398 </v>
    <v>       0.25000052       0.50000000       0.72580398 </v>
    <v>       0.75000050       0.00000000       0.72580398 </v>
    <v>       0.75000049       0.50000000       0.72580398 </v>
    <v>       0.77629969       0.55787906       0.52394940 </v>
    <v>       0.72597645       0.47746261       0.52794007 </v>
    <v>       0.86880219       0.50428200       0.54571999 </v>
    <v>       0.85107632       0.48205221       0.57238927 </v>
    <v>       0.73906874       0.63885738       0.56331293 </v>
    <v>       0.79922954       0.59205042       0.58148770 </v>
    <v>       0.65906720       0.53920884       0.57115397 </v>
    <v>       0.67415968       0.45143493       0.56128585 </v>
    <v>       0.61428742       0.54718784       0.53876065 </v>
    <v>       0.66885018       0.62826262       0.54088632 </v>
    <v>       0.61319859       0.65042852       0.50857126 </v>
    <v>       0.69223715       0.60524045       0.49876550 </v>
    <v>       0.83046820       0.38816699       0.53234299 </v>
    <v>       0.75717247       0.37528985       0.55097214 </v>
    <v>       0.84878649       0.35931099       0.55922123 </v>
    <v>       0.85852057       0.69146374       0.55911726 </v>
    <v>       0.84909289       0.63359403       0.53605699 </v>
    <v>       0.90631474       0.60360937       0.55827591 </v>
    <v>       0.75828139       0.51155953       0.59986510 </v>
    <v>       0.75512168       0.41851123       0.59161931 </v>
    <v>       0.67466583       0.46275940       0.60126876 </v>
    <v>       0.54076942       0.53596585       0.50697695 </v>
    <v>       0.57708686       0.55613499       0.48168124 </v>
    <v>       0.70706967       0.49183684       0.47397829 </v>
    <v>       0.54956468       0.41723366       0.52099630 </v>
    <v>       0.77388515       0.37350782       0.47645879 </v>
    <v>       0.61858928       0.29592777       0.52371773 </v>
    <v>       0.73055563       0.27485428       0.50153110 </v>
    <v>       0.02017399       0.24186749       0.55770603 </v>
    <v>       0.00963718       0.74457015       0.55731826 </v>
    <v>       0.48333856       0.22870336       0.55429538 </v>
    <v>       0.51031207       0.77327890       0.55787879 </v>
    <v>       0.23935296       0.51207072       0.55849360 </v>
    <v>       0.23660970       0.01284925       0.55713719 </v>
    <v>       0.76855372       0.98548857       0.56057605 </v>
    <v>       0.00576655       0.24583503       0.65215241 </v>
    <v>       0.01285005       0.76446343       0.65307465 </v>
    <v>       0.48692570       0.23407553       0.65196103 </v>
    <v>       0.49636304       0.75516897       0.65116271 </v>
    <v>       0.25182944       0.50065923       0.64998315 </v>
    <v>       0.25209109       0.99608911       0.64992394 </v>
    <v>       0.76351257       0.49775684       0.65189278 </v>
    <v>       0.75252630       0.99822171       0.64949838 </v>
    <v>       0.49998898       0.24999498       0.74327702 </v>
    <v>       0.49998903       0.74999496       0.74327702 </v>
    <v>       0.99998898       0.24999498       0.74327702 </v>
    <v>       0.99998903       0.74999496       0.74327702 </v>
    <v>       0.25000050       0.00000100       0.74325596 </v>
    <v>       0.25000052       0.50000100       0.74325596 </v>
    <v>       0.75000050       0.00000100       0.74325596 </v>
    <v>       0.75000049       0.50000100       0.74325596 </v>
    <v>       0.62521003       0.46278628       0.49730387 </v>
    <v>       0.68750143       0.44982265       0.48451830 </v>
    <v>       0.59943454       0.40744610       0.51113544 </v>
    <v>       0.72565331       0.38116444       0.48589552 </v>
    <v>       0.63760800       0.33873472       0.51258788 </v>
    <v>       0.70081771       0.32616837       0.50017228 </v>
    <v>       0.73284105       0.53305405       0.53382485 </v>
    <v>       0.82854216       0.47688501       0.55617215 </v>
    <v>       0.78745448       0.60106172       0.56453058 </v>
    <v>       0.70114880       0.49646409       0.56990073 </v>
    <v>       0.66140144       0.57822624       0.53184991 </v>
    <v>       0.64276908       0.59742982       0.50854489 </v>
    <v>       0.81512404       0.39642746       0.54921947 </v>
    <v>       0.85511566       0.63337560       0.55366115 </v>
    <v>       0.72430716       0.47065520       0.59172004 </v>
    <v>       0.59175171       0.53962705       0.49796465 </v>
    <v>       0.03615777       0.18191323       0.56881610 </v>
    <v>       0.03258168       0.68361299       0.56641444 </v>
    <v>       0.55064066       0.22664082       0.56159957 </v>
    <v>       0.51744040       0.71164118       0.56876452 </v>
    <v>       0.42899028       0.26992828       0.56275349 </v>
    <v>       0.46859344       0.82978459       0.56412840 </v>
    <v>       0.99123381       0.30222424       0.56550862 </v>
    <v>       0.97710183       0.79993894       0.56686546 </v>
    <v>       0.22325297       0.44973986       0.56747074 </v>
    <v>       0.18267824       0.97560921       0.56536418 </v>
    <v>       0.70637704       0.95474999       0.56754467 </v>
    <v>       0.30371169       0.02113475       0.56531595 </v>
    <v>       0.28532037       0.56305888       0.56588546 </v>
    <v>       0.80437592       0.03865291       0.56973786 </v>
    <v>       0.05275776       0.19582136       0.65715695 </v>
    <v>       0.05130104       0.71665310       0.66298759 </v>
    <v>       0.54486805       0.20408547       0.66004559 </v>
    <v>       0.53805143       0.71421475       0.66367101 </v>
    <v>       0.21075286       0.44767595       0.65873533 </v>
    <v>       0.20766619       0.95126207       0.65963090 </v>
    <v>       0.71781219       0.46356578       0.66480558 </v>
    <v>       0.70262392       0.95843174       0.65876769 </v>
    <v>       0.44667487       0.28852786       0.66071131 </v>
    <v>       0.44612766       0.80367095       0.65692943 </v>
    <v>       0.96512597       0.28673118       0.66535500 </v>
    <v>       0.95327349       0.79816135       0.65995683 </v>
    <v>       0.29627708       0.04623205       0.65932688 </v>
    <v>       0.29406141       0.54643479       0.66008533 </v>
    <v>       0.79779697       0.04679957       0.65917322 </v>
    <v>       0.80367152       0.55749675       0.65567094 </v>
    <v>       0.04586250       0.20411950       0.75272599 </v>
    <v>       0.04586250       0.70411946       0.75272599 </v>
    <v>       0.54586251       0.20411950       0.75272599 </v>
    <v>       0.54586250       0.70411946       0.75272599 </v>
    <v>       0.20411900       0.45410100       0.75270499 </v>
    <v>       0.20411899       0.95410095       0.75270499 </v>
    <v>       0.70411898       0.45410100       0.75270499 </v>
    <v>       0.70411896       0.95410095       0.75270499 </v>
    <v>       0.45414002       0.29588849       0.75272697 </v>
    <v>       0.45414001       0.79588852       0.75272697 </v>
    <v>       0.95414002       0.29588849       0.75272697 </v>
    <v>       0.95414006       0.79588852       0.75272697 </v>
    <v>       0.29588249       0.04590050       0.75270499 </v>
    <v>       0.29588248       0.54590053       0.75270499 </v>
    <v>       0.79588244       0.04590050       0.75270499 </v>
    <v>       0.79588248       0.54590053       0.75270499 </v>
    <v>       0.76192451       0.52568054       0.55610464 </v>
    <v>       0.49350578       0.01856251       0.55163090 </v>
    <v>       0.47056306       0.51411251       0.55809118 </v>
    <v>       0.99591373       0.99482601       0.55085230 </v>
    <v>       0.03504156       0.49174487       0.55218173 </v>
    <v>       0.23407640       0.24030478       0.55204328 </v>
    <v>       0.25622808       0.75377643       0.55282413 </v>
    <v>       0.74831617       0.21305386       0.55576991 </v>
    <v>       0.72050491       0.78464921       0.54704948 </v>
    <v>       0.00081482       0.99607641       0.65417399 </v>
    <v>       0.01324648       0.50078637       0.65493147 </v>
    <v>       0.49378697       0.99921894       0.65371870 </v>
    <v>       0.50694850       0.48753436       0.65643061 </v>
    <v>       0.25335361       0.24656134       0.65406533 </v>
    <v>       0.24975115       0.75157593       0.65459022 </v>
    <v>       0.74093594       0.25637754       0.65538414 </v>
    <v>       0.75311167       0.75706631       0.65374447 </v>
    <v>       0.14417413       0.10553728       0.61062836 </v>
    <v>       0.14632557       0.60760309       0.60759369 </v>
    <v>       0.65024337       0.10416689       0.60898283 </v>
    <v>       0.61793572       0.63501180       0.61454638 </v>
    <v>       0.35063770       0.39118935       0.60743314 </v>
    <v>       0.35891142       0.89231212       0.60720726 </v>
    <v>       0.89089387       0.36311992       0.61442233 </v>
    <v>       0.86215524       0.89113346       0.60717973 </v>
    <v>       0.11395560       0.35638481       0.61070082 </v>
    <v>       0.10965280       0.86088787       0.60657988 </v>
    <v>       0.57772811       0.32851808       0.60846228 </v>
    <v>       0.61206829       0.86317824       0.61006739 </v>
    <v>       0.38298068       0.13172127       0.60856465 </v>
    <v>       0.38646334       0.63796108       0.61257589 </v>
    <v>       0.88879754       0.14159524       0.61208794 </v>
    <v>       0.91507303       0.65237274       0.61516259 </v>
    <v>       0.00000000       0.00000000       0.75492797 </v>
    <v>       0.00000000       0.50000000       0.75492797 </v>
    <v>       0.50000000       0.00000000       0.75492797 </v>
    <v>       0.49999999       0.50000000       0.75492797 </v>
    <v>       0.25000050       0.25000000       0.75493902 </v>
    <v>       0.25000051       0.74999997       0.75493902 </v>
    <v>       0.75000047       0.25000000       0.75493902 </v>
    <v>       0.75000046       0.74999997       0.75493902 </v>
    <v>       0.13579050       0.11421000       0.70478299 </v>
    <v>       0.13579050       0.61420998       0.70478299 </v>
    <v>       0.63579045       0.11421000       0.70478299 </v>
    <v>       0.63579049       0.61420998       0.70478299 </v>
    <v>       0.36420952       0.38578999       0.70478299 </v>
    <v>       0.36420950       0.88578996       0.70478299 </v>
    <v>       0.86420954       0.38578999       0.70478299 </v>
    <v>       0.86420953       0.88578996       0.70478299 </v>
    <v>       0.11421799       0.36421899       0.70478098 </v>
    <v>       0.11421799       0.86421899       0.70478098 </v>
    <v>       0.61421800       0.36421899       0.70478098 </v>
    <v>       0.61421799       0.86421899       0.70478098 </v>
    <v>       0.38578201       0.13578149       0.70478202 </v>
    <v>       0.38578200       0.63578149       0.70478202 </v>
    <v>       0.88578199       0.13578149       0.70478202 </v>
    <v>       0.88578203       0.63578149       0.70478202 </v>
    <v>       0.13466700       0.11533200       0.80125603 </v>
    <v>       0.13466699       0.61533199       0.80125603 </v>
    <v>       0.63466699       0.11533200       0.80125603 </v>
    <v>       0.63466698       0.61533199       0.80125603 </v>
    <v>       0.36533300       0.38466799       0.80125603 </v>
    <v>       0.36533299       0.88466796       0.80125603 </v>
    <v>       0.86533295       0.38466799       0.80125603 </v>
    <v>       0.86533294       0.88466796       0.80125603 </v>
    <v>       0.11532850       0.36533700       0.80126500 </v>
    <v>       0.11532850       0.86533698       0.80126500 </v>
    <v>       0.61532850       0.36533700       0.80126500 </v>
    <v>       0.61532849       0.86533698       0.80126500 </v>
    <v>       0.38467151       0.13466300       0.80126500 </v>
    <v>       0.38467150       0.63466297       0.80126500 </v>
    <v>       0.88467149       0.13466300       0.80126500 </v>
    <v>       0.88467153       0.63466297       0.80126500 </v>
    <v>       0.99636783       0.00057517       0.60449585 </v>
    <v>       0.00672603       0.50029282       0.60535716 </v>
    <v>       0.50029027       0.00563785       0.60271222 </v>
    <v>       0.49605483       0.49652433       0.60564793 </v>
    <v>       0.24424153       0.24756671       0.60274904 </v>
    <v>       0.24816388       0.74741447       0.60212739 </v>
    <v>       0.74696440       0.25031166       0.60392206 </v>
    <v>       0.74564159       0.75566448       0.60333399 </v>
    <v>       0.00000050       0.00000050       0.70482896 </v>
    <v>       0.00000050       0.50000048       0.70482896 </v>
    <v>       0.50000048       0.00000050       0.70482896 </v>
    <v>       0.50000046       0.50000048       0.70482896 </v>
    <v>       0.24999999       0.24999947       0.70482499 </v>
    <v>       0.25000001       0.74999950       0.70482499 </v>
    <v>       0.74999999       0.24999947       0.70482499 </v>
    <v>       0.74999998       0.74999950       0.70482499 </v>
    <v>       0.00000000       0.00000000       0.80731797 </v>
    <v>       0.00000000       0.50000000       0.80731797 </v>
    <v>       0.50000000       0.00000000       0.80731797 </v>
    <v>       0.49999999       0.50000000       0.80731797 </v>
    <v>       0.24999999       0.25000000       0.80731797 </v>
    <v>       0.25000001       0.74999997       0.80731797 </v>
    <v>       0.74999999       0.25000000       0.80731797 </v>
    <v>       0.74999998       0.74999997       0.80731797 </v>
   </varray>
  </structure>
  <varray name="primitive_index" >
   <v type="int" >        1 </v>
   <v type="int" >        2 </v>
   <v type="int" >        3 </v>
   <v type="int" >        4 </v>
   <v type="int" >        5 </v>
   <v type="int" >        6 </v>
   <v type="int" >        7 </v>
   <v type="int" >        8 </v>
   <v type="int" >        9 </v>
   <v type="int" >       10 </v>
   <v type="int" >       11 </v>
   <v type="int" >       12 </v>
   <v type="int" >       13 </v>
   <v type="int" >       14 </v>
   <v type="int" >       15 </v>
   <v type="int" >       16 </v>
   <v type="int" >       17 </v>
   <v type="int" >       18 </v>
   <v type="int" >       19 </v>
   <v type="int" >       20 </v>
   <v type="int" >       21 </v>
   <v type="int" >       22 </v>
   <v type="int" >       23 </v>
   <v type="int" >       24 </v>
   <v type="int" >       25 </v>
   <v type="int" >       26 </v>
   <v type="int" >       27 </v>
   <v type="int" >       28 </v>
   <v type="int" >       29 </v>
   <v type="int" >       30 </v>
   <v type="int" >       31 </v>
   <v type="int" >       32 </v>
   <v type="int" >       33 </v>
   <v type="int" >       34 </v>
   <v type="int" >       35 </v>
   <v type="int" >       36 </v>
   <v type="int" >       37 </v>
   <v type="int" >       38 </v>
   <v type="int" >       39 </v>
   <v type="int" >       40 </v>
   <v type="int" >       41 </v>
   <v type="int" >       42 </v>
   <v type="int" >       43 </v>
   <v type="int" >       44 </v>
   <v type="int" >       45 </v>
   <v type="int" >       46 </v>
   <v type="int" >       47 </v>
   <v type="int" >       48 </v>
   <v type="int" >       49 </v>
   <v type="int" >       50 </v>
   <v type="int" >       51 </v>
   <v type="int" >       52 </v>
   <v type="int" >       53 </v>
   <v type="int" >       54 </v>
   <v type="int" >       55 </v>
   <v type="int" >       56 </v>
   <v type="int" >       57 </v>
   <v type="int" >       58 </v>
   <v type="int" >       59 </v>
   <v type="int" >       60 </v>
   <v type="int" >       61 </v>
   <v type="int" >       62 </v>
   <v type="int" >       63 </v>
   <v type="int" >       64 </v>
   <v type="int" >       65 </v>
   <v type="int" >       66 </v>
   <v type="int" >       67 </v>
   <v type="int" >       68 </v>
   <v type="int" >       69 </v>
   <v type="int" >       70 </v>
   <v type="int" >       71 </v>
   <v type="int" >       72 </v>
   <v type="int" >       73 </v>
   <v type="int" >       74 </v>
   <v type="int" >       75 </v>
   <v type="int" >       76 </v>
   <v type="int" >       77 </v>
   <v type="int" >       78 </v>
   <v type="int" >       79 </v>
   <v type="int" >       80 </v>
   <v type="int" >       81 </v>
   <v type="int" >       82 </v>
   <v type="int" >       83 </v>
   <v type="int" >       84 </v>
   <v type="int" >       85 </v>
   <v type="int" >       86 </v>
   <v type="int" >       87 </v>
   <v type="int" >       88 </v>
   <v type="int" >       89 </v>
   <v type="int" >       90 </v>
   <v type="int" >       91 </v>
   <v type="int" >       92 </v>
   <v type="int" >       93 </v>
   <v type="int" >       94 </v>
   <v type="int" >       95 </v>
   <v type="int" >       96 </v>
   <v type="int" >       97 </v>
   <v type="int" >       98 </v>
   <v type="int" >       99 </v>
   <v type="int" >      100 </v>
   <v type="int" >      101 </v>
   <v type="int" >      102 </v>
   <v type="int" >      103 </v>
   <v type="int" >      104 </v>
   <v type="int" >      105 </v>
   <v type="int" >      106 </v>
   <v type="int" >      107 </v>
   <v type="int" >      108 </v>
   <v type="int" >      109 </v>
   <v type="int" >      110 </v>
   <v type="int" >      111 </v>
   <v type="int" >      112 </v>
   <v type="int" >      113 </v>
   <v type="int" >      114 </v>
   <v type="int" >      115 </v>
   <v type="int" >      116 </v>
   <v type="int" >      117 </v>
   <v type="int" >      118 </v>
   <v type="int" >      119 </v>
   <v type="int" >      120 </v>
   <v type="int" >      121 </v>
   <v type="int" >      122 </v>
   <v type="int" >      123 </v>
   <v type="int" >      124 </v>
   <v type="int" >      125 </v>
   <v type="int" >      126 </v>
   <v type="int" >      127 </v>
   <v type="int" >      128 </v>
   <v type="int" >      129 </v>
   <v type="int" >      130 </v>
   <v type="int" >      131 </v>
   <v type="int" >      132 </v>
   <v type="int" >      133 </v>
   <v type="int" >      134 </v>
   <v type="int" >      135 </v>
   <v type="int" >      136 </v>
   <v type="int" >      137 </v>
   <v type="int" >      138 </v>
   <v type="int" >      139 </v>
   <v type="int" >      140 </v>
   <v type="int" >      141 </v>
   <v type="int" >      142 </v>
   <v type="int" >      143 </v>
   <v type="int" >      144 </v>
   <v type="int" >      145 </v>
   <v type="int" >      146 </v>
   <v type="int" >      147 </v>
   <v type="int" >      148 </v>
   <v type="int" >      149 </v>
   <v type="int" >      150 </v>
   <v type="int" >      151 </v>
   <v type="int" >      152 </v>
   <v type="int" >      153 </v>
   <v type="int" >      154 </v>
   <v type="int" >      155 </v>
   <v type="int" >      156 </v>
   <v type="int" >      157 </v>
   <v type="int" >      158 </v>
   <v type="int" >      159 </v>
   <v type="int" >      160 </v>
   <v type="int" >      161 </v>
   <v type="int" >      162 </v>
   <v type="int" >      163 </v>
   <v type="int" >      164 </v>
   <v type="int" >      165 </v>
   <v type="int" >      166 </v>
   <v type="int" >      167 </v>
   <v type="int" >      168 </v>
   <v type="int" >      169 </v>
   <v type="int" >      170 </v>
   <v type="int" >      171 </v>
   <v type="int" >      172 </v>
   <v type="int" >      173 </v>
   <v type="int" >      174 </v>
   <v type="int" >      175 </v>
   <v type="int" >      176 </v>
   <v type="int" >      177 </v>
   <v type="int" >      178 </v>
   <v type="int" >      179 </v>
   <v type="int" >      180 </v>
   <v type="int" >      181 </v>
   <v type="int" >      182 </v>
   <v type="int" >      183 </v>
   <v type="int" >      184 </v>
   <v type="int" >      185 </v>
   <v type="int" >      186 </v>
   <v type="int" >      187 </v>
   <v type="int" >      188 </v>
   <v type="int" >      189 </v>
   <v type="int" >      190 </v>
   <v type="int" >      191 </v>
   <v type="int" >      192 </v>
   <v type="int" >      193 </v>
   <v type="int" >      194 </v>
   <v type="int" >      195 </v>
   <v type="int" >      196 </v>
   <v type="int" >      197 </v>
   <v type="int" >      198 </v>
   <v type="int" >      199 </v>
   <v type="int" >      200 </v>
   <v type="int" >      201 </v>
   <v type="int" >      202 </v>
   <v type="int" >      203 </v>
   <v type="int" >      204 </v>
   <v type="int" >      205 </v>
   <v type="int" >      206 </v>
   <v type="int" >      207 </v>
   <v type="int" >      208 </v>
   <v type="int" >      209 </v>
   <v type="int" >      210 </v>
   <v type="int" >      211 </v>
   <v type="int" >      212 </v>
   <v type="int" >      213 </v>
   <v type="int" >      214 </v>
   <v type="int" >      215 </v>
   <v type="int" >      216 </v>
   <v type="int" >      217 </v>
   <v type="int" >      218 </v>
   <v type="int" >      219 </v>
   <v type="int" >      220 </v>
   <v type="int" >      221 </v>
   <v type="int" >      222 </v>
   <v type="int" >      223 </v>
   <v type="int" >      224 </v>
   <v type="int" >      225 </v>
   <v type="int" >      226 </v>
   <v type="int" >      227 </v>
   <v type="int" >      228 </v>
   <v type="int" >      229 </v>
   <v type="int" >      230 </v>
   <v type="int" >      231 </v>
   <v type="int" >      232 </v>
   <v type="int" >      233 </v>
   <v type="int" >      234 </v>
   <v type="int" >      235 </v>
   <v type="int" >      236 </v>
   <v type="int" >      237 </v>
   <v type="int" >      238 </v>
   <v type="int" >      239 </v>
   <v type="int" >      240 </v>
   <v type="int" >      241 </v>
   <v type="int" >      242 </v>
   <v type="int" >      243 </v>
   <v type="int" >      244 </v>
   <v type="int" >      245 </v>
   <v type="int" >      246 </v>
   <v type="int" >      247 </v>
   <v type="int" >      248 </v>
   <v type="int" >      249 </v>
   <v type="int" >      250 </v>
   <v type="int" >      251 </v>
   <v type="int" >      252 </v>
   <v type="int" >      253 </v>
   <v type="int" >      254 </v>
   <v type="int" >      255 </v>
   <v type="int" >      256 </v>
   <v type="int" >      257 </v>
   <v type="int" >      258 </v>
   <v type="int" >      259 </v>
   <v type="int" >      260 </v>
   <v type="int" >      261 </v>
   <v type="int" >      262 </v>
   <v type="int" >      263 </v>
   <v type="int" >      264 </v>
   <v type="int" >      265 </v>
   <v type="int" >      266 </v>
   <v type="int" >      267 </v>
   <v type="int" >      268 </v>
   <v type="int" >      269 </v>
   <v type="int" >      270 </v>
   <v type="int" >      271 </v>
   <v type="int" >      272 </v>
   <v type="int" >      273 </v>
   <v type="int" >      274 </v>
   <v type="int" >      275 </v>
   <v type="int" >      276 </v>
   <v type="int" >      277 </v>
   <v type="int" >      278 </v>
   <v type="int" >      279 </v>
   <v type="int" >      280 </v>
   <v type="int" >      281 </v>
   <v type="int" >      282 </v>
   <v type="int" >      283 </v>
   <v type="int" >      284 </v>
   <v type="int" >      285 </v>
   <v type="int" >      286 </v>
   <v type="int" >      287 </v>
   <v type="int" >      288 </v>
   <v type="int" >      289 </v>
   <v type="int" >      290 </v>
   <v type="int" >      291 </v>
   <v type="int" >      292 </v>
   <v type="int" >      293 </v>
   <v type="int" >      294 </v>
   <v type="int" >      295 </v>
   <v type="int" >      296 </v>
   <v type="int" >      297 </v>
   <v type="int" >      298 </v>
   <v type="int" >      299 </v>
   <v type="int" >      300 </v>
   <v type="int" >      301 </v>
   <v type="int" >      302 </v>
   <v type="int" >      303 </v>
   <v type="int" >      304 </v>
   <v type="int" >      305 </v>
   <v type="int" >      306 </v>
   <v type="int" >      307 </v>
   <v type="int" >      308 </v>
   <v type="int" >      309 </v>
   <v type="int" >      310 </v>
   <v type="int" >      311 </v>
   <v type="int" >      312 </v>
   <v type="int" >      313 </v>
   <v type="int" >      314 </v>
   <v type="int" >      315 </v>
   <v type="int" >      316 </v>
   <v type="int" >      317 </v>
   <v type="int" >      318 </v>
   <v type="int" >      319 </v>
   <v type="int" >      320 </v>
   <v type="int" >      321 </v>
   <v type="int" >      322 </v>
   <v type="int" >      323 </v>
   <v type="int" >      324 </v>
   <v type="int" >      325 </v>
  </varray>
 </primitive_cell>
 <kpoints>
  <generation param="Gamma">
   <v type="int" name="divisions">       3        3        1 </v>
   <v name="usershift">      0.00000000       0.00000000       0.00000000 </v>
   <v name="genvec1">      0.33333333       0.00000000       0.00000000 </v>
   <v name="genvec2">      0.00000000       0.33333333       0.00000000 </v>
   <v name="genvec3">      0.00000000       0.00000000       1.00000000 </v>
   <v name="shift">      0.00000000       0.00000000       0.00000000 </v>
  </generation>
  <varray name="kpointlist" >
   <v>       0.00000000       0.00000000       0.00000000 </v>
   <v>       0.33333333       0.00000000       0.00000000 </v>
   <v>       0.00000000       0.33333333       0.00000000 </v>
   <v>       0.33333333       0.33333333       0.00000000 </v>
   <v>      -0.33333333       0.33333333       0.00000000 </v>
  </varray>
  <varray name="weights" >
   <v>       0.11111111 </v>
   <v>       0.22222222 </v>
   <v>       0.22222222 </v>
   <v>       0.22222222 </v>
   <v>       0.22222222 </v>
  </varray>
 </kpoints>
 <parameters>
  <separator name="general" >
   <i type="string" name="SYSTEM">PSC</i>
   <i type="logical" name="LCOMPAT"> F  </i>
  </separator>
  <separator name="electronic" >
   <i type="string" name="PREC">normal</i>
   <i name="ENMAX">    500.00000000</i>
   <i name="ENAUG">    644.87300000</i>
   <i name="EDIFF">      0.00010000</i>
   <i type="int" name="IALGO">    38</i>
   <i type="int" name="IWAVPR">    10</i>
   <i type="int" name="NBANDS">   732</i>
   <i type="int" name="NBANDSLOW">    -1</i>
   <i type="int" name="NBANDSHIGH">    -1</i>
   <i name="NELECT">   1134.00000000</i>
   <i type="int" name="TURBO">     0</i>
   <i type="int" name="IRESTART">     0</i>
   <i type="int" name="NREBOOT">     0</i>
   <i type="int" name="NMIN">     0</i>
   <i name="EREF">      0.00000000</i>
   <separator name="electronic smearing" >
    <i type="int" name="ISMEAR">     0</i>
    <i name="SIGMA">      0.05000000</i>
    <i name="KSPACING">      0.50000000</i>
    <i type="logical" name="KGAMMA"> T  </i>
    <i type="logical" name="KBLOWUP"> T  </i>
   </separator>
   <separator name="electronic projectors" >
    <i type="logical" name="LREAL"> T  </i>
    <v name="ROPT">     -0.00050000     -0.00050000     -0.00050000     -0.00050000     -0.00050000</v>
    <i type="int" name="LMAXPAW">  -100</i>
    <i type="int" name="LMAXMIX">     2</i>
    <i type="logical" name="NLSPLINE"> F  </i>
   </separator>
   <separator name="electronic startup" >
    <i type="int" name="ISTART">     0</i>
    <i type="int" name="ICHARG">     1</i>
    <i type="int" name="INIWAV">     1</i>
   </separator>
   <separator name="electronic spin" >
    <i type="int" name="ISPIN">     1</i>
    <i type="logical" name="LNONCOLLINEAR"> F  </i>
    <v name="MAGMOM">      1.00000000      1.00000000      1.00000000      1.00000000      1.00000000      1.00000000      1.00000000      1.00000000      1.00000000      1.00000000      1.00000000      1.00000000      1.00000000      1.00000000      1.00000000      1.00000000      1.00000000      1.00000000      1.00000000      1.00000000
      1.00000000      1.00000000      1.00000000      1.00000000      1.00000000      1.00000000      1.00000000      1.00000000      1.00000000      1.00000000      1.00000000      1.00000000      1.00000000      1.00000000      1.00000000      1.00000000      1.00000000      1.00000000      1.00000000      1.00000000
      1.00000000      1.00000000      1.00000000      1.00000000      1.00000000      1.00000000      1.00000000      1.00000000      1.00000000      1.00000000      1.00000000      1.00000000      1.00000000      1.00000000      1.00000000      1.00000000      1.00000000      1.00000000      1.00000000      1.00000000
      1.00000000      1.00000000      1.00000000      1.00000000      1.00000000      1.00000000      1.00000000      1.00000000      1.00000000      1.00000000      1.00000000      1.00000000      1.00000000      1.00000000      1.00000000      1.00000000      1.00000000      1.00000000      1.00000000      1.00000000
      1.00000000      1.00000000      1.00000000      1.00000000      1.00000000      1.00000000      1.00000000      1.00000000      1.00000000      1.00000000      1.00000000      1.00000000      1.00000000      1.00000000      1.00000000      1.00000000      1.00000000      1.00000000      1.00000000      1.00000000
      1.00000000      1.00000000      1.00000000      1.00000000      1.00000000      1.00000000      1.00000000      1.00000000      1.00000000      1.00000000      1.00000000      1.00000000      1.00000000      1.00000000      1.00000000      1.00000000      1.00000000      1.00000000      1.00000000      1.00000000
      1.00000000      1.00000000      1.00000000      1.00000000      1.00000000      1.00000000      1.00000000      1.00000000      1.00000000      1.00000000      1.00000000      1.00000000      1.00000000      1.00000000      1.00000000      1.00000000      1.00000000      1.00000000      1.00000000      1.00000000
      1.00000000      1.00000000      1.00000000      1.00000000      1.00000000      1.00000000      1.00000000      1.00000000      1.00000000      1.00000000      1.00000000      1.00000000      1.00000000      1.00000000      1.00000000      1.00000000      1.00000000      1.00000000      1.00000000      1.00000000
      1.00000000      1.00000000      1.00000000      1.00000000      1.00000000      1.00000000      1.00000000      1.00000000      1.00000000      1.00000000      1.00000000      1.00000000      1.00000000      1.00000000      1.00000000      1.00000000      1.00000000      1.00000000      1.00000000      1.00000000
      1.00000000      1.00000000      1.00000000      1.00000000      1.00000000      1.00000000      1.00000000      1.00000000      1.00000000      1.00000000      1.00000000      1.00000000      1.00000000      1.00000000      1.00000000      1.00000000      1.00000000      1.00000000      1.00000000      1.00000000
      1.00000000      1.00000000      1.00000000      1.00000000      1.00000000      1.00000000      1.00000000      1.00000000      1.00000000      1.00000000      1.00000000      1.00000000      1.00000000      1.00000000      1.00000000      1.00000000      1.00000000      1.00000000      1.00000000      1.00000000
      1.00000000      1.00000000      1.00000000      1.00000000      1.00000000      1.00000000      1.00000000      1.00000000      1.00000000      1.00000000      1.00000000      1.00000000      1.00000000      1.00000000      1.00000000      1.00000000      1.00000000      1.00000000      1.00000000      1.00000000
      1.00000000      1.00000000      1.00000000      1.00000000      1.00000000      1.00000000      1.00000000      1.00000000      1.00000000      1.00000000      1.00000000      1.00000000      1.00000000      1.00000000      1.00000000      1.00000000      1.00000000      1.00000000      1.00000000      1.00000000
      1.00000000      1.00000000      1.00000000      1.00000000      1.00000000      1.00000000      1.00000000      1.00000000      1.00000000      1.00000000      1.00000000      1.00000000      1.00000000      1.00000000      1.00000000      1.00000000      1.00000000      1.00000000      1.00000000      1.00000000
      1.00000000      1.00000000      1.00000000      1.00000000      1.00000000      1.00000000      1.00000000      1.00000000      1.00000000      1.00000000      1.00000000      1.00000000      1.00000000      1.00000000      1.00000000      1.00000000      1.00000000      1.00000000      1.00000000      1.00000000
      1.00000000      1.00000000      1.00000000      1.00000000      1.00000000      1.00000000      1.00000000      1.00000000      1.00000000      1.00000000      1.00000000      1.00000000      1.00000000      1.00000000      1.00000000      1.00000000      1.00000000      1.00000000      1.00000000      1.00000000
      1.00000000      1.00000000      1.00000000      1.00000000      1.00000000</v>
    <i name="NUPDOWN">     -1.00000000</i>
    <i type="logical" name="LSORBIT"> F  </i>
    <v name="SAXIS">      0.00000000      0.00000000      1.00000000</v>
    <i type="logical" name="LSPIRAL"> F  </i>
    <v name="QSPIRAL">      0.00000000      0.00000000      0.00000000</v>
    <i type="logical" name="LZEROZ"> F  </i>
   </separator>
   <separator name="electronic exchange-correlation" >
    <i type="logical" name="LASPH"> F  </i>
    <i type="logical" name="LMETAGGA"> F  </i>
   </separator>
   <separator name="electronic convergence" >
    <i type="int" name="NELM">   600</i>
    <i type="int" name="NELMDL">     0</i>
    <i type="int" name="NELMIN">     2</i>
    <i name="ENINI">    500.00000000</i>
    <separator name="electronic convergence detail" >
     <i type="logical" name="LDIAG"> T  </i>
     <i type="logical" name="LSUBROT"> F  </i>
     <i name="WEIMIN">      0.00000000</i>
     <i name="EBREAK">      0.00000003</i>
     <i name="DEPER">      0.30000000</i>
     <i type="int" name="NRMM">     4</i>
     <i name="TIME">      0.40000000</i>
    </separator>
   </separator>
   <separator name="electronic mixer" >
    <i name="AMIX">      0.40000000</i>
    <i name="BMIX">      0.01000000</i>
    <i name="AMIN">      0.01000000</i>
    <i name="AMIX_MAG">      1.60000000</i>
    <i name="BMIX_MAG">      0.01000000</i>
    <separator name="electronic mixer details" >
     <i type="int" name="IMIX">     4</i>
     <i type="logical" name="MIXFIRST"> F  </i>
     <i type="int" name="MAXMIX">   -45</i>
     <i name="WC">    100.00000000</i>
     <i type="int" name="INIMIX">     1</i>
     <i type="int" name="MIXPRE">     1</i>
     <i type="int" name="MREMOVE">     5</i>
    </separator>
   </separator>
   <separator name="electronic dipolcorrection" >
    <i type="logical" name="LDIPOL"> T  </i>
    <i type="logical" name="LMONO"> F  </i>
    <i type="int" name="IDIPOL">     3</i>
    <i name="EPSILON">      1.00000000</i>
    <v name="DIPOL">   -100.00000000   -100.00000000   -100.00000000</v>
    <i name="EFIELD">      0.00000000</i>
   </separator>
  </separator>
  <separator name="grids" >
   <i type="int" name="NGX">   100</i>
   <i type="int" name="NGY">   100</i>
   <i type="int" name="NGZ">   350</i>
   <i type="int" name="NGXF">   200</i>
   <i type="int" name="NGYF">   200</i>
   <i type="int" name="NGZF">   700</i>
   <i type="logical" name="ADDGRID"> F  </i>
  </separator>
  <separator name="ionic" >
   <i type="int" name="NSW">     0</i>
   <i type="int" name="IBRION">    -1</i>
   <i type="int" name="MDALGO">     0</i>
   <i type="int" name="ISIF">     2</i>
   <i name="PSTRESS">      0.00000000</i>
   <i name="EDIFFG">      0.00100000</i>
   <i type="int" name="NFREE">     0</i>
   <i name="POTIM">      0.50000000</i>
   <i name="SMASS">     -3.00000000</i>
   <i name="SCALEE">      1.00000000</i>
  </separator>
  <separator name="ionic md" >
   <i name="TEBEG">      0.00010000</i>
   <i name="TEEND">      0.00010000</i>
   <i type="int" name="NBLOCK">     1</i>
   <i type="int" name="KBLOCK">     1</i>
   <i type="int" name="NPACO">   256</i>
   <i name="APACO">     16.00000000</i>
  </separator>
  <separator name="symmetry" >
   <i type="int" name="ISYM">     0</i>
   <i name="SYMPREC">      0.00001000</i>
  </separator>
  <separator name="dos" >
   <i type="int" name="LORBIT">     0</i>
   <v name="RWIGS">     -1.00000000     -1.00000000     -1.00000000     -1.00000000     -1.00000000</v>
   <i type="int" name="NEDOS">   301</i>
   <i name="EMIN">     10.00000000</i>
   <i name="EMAX">    -10.00000000</i>
   <i name="EFERMI">      0.00000000</i>
  </separator>
  <separator name="writing" >
   <i type="int" name="NWRITE">     2</i>
   <i type="logical" name="LWAVE"> F  </i>
   <i type="logical" name="LDOWNSAMPLE"> F  </i>
   <i type="logical" name="LCHARG"> T  </i>
   <i type="logical" name="LPARD"> F  </i>
   <i type="logical" name="LVTOT"> T  </i>
   <i type="logical" name="LVHAR"> F  </i>
   <i type="logical" name="LELF"> F  </i>
   <i type="logical" name="LOPTICS"> F  </i>
   <v name="STM">      0.00000000      0.00000000      0.00000000      0.00000000      0.00000000      0.00000000      0.00000000</v>
  </separator>
  <separator name="performance" >
   <i type="int" name="NPAR">     4</i>
   <i type="int" name="NSIM">     4</i>
   <i type="int" name="NBLK">    -1</i>
   <i type="logical" name="LPLANE"> T  </i>
   <i type="logical" name="LSCALAPACK"> T  </i>
   <i type="logical" name="LSCAAWARE"> F  </i>
   <i type="logical" name="LSCALU"> F  </i>
   <i type="logical" name="LASYNC"> F  </i>
   <i type="logical" name="LORBITALREAL"> F  </i>
  </separator>
  <separator name="miscellaneous" >
   <i type="int" name="IDIOT">     3</i>
   <i type="int" name="PHON_NSTRUCT">    -1</i>
   <i type="logical" name="LMUSIC"> F  </i>
   <v name="POMASS">      1.00000000     12.01100000     14.00100000    126.90400000    207.20000000</v>
   <v name="DARWINR">      0.00000000      0.00000000      0.00000000      0.00000000      0.00000000</v>
   <v name="DARWINV">      1.00000000      1.00000000      1.00000000      1.00000000      1.00000000</v>
   <i type="logical" name="LCORR"> T  </i>
  </separator>
  <i type="logical" name="GGA_COMPAT"> F  </i>
  <i type="logical" name="LBERRY"> F  </i>
  <i type="int" name="ICORELEVEL">     0</i>
  <i type="logical" name="LDAU"> F  </i>
  <i type="int" name="I_CONSTRAINED_M">     0</i>
  <separator name="electronic exchange-correlation" >
   <i type="string" name="GGA">--</i>
   <i type="int" name="VOSKOWN">     0</i>
   <i type="logical" name="LHFCALC"> F  </i>
   <i type="string" name="PRECFOCK"></i>
   <i type="logical" name="LSYMGRAD"> F  </i>
   <i type="logical" name="LHFONE"> F  </i>
   <i type="logical" name="LRHFCALC"> F  </i>
   <i type="logical" name="LTHOMAS"> F  </i>
   <i type="logical" name="LMODELHF"> F  </i>
   <i type="logical" name="LFOCKACE"> F  </i>
   <i name="ENCUT4O">     -1.00000000</i>
   <i type="int" name="EXXOEP">     0</i>
   <i type="int" name="FOURORBIT">     0</i>
   <i name="AEXX">      0.00000000</i>
   <i name="HFALPHA">      0.00000000</i>
   <i name="MCALPHA">      0.00000000</i>
   <i name="ALDAX">      1.00000000</i>
   <i name="AGGAX">      1.00000000</i>
   <i name="ALDAC">      1.00000000</i>
   <i name="AGGAC">      1.00000000</i>
   <i type="int" name="NKREDX">     1</i>
   <i type="int" name="NKREDY">     1</i>
   <i type="int" name="NKREDZ">     1</i>
   <i type="logical" name="SHIFTRED"> F  </i>
   <i type="logical" name="ODDONLY"> F  </i>
   <i type="logical" name="EVENONLY"> F  </i>
   <i type="int" name="LMAXFOCK">     0</i>
   <i type="int" name="NMAXFOCKAE">     0</i>
   <i type="logical" name="LFOCKAEDFT"> F  </i>
   <i name="HFSCREEN">      0.00000000</i>
   <i name="HFSCREENC">      0.00000000</i>
   <i type="int" name="NBANDSGWLOW">     0</i>
  </separator>
  <separator name="vdW DFT" >
   <i type="logical" name="LUSE_VDW"> F  </i>
   <i name="Zab_VDW">     -0.84910000</i>
   <i name="PARAM1">      0.12340000</i>
   <i name="PARAM2">      1.00000000</i>
   <i name="PARAM3">      0.00000000</i>
  </separator>
  <separator name="model GW" >
   <i type="int" name="MODEL_GW">     0</i>
   <i name="MODEL_EPS0">     37.63423484</i>
   <i name="MODEL_ALPHA">      1.00000000</i>
  </separator>
  <separator name="linear response parameters" >
   <i type="logical" name="LEPSILON"> F  </i>
   <i type="logical" name="LRPA"> F  </i>
   <i type="logical" name="LNABLA"> F  </i>
   <i type="logical" name="LVEL"> F  </i>
   <i type="int" name="KINTER">     0</i>
   <i name="CSHIFT">      0.10000000</i>
   <i name="OMEGAMAX">     -1.00000000</i>
   <i name="DEG_THRESHOLD">      0.00200000</i>
   <i name="RTIME">     -0.10000000</i>
   <i name="WPLASMAI">      0.00000000</i>
   <v name="DFIELD">      0.00000000      0.00000000      0.00000000</v>
   <v name="WPLASMA">      0.00000000      0.00000000      0.00000000      0.00000000      0.00000000      0.00000000      0.00000000      0.00000000      0.00000000</v>
  </separator>
  <separator name="orbital magnetization" >
   <i type="logical" name="NUCIND"> F  </i>
   <v name="MAGPOS">      0.00000000      0.00000000      0.00000000</v>
   <i type="logical" name="LNICSALL"> T  </i>
   <i type="logical" name="ORBITALMAG"> F  </i>
   <i type="logical" name="LMAGBLOCH"> F  </i>
   <i type="logical" name="LCHIMAG"> F  </i>
   <i type="logical" name="LGAUGE"> T  </i>
   <i type="int" name="MAGATOM">     0</i>
   <v name="MAGDIPOL">      0.00000000      0.00000000      0.00000000</v>
   <v name="AVECCONST">      0.00000000      0.00000000      0.00000000</v>
  </separator>
  <separator name="response functions" >
   <i type="logical" name="LFINITE_TEMPERATURE"> F  </i>
   <i type="logical" name="LADDER"> F  </i>
   <i type="logical" name="LRPAFORCE"> F  </i>
   <i type="logical" name="LFXC"> F  </i>
   <i type="logical" name="LHARTREE"> T  </i>
   <i type="int" name="IBSE">     0</i>
   <v type="int" name="KPOINT">    -1     0     0     0</v>
   <i type="logical" name="LTCTC"> F  </i>
   <i type="logical" name="LTCTE"> F  </i>
   <i type="logical" name="LTETE"> F  </i>
   <i type="logical" name="LTRIPLET"> F  </i>
   <i type="logical" name="LFXCEPS"> F  </i>
   <i type="logical" name="LFXHEG"> F  </i>
   <i type="int" name="NATURALO">     2</i>
   <i type="logical" name="LHOLEGF"> F  </i>
   <i type="logical" name="L2ORDER"> F  </i>
   <i type="logical" name="LDMP1"> F  </i>
   <i type="logical" name="LMP2LT"> F  </i>
   <i type="logical" name="LSMP2LT"> F  </i>
   <i type="logical" name="LGWLF"> F  </i>
   <i name="ENCUTGW">     -2.00000000</i>
   <i name="ENCUTGWSOFT">     -2.00000000</i>
   <i name="ENCUTLF">     -1.00000000</i>
   <i type="logical" name="LESF_SPLINES"> F  </i>
   <i type="int" name="LMAXMP2">    -1</i>
   <i name="SCISSOR">      0.00000000</i>
   <i type="int" name="NOMEGA">     0</i>
   <i type="int" name="NOMEGAR">     0</i>
   <i type="int" name="NBANDSGW">    -1</i>
   <i type="int" name="NBANDSO">    -1</i>
   <i type="int" name="NBANDSV">    -1</i>
   <i type="int" name="NELM">   600</i>
   <i type="int" name="NELMHF">     1</i>
   <i type="int" name="DIM">     3</i>
   <i type="int" name="IESPILON">     4</i>
   <i type="int" name="ANTIRES">     0</i>
   <i name="OMEGAMAX">    -30.00000000</i>
   <i name="OMEGAMIN">    -30.00000000</i>
   <i name="OMEGATL">   -200.00000000</i>
   <i type="int" name="OMEGAGRID">     0</i>
   <i name="CSHIFT">     -0.10000000</i>
   <i type="logical" name="LSELFENERGY"> F  </i>
   <i type="logical" name="LSPECTRAL"> F  </i>
   <i type="logical" name="LSPECTRALGW"> F  </i>
   <i type="logical" name="LSINGLES"> F  </i>
   <i type="logical" name="LFERMIGW"> F  </i>
   <i type="logical" name="ODDONLYGW"> F  </i>
   <i type="logical" name="EVENONLYGW"> F  </i>
   <i type="int" name="NKREDLFX">     1</i>
   <i type="int" name="NKREDLFY">     1</i>
   <i type="int" name="NKREDLFZ">     1</i>
   <i type="int" name="MAXMEM">  2800</i>
   <i type="int" name="TELESCOPE">     0</i>
   <i type="int" name="NTAUPAR">    -1</i>
   <i type="int" name="NOMEGAPAR">    -1</i>
   <i name="DAMP_NEWTON">      0.80000001</i>
   <i name="LAMBDA">      1.00000000</i>
  </separator>
  <separator name="External order field" >
   <i name="OFIELD_KAPPA">      0.00000000</i>
   <v name="OFIELD_K">      0.00000000      0.00000000      0.00000000</v>
   <i name="OFIELD_Q6_NEAR">      0.00000000</i>
   <i name="OFIELD_Q6_FAR">      0.00000000</i>
   <i name="OFIELD_A">      0.00000000</i>
  </separator>
 </parameters>
 <atominfo>
  <atoms>     325 </atoms>
  <types>       5 </types>
  <array name="atoms" >
   <dimension dim="1">ion</dimension>
   <field type="string">element</field>
   <field type="int">atomtype</field>
   <set>
    <rc><c>H </c><c>   1</c></rc>
    <rc><c>H </c><c>   1</c></rc>
    <rc><c>H </c><c>   1</c></rc>
    <rc><c>H </c><c>   1</c></rc>
    <rc><c>H </c><c>   1</c></rc>
    <rc><c>H </c><c>   1</c></rc>
    <rc><c>H </c><c>   1</c></rc>
    <rc><c>H </c><c>   1</c></rc>
    <rc><c>H </c><c>   1</c></rc>
    <rc><c>H </c><c>   1</c></rc>
    <rc><c>H </c><c>   1</c></rc>
    <rc><c>H </c><c>   1</c></rc>
    <rc><c>H </c><c>   1</c></rc>
    <rc><c>H </c><c>   1</c></rc>
    <rc><c>H </c><c>   1</c></rc>
    <rc><c>H </c><c>   1</c></rc>
    <rc><c>H </c><c>   1</c></rc>
    <rc><c>H </c><c>   1</c></rc>
    <rc><c>H </c><c>   1</c></rc>
    <rc><c>H </c><c>   1</c></rc>
    <rc><c>H </c><c>   1</c></rc>
    <rc><c>H </c><c>   1</c></rc>
    <rc><c>H </c><c>   1</c></rc>
    <rc><c>H </c><c>   1</c></rc>
    <rc><c>H </c><c>   1</c></rc>
    <rc><c>H </c><c>   1</c></rc>
    <rc><c>H </c><c>   1</c></rc>
    <rc><c>H </c><c>   1</c></rc>
    <rc><c>H </c><c>   1</c></rc>
    <rc><c>H </c><c>   1</c></rc>
    <rc><c>H </c><c>   1</c></rc>
    <rc><c>H </c><c>   1</c></rc>
    <rc><c>H </c><c>   1</c></rc>
    <rc><c>H </c><c>   1</c></rc>
    <rc><c>H </c><c>   1</c></rc>
    <rc><c>H </c><c>   1</c></rc>
    <rc><c>H </c><c>   1</c></rc>
    <rc><c>H </c><c>   1</c></rc>
    <rc><c>H </c><c>   1</c></rc>
    <rc><c>H </c><c>   1</c></rc>
    <rc><c>H </c><c>   1</c></rc>
    <rc><c>H </c><c>   1</c></rc>
    <rc><c>H </c><c>   1</c></rc>
    <rc><c>H </c><c>   1</c></rc>
    <rc><c>H </c><c>   1</c></rc>
    <rc><c>H </c><c>   1</c></rc>
    <rc><c>H </c><c>   1</c></rc>
    <rc><c>H </c><c>   1</c></rc>
    <rc><c>H </c><c>   1</c></rc>
    <rc><c>H </c><c>   1</c></rc>
    <rc><c>H </c><c>   1</c></rc>
    <rc><c>H </c><c>   1</c></rc>
    <rc><c>H </c><c>   1</c></rc>
    <rc><c>H </c><c>   1</c></rc>
    <rc><c>H </c><c>   1</c></rc>
    <rc><c>H </c><c>   1</c></rc>
    <rc><c>H </c><c>   1</c></rc>
    <rc><c>H </c><c>   1</c></rc>
    <rc><c>H </c><c>   1</c></rc>
    <rc><c>H </c><c>   1</c></rc>
    <rc><c>H </c><c>   1</c></rc>
    <rc><c>H </c><c>   1</c></rc>
    <rc><c>H </c><c>   1</c></rc>
    <rc><c>H </c><c>   1</c></rc>
    <rc><c>H </c><c>   1</c></rc>
    <rc><c>H </c><c>   1</c></rc>
    <rc><c>H </c><c>   1</c></rc>
    <rc><c>H </c><c>   1</c></rc>
    <rc><c>H </c><c>   1</c></rc>
    <rc><c>H </c><c>   1</c></rc>
    <rc><c>H </c><c>   1</c></rc>
    <rc><c>H </c><c>   1</c></rc>
    <rc><c>H </c><c>   1</c></rc>
    <rc><c>H </c><c>   1</c></rc>
    <rc><c>H </c><c>   1</c></rc>
    <rc><c>H </c><c>   1</c></rc>
    <rc><c>H </c><c>   1</c></rc>
    <rc><c>H </c><c>   1</c></rc>
    <rc><c>H </c><c>   1</c></rc>
    <rc><c>H </c><c>   1</c></rc>
    <rc><c>H </c><c>   1</c></rc>
    <rc><c>H </c><c>   1</c></rc>
    <rc><c>H </c><c>   1</c></rc>
    <rc><c>H </c><c>   1</c></rc>
    <rc><c>H </c><c>   1</c></rc>
    <rc><c>H </c><c>   1</c></rc>
    <rc><c>H </c><c>   1</c></rc>
    <rc><c>H </c><c>   1</c></rc>
    <rc><c>H </c><c>   1</c></rc>
    <rc><c>H </c><c>   1</c></rc>
    <rc><c>H </c><c>   1</c></rc>
    <rc><c>H </c><c>   1</c></rc>
    <rc><c>H </c><c>   1</c></rc>
    <rc><c>H </c><c>   1</c></rc>
    <rc><c>H </c><c>   1</c></rc>
    <rc><c>H </c><c>   1</c></rc>
    <rc><c>H </c><c>   1</c></rc>
    <rc><c>H </c><c>   1</c></rc>
    <rc><c>H </c><c>   1</c></rc>
    <rc><c>H </c><c>   1</c></rc>
    <rc><c>H </c><c>   1</c></rc>
    <rc><c>H </c><c>   1</c></rc>
    <rc><c>H </c><c>   1</c></rc>
    <rc><c>H </c><c>   1</c></rc>
    <rc><c>H </c><c>   1</c></rc>
    <rc><c>H </c><c>   1</c></rc>
    <rc><c>H </c><c>   1</c></rc>
    <rc><c>H </c><c>   1</c></rc>
    <rc><c>H </c><c>   1</c></rc>
    <rc><c>H </c><c>   1</c></rc>
    <rc><c>H </c><c>   1</c></rc>
    <rc><c>H </c><c>   1</c></rc>
    <rc><c>H </c><c>   1</c></rc>
    <rc><c>H </c><c>   1</c></rc>
    <rc><c>H </c><c>   1</c></rc>
    <rc><c>H </c><c>   1</c></rc>
    <rc><c>H </c><c>   1</c></rc>
    <rc><c>H </c><c>   1</c></rc>
    <rc><c>H </c><c>   1</c></rc>
    <rc><c>H </c><c>   1</c></rc>
    <rc><c>H </c><c>   1</c></rc>
    <rc><c>H </c><c>   1</c></rc>
    <rc><c>H </c><c>   1</c></rc>
    <rc><c>H </c><c>   1</c></rc>
    <rc><c>H </c><c>   1</c></rc>
    <rc><c>H </c><c>   1</c></rc>
    <rc><c>H </c><c>   1</c></rc>
    <rc><c>H </c><c>   1</c></rc>
    <rc><c>H </c><c>   1</c></rc>
    <rc><c>H </c><c>   1</c></rc>
    <rc><c>H </c><c>   1</c></rc>
    <rc><c>H </c><c>   1</c></rc>
    <rc><c>H </c><c>   1</c></rc>
    <rc><c>H </c><c>   1</c></rc>
    <rc><c>H </c><c>   1</c></rc>
    <rc><c>H </c><c>   1</c></rc>
    <rc><c>H </c><c>   1</c></rc>
    <rc><c>H </c><c>   1</c></rc>
    <rc><c>H </c><c>   1</c></rc>
    <rc><c>H </c><c>   1</c></rc>
    <rc><c>H </c><c>   1</c></rc>
    <rc><c>H </c><c>   1</c></rc>
    <rc><c>H </c><c>   1</c></rc>
    <rc><c>C </c><c>   2</c></rc>
    <rc><c>C </c><c>   2</c></rc>
    <rc><c>C </c><c>   2</c></rc>
    <rc><c>C </c><c>   2</c></rc>
    <rc><c>C </c><c>   2</c></rc>
    <rc><c>C </c><c>   2</c></rc>
    <rc><c>C </c><c>   2</c></rc>
    <rc><c>C </c><c>   2</c></rc>
    <rc><c>C </c><c>   2</c></rc>
    <rc><c>C </c><c>   2</c></rc>
    <rc><c>C </c><c>   2</c></rc>
    <rc><c>C </c><c>   2</c></rc>
    <rc><c>C </c><c>   2</c></rc>
    <rc><c>C </c><c>   2</c></rc>
    <rc><c>C </c><c>   2</c></rc>
    <rc><c>C </c><c>   2</c></rc>
    <rc><c>C </c><c>   2</c></rc>
    <rc><c>C </c><c>   2</c></rc>
    <rc><c>C </c><c>   2</c></rc>
    <rc><c>C </c><c>   2</c></rc>
    <rc><c>C </c><c>   2</c></rc>
    <rc><c>C </c><c>   2</c></rc>
    <rc><c>C </c><c>   2</c></rc>
    <rc><c>C </c><c>   2</c></rc>
    <rc><c>C </c><c>   2</c></rc>
    <rc><c>C </c><c>   2</c></rc>
    <rc><c>C </c><c>   2</c></rc>
    <rc><c>C </c><c>   2</c></rc>
    <rc><c>C </c><c>   2</c></rc>
    <rc><c>C </c><c>   2</c></rc>
    <rc><c>C </c><c>   2</c></rc>
    <rc><c>C </c><c>   2</c></rc>
    <rc><c>C </c><c>   2</c></rc>
    <rc><c>C </c><c>   2</c></rc>
    <rc><c>C </c><c>   2</c></rc>
    <rc><c>C </c><c>   2</c></rc>
    <rc><c>C </c><c>   2</c></rc>
    <rc><c>C </c><c>   2</c></rc>
    <rc><c>C </c><c>   2</c></rc>
    <rc><c>N </c><c>   3</c></rc>
    <rc><c>N </c><c>   3</c></rc>
    <rc><c>N </c><c>   3</c></rc>
    <rc><c>N </c><c>   3</c></rc>
    <rc><c>N </c><c>   3</c></rc>
    <rc><c>N </c><c>   3</c></rc>
    <rc><c>N </c><c>   3</c></rc>
    <rc><c>N </c><c>   3</c></rc>
    <rc><c>N </c><c>   3</c></rc>
    <rc><c>N </c><c>   3</c></rc>
    <rc><c>N </c><c>   3</c></rc>
    <rc><c>N </c><c>   3</c></rc>
    <rc><c>N </c><c>   3</c></rc>
    <rc><c>N </c><c>   3</c></rc>
    <rc><c>N </c><c>   3</c></rc>
    <rc><c>N </c><c>   3</c></rc>
    <rc><c>N </c><c>   3</c></rc>
    <rc><c>N </c><c>   3</c></rc>
    <rc><c>N </c><c>   3</c></rc>
    <rc><c>N </c><c>   3</c></rc>
    <rc><c>N </c><c>   3</c></rc>
    <rc><c>N </c><c>   3</c></rc>
    <rc><c>N </c><c>   3</c></rc>
    <rc><c>N </c><c>   3</c></rc>
    <rc><c>N </c><c>   3</c></rc>
    <rc><c>N </c><c>   3</c></rc>
    <rc><c>N </c><c>   3</c></rc>
    <rc><c>N </c><c>   3</c></rc>
    <rc><c>N </c><c>   3</c></rc>
    <rc><c>N </c><c>   3</c></rc>
    <rc><c>N </c><c>   3</c></rc>
    <rc><c>N </c><c>   3</c></rc>
    <rc><c>N </c><c>   3</c></rc>
    <rc><c>N </c><c>   3</c></rc>
    <rc><c>N </c><c>   3</c></rc>
    <rc><c>N </c><c>   3</c></rc>
    <rc><c>N </c><c>   3</c></rc>
    <rc><c>N </c><c>   3</c></rc>
    <rc><c>N </c><c>   3</c></rc>
    <rc><c>N </c><c>   3</c></rc>
    <rc><c>N </c><c>   3</c></rc>
    <rc><c>N </c><c>   3</c></rc>
    <rc><c>N </c><c>   3</c></rc>
    <rc><c>N </c><c>   3</c></rc>
    <rc><c>N </c><c>   3</c></rc>
    <rc><c>N </c><c>   3</c></rc>
    <rc><c>N </c><c>   3</c></rc>
    <rc><c>I </c><c>   4</c></rc>
    <rc><c>I </c><c>   4</c></rc>
    <rc><c>I </c><c>   4</c></rc>
    <rc><c>I </c><c>   4</c></rc>
    <rc><c>I </c><c>   4</c></rc>
    <rc><c>I </c><c>   4</c></rc>
    <rc><c>I </c><c>   4</c></rc>
    <rc><c>I </c><c>   4</c></rc>
    <rc><c>I </c><c>   4</c></rc>
    <rc><c>I </c><c>   4</c></rc>
    <rc><c>I </c><c>   4</c></rc>
    <rc><c>I </c><c>   4</c></rc>
    <rc><c>I </c><c>   4</c></rc>
    <rc><c>I </c><c>   4</c></rc>
    <rc><c>I </c><c>   4</c></rc>
    <rc><c>I </c><c>   4</c></rc>
    <rc><c>I </c><c>   4</c></rc>
    <rc><c>I </c><c>   4</c></rc>
    <rc><c>I </c><c>   4</c></rc>
    <rc><c>I </c><c>   4</c></rc>
    <rc><c>I </c><c>   4</c></rc>
    <rc><c>I </c><c>   4</c></rc>
    <rc><c>I </c><c>   4</c></rc>
    <rc><c>I </c><c>   4</c></rc>
    <rc><c>I </c><c>   4</c></rc>
    <rc><c>I </c><c>   4</c></rc>
    <rc><c>I </c><c>   4</c></rc>
    <rc><c>I </c><c>   4</c></rc>
    <rc><c>I </c><c>   4</c></rc>
    <rc><c>I </c><c>   4</c></rc>
    <rc><c>I </c><c>   4</c></rc>
    <rc><c>I </c><c>   4</c></rc>
    <rc><c>I </c><c>   4</c></rc>
    <rc><c>I </c><c>   4</c></rc>
    <rc><c>I </c><c>   4</c></rc>
    <rc><c>I </c><c>   4</c></rc>
    <rc><c>I </c><c>   4</c></rc>
    <rc><c>I </c><c>   4</c></rc>
    <rc><c>I </c><c>   4</c></rc>
    <rc><c>I </c><c>   4</c></rc>
    <rc><c>I </c><c>   4</c></rc>
    <rc><c>I </c><c>   4</c></rc>
    <rc><c>I </c><c>   4</c></rc>
    <rc><c>I </c><c>   4</c></rc>
    <rc><c>I </c><c>   4</c></rc>
    <rc><c>I </c><c>   4</c></rc>
    <rc><c>I </c><c>   4</c></rc>
    <rc><c>I </c><c>   4</c></rc>
    <rc><c>I </c><c>   4</c></rc>
    <rc><c>I </c><c>   4</c></rc>
    <rc><c>I </c><c>   4</c></rc>
    <rc><c>I </c><c>   4</c></rc>
    <rc><c>I </c><c>   4</c></rc>
    <rc><c>I </c><c>   4</c></rc>
    <rc><c>I </c><c>   4</c></rc>
    <rc><c>I </c><c>   4</c></rc>
    <rc><c>I </c><c>   4</c></rc>
    <rc><c>I </c><c>   4</c></rc>
    <rc><c>I </c><c>   4</c></rc>
    <rc><c>I </c><c>   4</c></rc>
    <rc><c>I </c><c>   4</c></rc>
    <rc><c>I </c><c>   4</c></rc>
    <rc><c>I </c><c>   4</c></rc>
    <rc><c>I </c><c>   4</c></rc>
    <rc><c>I </c><c>   4</c></rc>
    <rc><c>I </c><c>   4</c></rc>
    <rc><c>I </c><c>   4</c></rc>
    <rc><c>I </c><c>   4</c></rc>
    <rc><c>I </c><c>   4</c></rc>
    <rc><c>I </c><c>   4</c></rc>
    <rc><c>I </c><c>   4</c></rc>
    <rc><c>I </c><c>   4</c></rc>
    <rc><c>Pb</c><c>   5</c></rc>
    <rc><c>Pb</c><c>   5</c></rc>
    <rc><c>Pb</c><c>   5</c></rc>
    <rc><c>Pb</c><c>   5</c></rc>
    <rc><c>Pb</c><c>   5</c></rc>
    <rc><c>Pb</c><c>   5</c></rc>
    <rc><c>Pb</c><c>   5</c></rc>
    <rc><c>Pb</c><c>   5</c></rc>
    <rc><c>Pb</c><c>   5</c></rc>
    <rc><c>Pb</c><c>   5</c></rc>
    <rc><c>Pb</c><c>   5</c></rc>
    <rc><c>Pb</c><c>   5</c></rc>
    <rc><c>Pb</c><c>   5</c></rc>
    <rc><c>Pb</c><c>   5</c></rc>
    <rc><c>Pb</c><c>   5</c></rc>
    <rc><c>Pb</c><c>   5</c></rc>
    <rc><c>Pb</c><c>   5</c></rc>
    <rc><c>Pb</c><c>   5</c></rc>
    <rc><c>Pb</c><c>   5</c></rc>
    <rc><c>Pb</c><c>   5</c></rc>
    <rc><c>Pb</c><c>   5</c></rc>
    <rc><c>Pb</c><c>   5</c></rc>
    <rc><c>Pb</c><c>   5</c></rc>
    <rc><c>Pb</c><c>   5</c></rc>
   </set>
  </array>
  <array name="atomtypes" >
   <dimension dim="1">type</dimension>
   <field type="int">atomspertype</field>
   <field type="string">element</field>
   <field>mass</field>
   <field>valence</field>
   <field type="string">pseudopotential</field>
   <set>
    <rc><c> 143</c><c>H </c><c>      1.00000000</c><c>      1.00000000</c><c>  PAW_PBE H 15Jun2001                   </c></rc>
    <rc><c>  39</c><c>C </c><c>     12.01100000</c><c>      4.00000000</c><c>  PAW_PBE C 08Apr2002                   </c></rc>
    <rc><c>  47</c><c>N </c><c>     14.00100000</c><c>      5.00000000</c><c>  PAW_PBE N 08Apr2002                   </c></rc>
    <rc><c>  72</c><c>I </c><c>    126.90400000</c><c>      7.00000000</c><c>  PAW_PBE I 08Apr2002                   </c></rc>
    <rc><c>  24</c><c>Pb</c><c>    207.20000000</c><c>      4.00000000</c><c>  PAW_PBE Pb 08Apr2002                  </c></rc>
   </set>
  </array>
 </atominfo>
 <structure name="initialpos" >
  <crystal>
   <varray name="basis" >
    <v>      18.06080055       0.00000000       0.00000000 </v>
    <v>      -0.00491865      18.06279945       0.00000000 </v>
    <v>       0.00000000       0.00000000      62.48749924 </v>
   </varray>
   <i name="volume">  20385.21054034 </i>
   <varray name="rec_basis" >
    <v>       0.05536853       0.00001508      -0.00000000 </v>
    <v>       0.00000000       0.05536240       0.00000000 </v>
    <v>       0.00000000      -0.00000000       0.01600320 </v>
   </varray>
  </crystal>
  <varray name="positions" >
   <v>       0.43894456       0.30018168       0.57573020 </v>
   <v>       0.43961438       0.82942018       0.57771150 </v>
   <v>       0.98332119       0.30645598       0.58135401 </v>
   <v>       0.96903274       0.79772778       0.58298227 </v>
   <v>       0.31771342       0.99630430       0.57970280 </v>
   <v>       0.31424413       0.55648763       0.58006921 </v>
   <v>       0.78283784       0.06658671       0.58293611 </v>
   <v>       0.05494611       0.13691106       0.56104001 </v>
   <v>       0.05607327       0.64263669       0.55749291 </v>
   <v>       0.59069736       0.19595594       0.55434678 </v>
   <v>       0.54743084       0.67065242       0.56213343 </v>
   <v>       0.34330738       0.04819973       0.55778228 </v>
   <v>       0.29511368       0.60944953       0.55797018 </v>
   <v>       0.84740343       0.06274387       0.56290073 </v>
   <v>       0.03069464       0.17776452       0.58442420 </v>
   <v>       0.02563772       0.67362509       0.58214647 </v>
   <v>       0.56571889       0.25909984       0.57404231 </v>
   <v>       0.48943135       0.70007605       0.58266622 </v>
   <v>       0.24594276       0.43383901       0.58209042 </v>
   <v>       0.18667069       0.94682083       0.57979950 </v>
   <v>       0.68193110       0.97214135       0.58161139 </v>
   <v>       0.37487971       0.26363978       0.55716814 </v>
   <v>       0.47126659       0.87874274       0.55580563 </v>
   <v>       0.98917569       0.35012612       0.55674429 </v>
   <v>       0.96549504       0.84824071       0.55907392 </v>
   <v>       0.18574066       0.41613935       0.56122859 </v>
   <v>       0.13234024       0.97509774       0.55856167 </v>
   <v>       0.68663702       0.90920665       0.56039596 </v>
   <v>       0.46646830       0.19458357       0.54061149 </v>
   <v>       0.54261589       0.77923031       0.54315270 </v>
   <v>       0.03242755       0.23787678       0.54065782 </v>
   <v>       0.01881913       0.75172292       0.53977654 </v>
   <v>       0.21308322       0.52526470       0.54348175 </v>
   <v>       0.22569091       0.04131010       0.54229884 </v>
   <v>       0.79249711       0.96139552       0.54638876 </v>
   <v>       0.45838459       0.31067235       0.67481240 </v>
   <v>       0.43354695       0.81503170       0.67219493 </v>
   <v>       0.96855650       0.28139148       0.68108190 </v>
   <v>       0.93106600       0.79129311       0.67510268 </v>
   <v>       0.29810654       0.05304092       0.67502851 </v>
   <v>       0.30239404       0.54653463       0.67591675 </v>
   <v>       0.79569926       0.05614897       0.67477516 </v>
   <v>       0.80316047       0.58148164       0.67075501 </v>
   <v>       0.08239906       0.16633593       0.64563463 </v>
   <v>       0.09741467       0.69266705       0.65582972 </v>
   <v>       0.57189729       0.16242540       0.65187178 </v>
   <v>       0.57431684       0.67926457       0.65708888 </v>
   <v>       0.17807194       0.41380250       0.64897477 </v>
   <v>       0.17634520       0.91456556       0.65050407 </v>
   <v>       0.69210598       0.41811689       0.65956625 </v>
   <v>       0.67083034       0.92297839       0.64938184 </v>
   <v>       0.06666947       0.17934462       0.67271243 </v>
   <v>       0.04258730       0.69737592       0.67846682 </v>
   <v>       0.56832808       0.21707739       0.67469116 </v>
   <v>       0.53338731       0.71778107       0.67956616 </v>
   <v>       0.20974098       0.43776373       0.67439227 </v>
   <v>       0.20060973       0.94823813       0.67552464 </v>
   <v>       0.70856517       0.48192846       0.67997719 </v>
   <v>       0.69150734       0.95898518       0.67442921 </v>
   <v>       0.40092181       0.30754382       0.65260160 </v>
   <v>       0.41709815       0.83161878       0.64521181 </v>
   <v>       0.93101582       0.32371011       0.65864669 </v>
   <v>       0.92721080       0.83626535       0.65058355 </v>
   <v>       0.32915287       0.07922730       0.64983884 </v>
   <v>       0.32304820       0.58586670       0.65121497 </v>
   <v>       0.83596763       0.07521871       0.65005012 </v>
   <v>       0.83610763       0.57863447       0.64456337 </v>
   <v>       0.99608045       0.25886355       0.63489719 </v>
   <v>       0.03067456       0.78281216       0.63688917 </v>
   <v>       0.46879331       0.21304937       0.63624078 </v>
   <v>       0.50686412       0.74580187       0.63380102 </v>
   <v>       0.25449561       0.99328184       0.63234626 </v>
   <v>       0.24564605       0.50447640       0.63235750 </v>
   <v>       0.76246063       0.99367033       0.63212668 </v>
   <v>       0.76972274       0.47427553       0.63582462 </v>
   <v>       0.44874502       0.30128397       0.76888902 </v>
   <v>       0.44874501       0.80128391       0.76888902 </v>
   <v>       0.94874497       0.30128397       0.76888902 </v>
   <v>       0.94874501       0.80128391       0.76888902 </v>
   <v>       0.30127600       0.05129450       0.76887296 </v>
   <v>       0.30127601       0.55129450       0.76887296 </v>
   <v>       0.80127594       0.05129450       0.76887296 </v>
   <v>       0.80127598       0.55129450       0.76887296 </v>
   <v>       0.07877100       0.17118050       0.74344197 </v>
   <v>       0.07877101       0.67118045       0.74344197 </v>
   <v>       0.57877100       0.17118050       0.74344197 </v>
   <v>       0.57877099       0.67118045       0.74344197 </v>
   <v>       0.17119950       0.42117448       0.74342103 </v>
   <v>       0.17119950       0.92117451       0.74342103 </v>
   <v>       0.67119951       0.42117448       0.74342103 </v>
   <v>       0.67119950       0.92117451       0.74342103 </v>
   <v>       0.05125600       0.19871499       0.76888902 </v>
   <v>       0.05125600       0.69871493       0.76888902 </v>
   <v>       0.55125603       0.19871499       0.76888902 </v>
   <v>       0.55125602       0.69871493       0.76888902 </v>
   <v>       0.19872349       0.44870397       0.76887205 </v>
   <v>       0.19872349       0.94870397       0.76887205 </v>
   <v>       0.69872352       0.44870397       0.76887205 </v>
   <v>       0.69872351       0.94870397       0.76887205 </v>
   <v>       0.42123152       0.32881747       0.74344197 </v>
   <v>       0.42123151       0.82881744       0.74344197 </v>
   <v>       0.92123147       0.32881747       0.74344197 </v>
   <v>       0.92123151       0.82881744       0.74344197 </v>
   <v>       0.32880050       0.07882500       0.74342103 </v>
   <v>       0.32880049       0.57882496       0.74342103 </v>
   <v>       0.82880048       0.07882500       0.74342103 </v>
   <v>       0.82880052       0.57882496       0.74342103 </v>
   <v>       0.00000350       0.25000148       0.72582199 </v>
   <v>       0.00000350       0.75000145       0.72582199 </v>
   <v>       0.50000351       0.25000148       0.72582199 </v>
   <v>       0.50000350       0.75000145       0.72582199 </v>
   <v>       0.25000050       0.00000000       0.72580398 </v>
   <v>       0.25000052       0.50000000       0.72580398 </v>
   <v>       0.75000050       0.00000000       0.72580398 </v>
   <v>       0.75000049       0.50000000       0.72580398 </v>
   <v>       0.77629969       0.55787906       0.52394940 </v>
   <v>       0.72597645       0.47746261       0.52794007 </v>
   <v>       0.86880219       0.50428200       0.54571999 </v>
   <v>       0.85107632       0.48205221       0.57238927 </v>
   <v>       0.73906874       0.63885738       0.56331293 </v>
   <v>       0.79922954       0.59205042       0.58148770 </v>
   <v>       0.65906720       0.53920884       0.57115397 </v>
   <v>       0.67415968       0.45143493       0.56128585 </v>
   <v>       0.61428742       0.54718784       0.53876065 </v>
   <v>       0.66885018       0.62826262       0.54088632 </v>
   <v>       0.61319859       0.65042852       0.50857126 </v>
   <v>       0.69223715       0.60524045       0.49876550 </v>
   <v>       0.83046820       0.38816699       0.53234299 </v>
   <v>       0.75717247       0.37528985       0.55097214 </v>
   <v>       0.84878649       0.35931099       0.55922123 </v>
   <v>       0.85852057       0.69146374       0.55911726 </v>
   <v>       0.84909289       0.63359403       0.53605699 </v>
   <v>       0.90631474       0.60360937       0.55827591 </v>
   <v>       0.75828139       0.51155953       0.59986510 </v>
   <v>       0.75512168       0.41851123       0.59161931 </v>
   <v>       0.67466583       0.46275940       0.60126876 </v>
   <v>       0.54076942       0.53596585       0.50697695 </v>
   <v>       0.57708686       0.55613499       0.48168124 </v>
   <v>       0.70706967       0.49183684       0.47397829 </v>
   <v>       0.54956468       0.41723366       0.52099630 </v>
   <v>       0.77388515       0.37350782       0.47645879 </v>
   <v>       0.61858928       0.29592777       0.52371773 </v>
   <v>       0.73055563       0.27485428       0.50153110 </v>
   <v>       0.02017399       0.24186749       0.55770603 </v>
   <v>       0.00963718       0.74457015       0.55731826 </v>
   <v>       0.48333856       0.22870336       0.55429538 </v>
   <v>       0.51031207       0.77327890       0.55787879 </v>
   <v>       0.23935296       0.51207072       0.55849360 </v>
   <v>       0.23660970       0.01284925       0.55713719 </v>
   <v>       0.76855372       0.98548857       0.56057605 </v>
   <v>       0.00576655       0.24583503       0.65215241 </v>
   <v>       0.01285005       0.76446343       0.65307465 </v>
   <v>       0.48692570       0.23407553       0.65196103 </v>
   <v>       0.49636304       0.75516897       0.65116271 </v>
   <v>       0.25182944       0.50065923       0.64998315 </v>
   <v>       0.25209109       0.99608911       0.64992394 </v>
   <v>       0.76351257       0.49775684       0.65189278 </v>
   <v>       0.75252630       0.99822171       0.64949838 </v>
   <v>       0.49998898       0.24999498       0.74327702 </v>
   <v>       0.49998903       0.74999496       0.74327702 </v>
   <v>       0.99998898       0.24999498       0.74327702 </v>
   <v>       0.99998903       0.74999496       0.74327702 </v>
   <v>       0.25000050       0.00000100       0.74325596 </v>
   <v>       0.25000052       0.50000100       0.74325596 </v>
   <v>       0.75000050       0.00000100       0.74325596 </v>
   <v>       0.75000049       0.50000100       0.74325596 </v>
   <v>       0.62521003       0.46278628       0.49730387 </v>
   <v>       0.68750143       0.44982265       0.48451830 </v>
   <v>       0.59943454       0.40744610       0.51113544 </v>
   <v>       0.72565331       0.38116444       0.48589552 </v>
   <v>       0.63760800       0.33873472       0.51258788 </v>
   <v>       0.70081771       0.32616837       0.50017228 </v>
   <v>       0.73284105       0.53305405       0.53382485 </v>
   <v>       0.82854216       0.47688501       0.55617215 </v>
   <v>       0.78745448       0.60106172       0.56453058 </v>
   <v>       0.70114880       0.49646409       0.56990073 </v>
   <v>       0.66140144       0.57822624       0.53184991 </v>
   <v>       0.64276908       0.59742982       0.50854489 </v>
   <v>       0.81512404       0.39642746       0.54921947 </v>
   <v>       0.85511566       0.63337560       0.55366115 </v>
   <v>       0.72430716       0.47065520       0.59172004 </v>
   <v>       0.59175171       0.53962705       0.49796465 </v>
   <v>       0.03615777       0.18191323       0.56881610 </v>
   <v>       0.03258168       0.68361299       0.56641444 </v>
   <v>       0.55064066       0.22664082       0.56159957 </v>
   <v>       0.51744040       0.71164118       0.56876452 </v>
   <v>       0.42899028       0.26992828       0.56275349 </v>
   <v>       0.46859344       0.82978459       0.56412840 </v>
   <v>       0.99123381       0.30222424       0.56550862 </v>
   <v>       0.97710183       0.79993894       0.56686546 </v>
   <v>       0.22325297       0.44973986       0.56747074 </v>
   <v>       0.18267824       0.97560921       0.56536418 </v>
   <v>       0.70637704       0.95474999       0.56754467 </v>
   <v>       0.30371169       0.02113475       0.56531595 </v>
   <v>       0.28532037       0.56305888       0.56588546 </v>
   <v>       0.80437592       0.03865291       0.56973786 </v>
   <v>       0.05275776       0.19582136       0.65715695 </v>
   <v>       0.05130104       0.71665310       0.66298759 </v>
   <v>       0.54486805       0.20408547       0.66004559 </v>
   <v>       0.53805143       0.71421475       0.66367101 </v>
   <v>       0.21075286       0.44767595       0.65873533 </v>
   <v>       0.20766619       0.95126207       0.65963090 </v>
   <v>       0.71781219       0.46356578       0.66480558 </v>
   <v>       0.70262392       0.95843174       0.65876769 </v>
   <v>       0.44667487       0.28852786       0.66071131 </v>
   <v>       0.44612766       0.80367095       0.65692943 </v>
   <v>       0.96512597       0.28673118       0.66535500 </v>
   <v>       0.95327349       0.79816135       0.65995683 </v>
   <v>       0.29627708       0.04623205       0.65932688 </v>
   <v>       0.29406141       0.54643479       0.66008533 </v>
   <v>       0.79779697       0.04679957       0.65917322 </v>
   <v>       0.80367152       0.55749675       0.65567094 </v>
   <v>       0.04586250       0.20411950       0.75272599 </v>
   <v>       0.04586250       0.70411946       0.75272599 </v>
   <v>       0.54586251       0.20411950       0.75272599 </v>
   <v>       0.54586250       0.70411946       0.75272599 </v>
   <v>       0.20411900       0.45410100       0.75270499 </v>
   <v>       0.20411899       0.95410095       0.75270499 </v>
   <v>       0.70411898       0.45410100       0.75270499 </v>
   <v>       0.70411896       0.95410095       0.75270499 </v>
   <v>       0.45414002       0.29588849       0.75272697 </v>
   <v>       0.45414001       0.79588852       0.75272697 </v>
   <v>       0.95414002       0.29588849       0.75272697 </v>
[...]
   <v>       0.59069736       0.19595594       0.55434678 </v>
   <v>       0.54743084       0.67065242       0.56213343 </v>
   <v>       0.34330738       0.04819973       0.55778228 </v>
   <v>       0.29511368       0.60944953       0.55797018 </v>
   <v>       0.84740343       0.06274387       0.56290073 </v>
   <v>       0.03069464       0.17776452       0.58442420 </v>
   <v>       0.02563772       0.67362509       0.58214647 </v>
   <v>       0.56571889       0.25909984       0.57404231 </v>
   <v>       0.48943135       0.70007605       0.58266622 </v>
   <v>       0.24594276       0.43383901       0.58209042 </v>
   <v>       0.18667069       0.94682083       0.57979950 </v>
   <v>       0.68193110       0.97214135       0.58161139 </v>
   <v>       0.37487971       0.26363978       0.55716814 </v>
   <v>       0.47126659       0.87874274       0.55580563 </v>
   <v>       0.98917569       0.35012612       0.55674429 </v>
   <v>       0.96549504       0.84824071       0.55907392 </v>
   <v>       0.18574066       0.41613935       0.56122859 </v>
   <v>       0.13234024       0.97509774       0.55856167 </v>
   <v>       0.68663702       0.90920665       0.56039596 </v>
   <v>       0.46646830       0.19458357       0.54061149 </v>
   <v>       0.54261589       0.77923031       0.54315270 </v>
   <v>       0.03242755       0.23787678       0.54065782 </v>
   <v>       0.01881913       0.75172292       0.53977654 </v>
   <v>       0.21308322       0.52526470       0.54348175 </v>
   <v>       0.22569091       0.04131010       0.54229884 </v>
   <v>       0.79249711       0.96139552       0.54638876 </v>
   <v>       0.45838459       0.31067235       0.67481240 </v>
   <v>       0.43354695       0.81503170       0.67219493 </v>
   <v>       0.96855650       0.28139148       0.68108190 </v>
   <v>       0.93106600       0.79129311       0.67510268 </v>
   <v>       0.29810654       0.05304092       0.67502851 </v>
   <v>       0.30239404       0.54653463       0.67591675 </v>
   <v>       0.79569926       0.05614897       0.67477516 </v>
   <v>       0.80316047       0.58148164       0.67075501 </v>
   <v>       0.08239906       0.16633593       0.64563463 </v>
   <v>       0.09741467       0.69266705       0.65582972 </v>
   <v>       0.57189729       0.16242540       0.65187178 </v>
   <v>       0.57431684       0.67926457       0.65708888 </v>
   <v>       0.17807194       0.41380250       0.64897477 </v>
   <v>       0.17634520       0.91456556       0.65050407 </v>
   <v>       0.69210598       0.41811689       0.65956625 </v>
   <v>       0.67083034       0.92297839       0.64938184 </v>
   <v>       0.06666947       0.17934462       0.67271243 </v>
   <v>       0.04258730       0.69737592       0.67846682 </v>
   <v>       0.56832808       0.21707739       0.67469116 </v>
   <v>       0.53338731       0.71778107       0.67956616 </v>
   <v>       0.20974098       0.43776373       0.67439227 </v>
   <v>       0.20060973       0.94823813       0.67552464 </v>
   <v>       0.70856517       0.48192846       0.67997719 </v>
   <v>       0.69150734       0.95898518       0.67442921 </v>
   <v>       0.40092181       0.30754382       0.65260160 </v>
   <v>       0.41709815       0.83161878       0.64521181 </v>
   <v>       0.93101582       0.32371011       0.65864669 </v>
   <v>       0.92721080       0.83626535       0.65058355 </v>
   <v>       0.32915287       0.07922730       0.64983884 </v>
   <v>       0.32304820       0.58586670       0.65121497 </v>
   <v>       0.83596763       0.07521871       0.65005012 </v>
   <v>       0.83610763       0.57863447       0.64456337 </v>
   <v>       0.99608045       0.25886355       0.63489719 </v>
   <v>       0.03067456       0.78281216       0.63688917 </v>
   <v>       0.46879331       0.21304937       0.63624078 </v>
   <v>       0.50686412       0.74580187       0.63380102 </v>
   <v>       0.25449561       0.99328184       0.63234626 </v>
   <v>       0.24564605       0.50447640       0.63235750 </v>
   <v>       0.76246063       0.99367033       0.63212668 </v>
   <v>       0.76972274       0.47427553       0.63582462 </v>
   <v>       0.44874502       0.30128397       0.76888902 </v>
   <v>       0.44874501       0.80128391       0.76888902 </v>
   <v>       0.94874497       0.30128397       0.76888902 </v>
   <v>       0.94874501       0.80128391       0.76888902 </v>
   <v>       0.30127600       0.05129450       0.76887296 </v>
   <v>       0.30127601       0.55129450       0.76887296 </v>
   <v>       0.80127594       0.05129450       0.76887296 </v>
   <v>       0.80127598       0.55129450       0.76887296 </v>
   <v>       0.07877100       0.17118050       0.74344197 </v>
   <v>       0.07877101       0.67118045       0.74344197 </v>
   <v>       0.57877100       0.17118050       0.74344197 </v>
   <v>       0.57877099       0.67118045       0.74344197 </v>
   <v>       0.17119950       0.42117448       0.74342103 </v>
   <v>       0.17119950       0.92117451       0.74342103 </v>
   <v>       0.67119951       0.42117448       0.74342103 </v>
   <v>       0.67119950       0.92117451       0.74342103 </v>
   <v>       0.05125600       0.19871499       0.76888902 </v>
   <v>       0.05125600       0.69871493       0.76888902 </v>
   <v>       0.55125603       0.19871499       0.76888902 </v>
   <v>       0.55125602       0.69871493       0.76888902 </v>
   <v>       0.19872349       0.44870397       0.76887205 </v>
   <v>       0.19872349       0.94870397       0.76887205 </v>
   <v>       0.69872352       0.44870397       0.76887205 </v>
   <v>       0.69872351       0.94870397       0.76887205 </v>
   <v>       0.42123152       0.32881747       0.74344197 </v>
   <v>       0.42123151       0.82881744       0.74344197 </v>
   <v>       0.92123147       0.32881747       0.74344197 </v>
   <v>       0.92123151       0.82881744       0.74344197 </v>
   <v>       0.32880050       0.07882500       0.74342103 </v>
   <v>       0.32880049       0.57882496       0.74342103 </v>
   <v>       0.82880048       0.07882500       0.74342103 </v>
   <v>       0.82880052       0.57882496       0.74342103 </v>
   <v>       0.00000350       0.25000148       0.72582199 </v>
   <v>       0.00000350       0.75000145       0.72582199 </v>
   <v>       0.50000351       0.25000148       0.72582199 </v>
   <v>       0.50000350       0.75000145       0.72582199 </v>
   <v>       0.25000050       0.00000000       0.72580398 </v>
   <v>       0.25000052       0.50000000       0.72580398 </v>
   <v>       0.75000050       0.00000000       0.72580398 </v>
   <v>       0.75000049       0.50000000       0.72580398 </v>
   <v>       0.77629969       0.55787906       0.52394940 </v>
   <v>       0.72597645       0.47746261       0.52794007 </v>
   <v>       0.86880219       0.50428200       0.54571999 </v>
   <v>       0.85107632       0.48205221       0.57238927 </v>
   <v>       0.73906874       0.63885738       0.56331293 </v>
   <v>       0.79922954       0.59205042       0.58148770 </v>
   <v>       0.65906720       0.53920884       0.57115397 </v>
   <v>       0.67415968       0.45143493       0.56128585 </v>
   <v>       0.61428742       0.54718784       0.53876065 </v>
   <v>       0.66885018       0.62826262       0.54088632 </v>
   <v>       0.61319859       0.65042852       0.50857126 </v>
   <v>       0.69223715       0.60524045       0.49876550 </v>
   <v>       0.83046820       0.38816699       0.53234299 </v>
   <v>       0.75717247       0.37528985       0.55097214 </v>
   <v>       0.84878649       0.35931099       0.55922123 </v>
   <v>       0.85852057       0.69146374       0.55911726 </v>
   <v>       0.84909289       0.63359403       0.53605699 </v>
   <v>       0.90631474       0.60360937       0.55827591 </v>
   <v>       0.75828139       0.51155953       0.59986510 </v>
   <v>       0.75512168       0.41851123       0.59161931 </v>
   <v>       0.67466583       0.46275940       0.60126876 </v>
   <v>       0.54076942       0.53596585       0.50697695 </v>
   <v>       0.57708686       0.55613499       0.48168124 </v>
   <v>       0.70706967       0.49183684       0.47397829 </v>
   <v>       0.54956468       0.41723366       0.52099630 </v>
   <v>       0.77388515       0.37350782       0.47645879 </v>
   <v>       0.61858928       0.29592777       0.52371773 </v>
   <v>       0.73055563       0.27485428       0.50153110 </v>
   <v>       0.02017399       0.24186749       0.55770603 </v>
   <v>       0.00963718       0.74457015       0.55731826 </v>
   <v>       0.48333856       0.22870336       0.55429538 </v>
   <v>       0.51031207       0.77327890       0.55787879 </v>
   <v>       0.23935296       0.51207072       0.55849360 </v>
   <v>       0.23660970       0.01284925       0.55713719 </v>
   <v>       0.76855372       0.98548857       0.56057605 </v>
   <v>       0.00576655       0.24583503       0.65215241 </v>
   <v>       0.01285005       0.76446343       0.65307465 </v>
   <v>       0.48692570       0.23407553       0.65196103 </v>
   <v>       0.49636304       0.75516897       0.65116271 </v>
   <v>       0.25182944       0.50065923       0.64998315 </v>
   <v>       0.25209109       0.99608911       0.64992394 </v>
   <v>       0.76351257       0.49775684       0.65189278 </v>
   <v>       0.75252630       0.99822171       0.64949838 </v>
   <v>       0.49998898       0.24999498       0.74327702 </v>
   <v>       0.49998903       0.74999496       0.74327702 </v>
   <v>       0.99998898       0.24999498       0.74327702 </v>
   <v>       0.99998903       0.74999496       0.74327702 </v>
   <v>       0.25000050       0.00000100       0.74325596 </v>
   <v>       0.25000052       0.50000100       0.74325596 </v>
   <v>       0.75000050       0.00000100       0.74325596 </v>
   <v>       0.75000049       0.50000100       0.74325596 </v>
   <v>       0.62521003       0.46278628       0.49730387 </v>
   <v>       0.68750143       0.44982265       0.48451830 </v>
   <v>       0.59943454       0.40744610       0.51113544 </v>
   <v>       0.72565331       0.38116444       0.48589552 </v>
   <v>       0.63760800       0.33873472       0.51258788 </v>
   <v>       0.70081771       0.32616837       0.50017228 </v>
   <v>       0.73284105       0.53305405       0.53382485 </v>
   <v>       0.82854216       0.47688501       0.55617215 </v>
   <v>       0.78745448       0.60106172       0.56453058 </v>
   <v>       0.70114880       0.49646409       0.56990073 </v>
   <v>       0.66140144       0.57822624       0.53184991 </v>
   <v>       0.64276908       0.59742982       0.50854489 </v>
   <v>       0.81512404       0.39642746       0.54921947 </v>
   <v>       0.85511566       0.63337560       0.55366115 </v>
   <v>       0.72430716       0.47065520       0.59172004 </v>
   <v>       0.59175171       0.53962705       0.49796465 </v>
   <v>       0.03615777       0.18191323       0.56881610 </v>
   <v>       0.03258168       0.68361299       0.56641444 </v>
   <v>       0.55064066       0.22664082       0.56159957 </v>
   <v>       0.51744040       0.71164118       0.56876452 </v>
   <v>       0.42899028       0.26992828       0.56275349 </v>
   <v>       0.46859344       0.82978459       0.56412840 </v>
   <v>       0.99123381       0.30222424       0.56550862 </v>
   <v>       0.97710183       0.79993894       0.56686546 </v>
   <v>       0.22325297       0.44973986       0.56747074 </v>
   <v>       0.18267824       0.97560921       0.56536418 </v>
   <v>       0.70637704       0.95474999       0.56754467 </v>
   <v>       0.30371169       0.02113475       0.56531595 </v>
   <v>       0.28532037       0.56305888       0.56588546 </v>
   <v>       0.80437592       0.03865291       0.56973786 </v>
   <v>       0.05275776       0.19582136       0.65715695 </v>
   <v>       0.05130104       0.71665310       0.66298759 </v>
   <v>       0.54486805       0.20408547       0.66004559 </v>
   <v>       0.53805143       0.71421475       0.66367101 </v>
   <v>       0.21075286       0.44767595       0.65873533 </v>
   <v>       0.20766619       0.95126207       0.65963090 </v>
   <v>       0.71781219       0.46356578       0.66480558 </v>
   <v>       0.70262392       0.95843174       0.65876769 </v>
   <v>       0.44667487       0.28852786       0.66071131 </v>
   <v>       0.44612766       0.80367095       0.65692943 </v>
   <v>       0.96512597       0.28673118       0.66535500 </v>
   <v>       0.95327349       0.79816135       0.65995683 </v>
   <v>       0.29627708       0.04623205       0.65932688 </v>
   <v>       0.29406141       0.54643479       0.66008533 </v>
   <v>       0.79779697       0.04679957       0.65917322 </v>
   <v>       0.80367152       0.55749675       0.65567094 </v>
   <v>       0.04586250       0.20411950       0.75272599 </v>
   <v>       0.04586250       0.70411946       0.75272599 </v>
   <v>       0.54586251       0.20411950       0.75272599 </v>
   <v>       0.54586250       0.70411946       0.75272599 </v>
   <v>       0.20411900       0.45410100       0.75270499 </v>
   <v>       0.20411899       0.95410095       0.75270499 </v>
   <v>       0.70411898       0.45410100       0.75270499 </v>
   <v>       0.70411896       0.95410095       0.75270499 </v>
   <v>       0.45414002       0.29588849       0.75272697 </v>
   <v>       0.45414001       0.79588852       0.75272697 </v>
   <v>       0.95414002       0.29588849       0.75272697 </v>
   <v>       0.95414006       0.79588852       0.75272697 </v>
   <v>       0.29588249       0.04590050       0.75270499 </v>
   <v>       0.29588248       0.54590053       0.75270499 </v>
   <v>       0.79588244       0.04590050       0.75270499 </v>
   <v>       0.79588248       0.54590053       0.75270499 </v>
   <v>       0.76192451       0.52568054       0.55610464 </v>
   <v>       0.49350578       0.01856251       0.55163090 </v>
   <v>       0.47056306       0.51411251       0.55809118 </v>
   <v>       0.99591373       0.99482601       0.55085230 </v>
   <v>       0.03504156       0.49174487       0.55218173 </v>
   <v>       0.23407640       0.24030478       0.55204328 </v>
   <v>       0.25622808       0.75377643       0.55282413 </v>
   <v>       0.74831617       0.21305386       0.55576991 </v>
   <v>       0.72050491       0.78464921       0.54704948 </v>
   <v>       0.00081482       0.99607641       0.65417399 </v>
   <v>       0.01324648       0.50078637       0.65493147 </v>
   <v>       0.49378697       0.99921894       0.65371870 </v>
   <v>       0.50694850       0.48753436       0.65643061 </v>
   <v>       0.25335361       0.24656134       0.65406533 </v>
   <v>       0.24975115       0.75157593       0.65459022 </v>
   <v>       0.74093594       0.25637754       0.65538414 </v>
   <v>       0.75311167       0.75706631       0.65374447 </v>
   <v>       0.14417413       0.10553728       0.61062836 </v>
   <v>       0.14632557       0.60760309       0.60759369 </v>
   <v>       0.65024337       0.10416689       0.60898283 </v>
   <v>       0.61793572       0.63501180       0.61454638 </v>
   <v>       0.35063770       0.39118935       0.60743314 </v>
   <v>       0.35891142       0.89231212       0.60720726 </v>
   <v>       0.89089387       0.36311992       0.61442233 </v>
   <v>       0.86215524       0.89113346       0.60717973 </v>
   <v>       0.11395560       0.35638481       0.61070082 </v>
   <v>       0.10965280       0.86088787       0.60657988 </v>
   <v>       0.57772811       0.32851808       0.60846228 </v>
   <v>       0.61206829       0.86317824       0.61006739 </v>
   <v>       0.38298068       0.13172127       0.60856465 </v>
   <v>       0.38646334       0.63796108       0.61257589 </v>
   <v>       0.88879754       0.14159524       0.61208794 </v>
   <v>       0.91507303       0.65237274       0.61516259 </v>
   <v>       0.00000000       0.00000000       0.75492797 </v>
   <v>       0.00000000       0.50000000       0.75492797 </v>
   <v>       0.50000000       0.00000000       0.75492797 </v>
   <v>       0.49999999       0.50000000       0.75492797 </v>
   <v>       0.25000050       0.25000000       0.75493902 </v>
   <v>       0.25000051       0.74999997       0.75493902 </v>
   <v>       0.75000047       0.25000000       0.75493902 </v>
   <v>       0.75000046       0.74999997       0.75493902 </v>
   <v>       0.13579050       0.11421000       0.70478299 </v>
   <v>       0.13579050       0.61420998       0.70478299 </v>
   <v>       0.63579045       0.11421000       0.70478299 </v>
   <v>       0.63579049       0.61420998       0.70478299 </v>
   <v>       0.36420952       0.38578999       0.70478299 </v>
   <v>       0.36420950       0.88578996       0.70478299 </v>
   <v>       0.86420954       0.38578999       0.70478299 </v>
   <v>       0.86420953       0.88578996       0.70478299 </v>
   <v>       0.11421799       0.36421899       0.70478098 </v>
   <v>       0.11421799       0.86421899       0.70478098 </v>
   <v>       0.61421800       0.36421899       0.70478098 </v>
   <v>       0.61421799       0.86421899       0.70478098 </v>
   <v>       0.38578201       0.13578149       0.70478202 </v>
   <v>       0.38578200       0.63578149       0.70478202 </v>
   <v>       0.88578199       0.13578149       0.70478202 </v>
   <v>       0.88578203       0.63578149       0.70478202 </v>
   <v>       0.13466700       0.11533200       0.80125603 </v>
   <v>       0.13466699       0.61533199       0.80125603 </v>
   <v>       0.63466699       0.11533200       0.80125603 </v>
   <v>       0.63466698       0.61533199       0.80125603 </v>
   <v>       0.36533300       0.38466799       0.80125603 </v>
   <v>       0.36533299       0.88466796       0.80125603 </v>
   <v>       0.86533295       0.38466799       0.80125603 </v>
   <v>       0.86533294       0.88466796       0.80125603 </v>
   <v>       0.11532850       0.36533700       0.80126500 </v>
   <v>       0.11532850       0.86533698       0.80126500 </v>
   <v>       0.61532850       0.36533700       0.80126500 </v>
   <v>       0.61532849       0.86533698       0.80126500 </v>
   <v>       0.38467151       0.13466300       0.80126500 </v>
   <v>       0.38467150       0.63466297       0.80126500 </v>
   <v>       0.88467149       0.13466300       0.80126500 </v>
   <v>       0.88467153       0.63466297       0.80126500 </v>
   <v>       0.99636783       0.00057517       0.60449585 </v>
   <v>       0.00672603       0.50029282       0.60535716 </v>
   <v>       0.50029027       0.00563785       0.60271222 </v>
   <v>       0.49605483       0.49652433       0.60564793 </v>
   <v>       0.24424153       0.24756671       0.60274904 </v>
   <v>       0.24816388       0.74741447       0.60212739 </v>
   <v>       0.74696440       0.25031166       0.60392206 </v>
   <v>       0.74564159       0.75566448       0.60333399 </v>
   <v>       0.00000050       0.00000050       0.70482896 </v>
   <v>       0.00000050       0.50000048       0.70482896 </v>
   <v>       0.50000048       0.00000050       0.70482896 </v>
   <v>       0.50000046       0.50000048       0.70482896 </v>
   <v>       0.24999999       0.24999947       0.70482499 </v>
   <v>       0.25000001       0.74999950       0.70482499 </v>
   <v>       0.74999999       0.24999947       0.70482499 </v>
   <v>       0.74999998       0.74999950       0.70482499 </v>
   <v>       0.00000000       0.00000000       0.80731797 </v>
   <v>       0.00000000       0.50000000       0.80731797 </v>
   <v>       0.50000000       0.00000000       0.80731797 </v>
   <v>       0.49999999       0.50000000       0.80731797 </v>
   <v>       0.24999999       0.25000000       0.80731797 </v>
   <v>       0.25000001       0.74999997       0.80731797 </v>
   <v>       0.74999999       0.25000000       0.80731797 </v>
   <v>       0.74999998       0.74999997       0.80731797 </v>
  </varray>
 </structure>
</modeling>
