<?xml version="1.0" encoding="ISO-8859-1"?>
<modeling>
 <generator>
  <i name="program" type="string">vasp </i>
  <i name="version" type="string">6.2.1  </i>
  <i name="subversion" type="string">16May21 (build Nov 15 2021 14:57:28) complex                          parallel </i>
  <i name="platform" type="string">LinuxPGI </i>
  <i name="date" type="string">2023 07 25 </i>
  <i name="time" type="string">00:59:09 </i>
 </generator>
 <incar>
  <i type="string" name="SYSTEM">PSC</i>
  <i type="int" name="ISTART">     1</i>
  <i type="string" name="PREC">Normal</i>
  <i name="BMIX">      0.01000000</i>
  <i name="AMIN">      0.01000000</i>
  <i type="int" name="ICHARG">     1</i>
  <i type="int" name="NELM">   600</i>
  <i type="int" name="ISYM">     0</i>
  <i name="ENCUT">    500.00000000</i>
  <i type="string" name="LREAL">Auto</i>
  <i type="int" name="ISMEAR">     0</i>
  <i name="SIGMA">      0.05000000</i>
  <i type="logical" name="LWAVE"> F  </i>
  <i type="logical" name="LVTOT"> T  </i>
  <i type="logical" name="GGA_COMPAT"> F  </i>
  <i type="logical" name="LDIPOL"> T  </i>
  <i type="int" name="IDIPOL">     3</i>
  <i type="int" name="IVDW">    12</i>
 </incar>
 <primitive_cell>
  <structure name="primitive_cell" >
   <crystal>
    <varray name="basis" >
     <v>      18.06080055       0.00000000       0.00000000 </v>
     <v>      -0.00491865      18.06279945       0.00000000 </v>
     <v>       0.00000000       0.00000000      62.48749924 </v>
    </varray>
    <i name="volume">  20385.21054034 </i>
    <varray name="rec_basis" >
     <v>       0.05536853       0.00001508      -0.00000000 </v>
     <v>       0.00000000       0.05536240       0.00000000 </v>
     <v>       0.00000000      -0.00000000       0.01600320 </v>
    </varray>
   </crystal>
   <varray name="positions" >
    <v>       0.44311344       0.32773028       0.56882727 </v>
    <v>       0.41982362       0.82846443       0.56895956 </v>
    <v>       0.96390484       0.32174535       0.57826227 </v>
    <v>       0.94793058       0.81336609       0.57559553 </v>
    <v>       0.32529118       0.95337059       0.57278668 </v>
    <v>       0.34317182       0.56241597       0.56681320 </v>
    <v>       0.80171394       0.07994628       0.57424388 </v>
    <v>       0.01736844       0.13798693       0.56145751 </v>
    <v>       0.06448404       0.65235289       0.56778825 </v>
    <v>       0.55994933       0.17309134       0.55400174 </v>
    <v>       0.50867853       0.64973186       0.56269006 </v>
    <v>       0.36304705       0.02099631       0.55643802 </v>
    <v>       0.28561986       0.62981667       0.55549630 </v>
    <v>       0.87246805       0.02274579       0.56434383 </v>
    <v>       0.96952123       0.18560646       0.58093419 </v>
    <v>       0.99482514       0.68673513       0.58402911 </v>
    <v>       0.56105589       0.25708645       0.56813060 </v>
    <v>       0.43583318       0.69352892       0.57574309 </v>
    <v>       0.28642981       0.43794126       0.57342036 </v>
    <v>       0.19105142       0.93070106       0.57063330 </v>
    <v>       0.67353669       0.03103123       0.57127423 </v>
    <v>       0.36737337       0.28484844       0.55665290 </v>
    <v>       0.48668032       0.87234561       0.55364540 </v>
    <v>       0.01933737       0.36402865       0.55898247 </v>
    <v>       0.99522990       0.86188659       0.55586362 </v>
    <v>       0.19665718       0.42599544       0.56406424 </v>
    <v>       0.13807315       0.99039146       0.55510376 </v>
    <v>       0.66522404       0.94144070       0.56093257 </v>
    <v>       0.43532065       0.18402151       0.54531189 </v>
    <v>       0.55212895       0.76207740       0.54785091 </v>
    <v>       0.05665207       0.24852465       0.54461186 </v>
    <v>       0.07530372       0.76334882       0.54816830 </v>
    <v>       0.18681512       0.54523660       0.55179732 </v>
    <v>       0.24414088       0.05763482       0.54417848 </v>
    <v>       0.78943160       0.92901390       0.55478211 </v>
    <v>       0.48337815       0.33589431       0.66771308 </v>
    <v>       0.44193841       0.81376175       0.67356447 </v>
    <v>       0.96752574       0.28041134       0.67882901 </v>
    <v>       0.92404656       0.73014498       0.67297829 </v>
    <v>       0.31134053       0.05262568       0.67066258 </v>
    <v>       0.29951771       0.55072861       0.67546732 </v>
    <v>       0.79264150       0.06134593       0.67530200 </v>
    <v>       0.75880263       0.59618142       0.66342359 </v>
    <v>       0.08411543       0.16357405       0.64509424 </v>
    <v>       0.10920036       0.71852420       0.65103994 </v>
    <v>       0.58195798       0.17337790       0.64918233 </v>
    <v>       0.56487484       0.66944124       0.65188472 </v>
    <v>       0.18250236       0.41471703       0.64762441 </v>
    <v>       0.17193272       0.92183146       0.64976900 </v>
    <v>       0.71013028       0.40111893       0.66180479 </v>
    <v>       0.67783820       0.91826312       0.64998267 </v>
    <v>       0.06424674       0.17705376       0.67207705 </v>
    <v>       0.05366599       0.67777335       0.67025753 </v>
    <v>       0.59669709       0.25755519       0.66136025 </v>
    <v>       0.53019540       0.70036459       0.67642600 </v>
    <v>       0.20043798       0.44584291       0.67359707 </v>
    <v>       0.20662493       0.95257451       0.67418880 </v>
    <v>       0.67650603       0.48740379       0.67031901 </v>
    <v>       0.69120171       0.95857361       0.67491789 </v>
    <v>       0.39929604       0.29559710       0.65993912 </v>
    <v>       0.42800997       0.84439973       0.64759785 </v>
    <v>       0.93605076       0.32540370       0.65607245 </v>
    <v>       0.90257423       0.79971355       0.65478758 </v>
    <v>       0.33247594       0.07531538       0.64435813 </v>
    <v>       0.33319304       0.57825063       0.65061365 </v>
    <v>       0.83371565       0.07729940       0.65063752 </v>
    <v>       0.83799602       0.57952401       0.64822407 </v>
    <v>       0.00649161       0.25597358       0.63291767 </v>
    <v>       0.01797359       0.79915236       0.63921849 </v>
    <v>       0.45568900       0.19133596       0.64584964 </v>
    <v>       0.50355381       0.75705179       0.63209652 </v>
    <v>       0.24731256       0.99591927       0.62932711 </v>
    <v>       0.26217508       0.49482160       0.63136945 </v>
    <v>       0.76735458       0.98829788       0.63292554 </v>
    <v>       0.81391029       0.45261850       0.64563829 </v>
    <v>       0.44874502       0.30128397       0.76888902 </v>
    <v>       0.44874501       0.80128391       0.76888902 </v>
    <v>       0.94874497       0.30128397       0.76888902 </v>
    <v>       0.94874501       0.80128391       0.76888902 </v>
    <v>       0.30127600       0.05129450       0.76887296 </v>
    <v>       0.30127601       0.55129450       0.76887296 </v>
    <v>       0.80127594       0.05129450       0.76887296 </v>
    <v>       0.80127598       0.55129450       0.76887296 </v>
    <v>       0.07877100       0.17118050       0.74344197 </v>
    <v>       0.07877101       0.67118045       0.74344197 </v>
    <v>       0.57877100       0.17118050       0.74344197 </v>
    <v>       0.57877099       0.67118045       0.74344197 </v>
    <v>       0.17119950       0.42117448       0.74342103 </v>
    <v>       0.17119950       0.92117451       0.74342103 </v>
    <v>       0.67119951       0.42117448       0.74342103 </v>
    <v>       0.67119950       0.92117451       0.74342103 </v>
    <v>       0.05125600       0.19871499       0.76888902 </v>
    <v>       0.05125600       0.69871493       0.76888902 </v>
    <v>       0.55125603       0.19871499       0.76888902 </v>
    <v>       0.55125602       0.69871493       0.76888902 </v>
    <v>       0.19872349       0.44870397       0.76887205 </v>
    <v>       0.19872349       0.94870397       0.76887205 </v>
    <v>       0.69872352       0.44870397       0.76887205 </v>
    <v>       0.69872351       0.94870397       0.76887205 </v>
    <v>       0.42123152       0.32881747       0.74344197 </v>
    <v>       0.42123151       0.82881744       0.74344197 </v>
    <v>       0.92123147       0.32881747       0.74344197 </v>
    <v>       0.92123151       0.82881744       0.74344197 </v>
    <v>       0.32880050       0.07882500       0.74342103 </v>
    <v>       0.32880049       0.57882496       0.74342103 </v>
    <v>       0.82880048       0.07882500       0.74342103 </v>
    <v>       0.82880052       0.57882496       0.74342103 </v>
    <v>       0.00000350       0.25000148       0.72582199 </v>
    <v>       0.00000350       0.75000145       0.72582199 </v>
    <v>       0.50000351       0.25000148       0.72582199 </v>
    <v>       0.50000350       0.75000145       0.72582199 </v>
    <v>       0.25000050       0.00000000       0.72580398 </v>
    <v>       0.25000052       0.50000000       0.72580398 </v>
    <v>       0.75000050       0.00000000       0.72580398 </v>
    <v>       0.75000049       0.50000000       0.72580398 </v>
    <v>       0.77517966       0.55510311       0.52017472 </v>
    <v>       0.72123533       0.47613116       0.52543096 </v>
    <v>       0.87088641       0.50102596       0.54132647 </v>
    <v>       0.85627676       0.48178453       0.56838932 </v>
    <v>       0.74323745       0.64030836       0.55955595 </v>
    <v>       0.80723311       0.59857041       0.57752903 </v>
    <v>       0.66712132       0.54908534       0.56996166 </v>
    <v>       0.67684791       0.45765007       0.56078569 </v>
    <v>       0.61614538       0.55419383       0.53782425 </v>
    <v>       0.67135455       0.63545277       0.53562184 </v>
    <v>       0.60638129       0.64424813       0.50446104 </v>
    <v>       0.68667334       0.60077614       0.49494595 </v>
    <v>       0.79067875       0.39137659       0.53068683 </v>
    <v>       0.77781999       0.36952671       0.55784711 </v>
    <v>       0.86657974       0.36757953       0.54640738 </v>
    <v>       0.86404780       0.69483609       0.55570758 </v>
    <v>       0.84504089       0.64747956       0.53164772 </v>
    <v>       0.90788018       0.60834902       0.55070365 </v>
    <v>       0.75925091       0.52881113       0.59950327 </v>
    <v>       0.77617411       0.43704273       0.59033054 </v>
    <v>       0.68767426       0.46338680       0.59968275 </v>
    <v>       0.53445800       0.52965922       0.50344722 </v>
    <v>       0.57672819       0.54731149       0.47848074 </v>
    <v>       0.69553296       0.47600350       0.46813944 </v>
    <v>       0.56166689       0.41880049       0.52320572 </v>
    <v>       0.76120469       0.35524963       0.47134699 </v>
    <v>       0.62946479       0.29896607       0.52623587 </v>
    <v>       0.72932845       0.26739668       0.50089526 </v>
    <v>       0.02037336       0.25071784       0.55857119 </v>
    <v>       0.03313748       0.75764012       0.56046201 </v>
    <v>       0.46266877       0.22871571       0.55392799 </v>
    <v>       0.50067524       0.76117218       0.55712181 </v>
    <v>       0.23960800       0.52749541       0.55854952 </v>
    <v>       0.24983418       0.01022662       0.55478656 </v>
    <v>       0.76939457       0.98044617       0.56193216 </v>
    <v>       0.00990784       0.24464755       0.65014707 </v>
    <v>       0.00585855       0.76057013       0.65222133 </v>
    <v>       0.48916618       0.23360534       0.65356956 </v>
    <v>       0.49650960       0.75722096       0.64919735 </v>
    <v>       0.25787072       0.49627845       0.64881294 </v>
    <v>       0.25220523       0.99882156       0.64674392 </v>
    <v>       0.77530576       0.48862595       0.65429859 </v>
    <v>       0.75648005       0.99738324       0.64991551 </v>
    <v>       0.49998898       0.24999498       0.74327702 </v>
    <v>       0.49998903       0.74999496       0.74327702 </v>
    <v>       0.99998898       0.24999498       0.74327702 </v>
    <v>       0.99998903       0.74999496       0.74327702 </v>
    <v>       0.25000050       0.00000100       0.74325596 </v>
    <v>       0.25000052       0.50000100       0.74325596 </v>
    <v>       0.75000050       0.00000100       0.74325596 </v>
    <v>       0.75000049       0.50000100       0.74325596 </v>
    <v>       0.62402257       0.45634390       0.49577580 </v>
    <v>       0.67999476       0.43677156       0.48114396 </v>
    <v>       0.60507340       0.40500418       0.51171310 </v>
    <v>       0.71770677       0.36981193       0.48294514 </v>
    <v>       0.64275653       0.33786623       0.51344846 </v>
    <v>       0.69983238       0.32012103       0.49926475 </v>
    <v>       0.73162684       0.53325616       0.53049362 </v>
    <v>       0.83113949       0.47696389       0.55248917 </v>
    <v>       0.79182749       0.60466310       0.56061201 </v>
    <v>       0.70673913       0.50349172       0.56848748 </v>
    <v>       0.66142044       0.57972421       0.52852264 </v>
    <v>       0.63772695       0.59247375       0.50509343 </v>
    <v>       0.81409329       0.39785664       0.54669840 </v>
    <v>       0.85625196       0.63947833       0.54871082 </v>
    <v>       0.73529250       0.48240031       0.59041289 </v>
    <v>       0.58865913       0.53173702       0.49512772 </v>
    <v>       0.00310335       0.18837871       0.56766237 </v>
    <v>       0.03239237       0.69659383       0.57179643 </v>
    <v>       0.53382544       0.22108753       0.55790950 </v>
    <v>       0.47947224       0.69758537       0.56526052 </v>
    <v>       0.42309443       0.28566516       0.55940193 </v>
    <v>       0.46449667       0.82376850       0.55917263 </v>
    <v>       0.99826451       0.31586157       0.56520729 </v>
    <v>       0.98687766       0.81270353       0.56349295 </v>
    <v>       0.24345728       0.45761928       0.56438638 </v>
    <v>       0.18990743       0.97281281       0.55980630 </v>
    <v>       0.69781583       0.98727167       0.56389593 </v>
    <v>       0.31575796       0.99374718       0.56177923 </v>
    <v>       0.29353881       0.57523630       0.56024621 </v>
    <v>       0.81733907       0.03102349       0.56767696 </v>
    <v>       0.05534750       0.19126645       0.65654129 </v>
    <v>       0.05895078       0.71467562       0.65816838 </v>
    <v>       0.56051325       0.22051676       0.65500369 </v>
    <v>       0.53210626       0.70640824       0.66012666 </v>
    <v>       0.21143931       0.44948828       0.65747544 </v>
    <v>       0.20777259       0.95592741       0.65790069 </v>
    <v>       0.71592678       0.45791796       0.66233932 </v>
    <v>       0.70584291       0.95599915       0.65915937 </v>
    <v>       0.45577200       0.29293425       0.66037732 </v>
    <v>       0.45360934       0.80812264       0.65758514 </v>
    <v>       0.96885360       0.28534107       0.66257436 </v>
    <v>       0.94079035       0.76485207       0.66107760 </v>
    <v>       0.30134162       0.04447161       0.65462440 </v>
    <v>       0.29931484       0.54406116       0.65925839 </v>
    <v>       0.79610884       0.04833015       0.65933311 </v>
    <v>       0.79156008       0.55924219       0.65566361 </v>
    <v>       0.04586250       0.20411950       0.75272599 </v>
    <v>       0.04586250       0.70411946       0.75272599 </v>
    <v>       0.54586251       0.20411950       0.75272599 </v>
    <v>       0.54586250       0.70411946       0.75272599 </v>
    <v>       0.20411900       0.45410100       0.75270499 </v>
    <v>       0.20411899       0.95410095       0.75270499 </v>
    <v>       0.70411898       0.45410100       0.75270499 </v>
    <v>       0.70411896       0.95410095       0.75270499 </v>
    <v>       0.45414002       0.29588849       0.75272697 </v>
    <v>       0.45414001       0.79588852       0.75272697 </v>
    <v>       0.95414002       0.29588849       0.75272697 </v>
    <v>       0.95414006       0.79588852       0.75272697 </v>
    <v>       0.29588249       0.04590050       0.75270499 </v>
    <v>       0.29588248       0.54590053       0.75270499 </v>
    <v>       0.79588244       0.04590050       0.75270499 </v>
    <v>       0.79588248       0.54590053       0.75270499 </v>
    <v>       0.76573606       0.52930436       0.55279520 </v>
    <v>       0.50573813       0.01945633       0.55145246 </v>
    <v>       0.47601262       0.49986119       0.55511909 </v>
    <v>       0.00082110       0.00209148       0.54971908 </v>
    <v>       0.03995735       0.50455116       0.55302535 </v>
    <v>       0.23099850       0.24105639       0.55186960 </v>
    <v>       0.24973801       0.76806465       0.55351104 </v>
    <v>       0.73544368       0.20206985       0.55530235 </v>
    <v>       0.70518135       0.79230735       0.55268495 </v>
    <v>       0.00184429       0.98173744       0.65403963 </v>
    <v>       0.00492177       0.49635664       0.65525148 </v>
    <v>       0.50278520       0.01325579       0.65419909 </v>
    <v>       0.51501203       0.48774143       0.65496041 </v>
    <v>       0.26036554       0.24562149       0.65446782 </v>
    <v>       0.25140477       0.75513091       0.65471799 </v>
    <v>       0.75519111       0.26336429       0.65471616 </v>
    <v>       0.74498704       0.75392041       0.65409231 </v>
    <v>       0.13443280       0.10766585       0.60805808 </v>
    <v>       0.14826203       0.60641926       0.60995183 </v>
    <v>       0.64808819       0.10514391       0.61033094 </v>
    <v>       0.61729843       0.63245935       0.61219508 </v>
    <v>       0.36016195       0.38349147       0.60622874 </v>
    <v>       0.37194219       0.88268013       0.60762709 </v>
    <v>       0.89246759       0.36415943       0.61203019 </v>
    <v>       0.87226625       0.87067762       0.60711014 </v>
    <v>       0.12510308       0.36526396       0.61010982 </v>
    <v>       0.12502526       0.87105882       0.60703719 </v>
    <v>       0.58568887       0.33317185       0.60224161 </v>
    <v>       0.61718840       0.87331503       0.61146416 </v>
    <v>       0.38618279       0.13433254       0.60589407 </v>
    <v>       0.38388590       0.62840760       0.61157386 </v>
    <v>       0.88603834       0.13420008       0.61191182 </v>
    <v>       0.90407987       0.64037969       0.61283125 </v>
    <v>       0.00000000       0.00000000       0.75492797 </v>
    <v>       0.00000000       0.50000000       0.75492797 </v>
    <v>       0.50000000       0.00000000       0.75492797 </v>
    <v>       0.49999999       0.50000000       0.75492797 </v>
    <v>       0.25000050       0.25000000       0.75493902 </v>
    <v>       0.25000051       0.74999997       0.75493902 </v>
    <v>       0.75000047       0.25000000       0.75493902 </v>
    <v>       0.75000046       0.74999997       0.75493902 </v>
    <v>       0.13579050       0.11421000       0.70478299 </v>
    <v>       0.13579050       0.61420998       0.70478299 </v>
    <v>       0.63579045       0.11421000       0.70478299 </v>
    <v>       0.63579049       0.61420998       0.70478299 </v>
    <v>       0.36420952       0.38578999       0.70478299 </v>
    <v>       0.36420950       0.88578996       0.70478299 </v>
    <v>       0.86420954       0.38578999       0.70478299 </v>
    <v>       0.86420953       0.88578996       0.70478299 </v>
    <v>       0.11421799       0.36421899       0.70478098 </v>
    <v>       0.11421799       0.86421899       0.70478098 </v>
    <v>       0.61421800       0.36421899       0.70478098 </v>
    <v>       0.61421799       0.86421899       0.70478098 </v>
    <v>       0.38578201       0.13578149       0.70478202 </v>
    <v>       0.38578200       0.63578149       0.70478202 </v>
    <v>       0.88578199       0.13578149       0.70478202 </v>
    <v>       0.88578203       0.63578149       0.70478202 </v>
    <v>       0.13466700       0.11533200       0.80125603 </v>
    <v>       0.13466699       0.61533199       0.80125603 </v>
    <v>       0.63466699       0.11533200       0.80125603 </v>
    <v>       0.63466698       0.61533199       0.80125603 </v>
    <v>       0.36533300       0.38466799       0.80125603 </v>
    <v>       0.36533299       0.88466796       0.80125603 </v>
    <v>       0.86533295       0.38466799       0.80125603 </v>
    <v>       0.86533294       0.88466796       0.80125603 </v>
    <v>       0.11532850       0.36533700       0.80126500 </v>
    <v>       0.11532850       0.86533698       0.80126500 </v>
    <v>       0.61532850       0.36533700       0.80126500 </v>
    <v>       0.61532849       0.86533698       0.80126500 </v>
    <v>       0.38467151       0.13466300       0.80126500 </v>
    <v>       0.38467150       0.63466297       0.80126500 </v>
    <v>       0.88467149       0.13466300       0.80126500 </v>
    <v>       0.88467153       0.63466297       0.80126500 </v>
    <v>       0.99705434       0.99756085       0.60542065 </v>
    <v>       0.00917741       0.50107417       0.60547303 </v>
    <v>       0.50128580       0.00708976       0.60379026 </v>
    <v>       0.49803729       0.49265911       0.60478875 </v>
    <v>       0.24472686       0.24336618       0.60235827 </v>
    <v>       0.24842517       0.74554575       0.60404843 </v>
    <v>       0.74193297       0.24780673       0.60281729 </v>
    <v>       0.73459190       0.75715670       0.60206616 </v>
    <v>       0.00000050       0.00000050       0.70482896 </v>
    <v>       0.00000050       0.50000048       0.70482896 </v>
    <v>       0.50000048       0.00000050       0.70482896 </v>
    <v>       0.50000046       0.50000048       0.70482896 </v>
    <v>       0.24999999       0.24999947       0.70482499 </v>
    <v>       0.25000001       0.74999950       0.70482499 </v>
    <v>       0.74999999       0.24999947       0.70482499 </v>
    <v>       0.74999998       0.74999950       0.70482499 </v>
    <v>       0.00000000       0.00000000       0.80731797 </v>
    <v>       0.00000000       0.50000000       0.80731797 </v>
    <v>       0.50000000       0.00000000       0.80731797 </v>
    <v>       0.49999999       0.50000000       0.80731797 </v>
    <v>       0.24999999       0.25000000       0.80731797 </v>
    <v>       0.25000001       0.74999997       0.80731797 </v>
    <v>       0.74999999       0.25000000       0.80731797 </v>
    <v>       0.74999998       0.74999997       0.80731797 </v>
   </varray>
  </structure>
  <varray name="primitive_index" >
   <v type="int" >        1 </v>
   <v type="int" >        2 </v>
   <v type="int" >        3 </v>
   <v type="int" >        4 </v>
   <v type="int" >        5 </v>
   <v type="int" >        6 </v>
   <v type="int" >        7 </v>
   <v type="int" >        8 </v>
   <v type="int" >        9 </v>
   <v type="int" >       10 </v>
   <v type="int" >       11 </v>
   <v type="int" >       12 </v>
   <v type="int" >       13 </v>
   <v type="int" >       14 </v>
   <v type="int" >       15 </v>
   <v type="int" >       16 </v>
   <v type="int" >       17 </v>
   <v type="int" >       18 </v>
   <v type="int" >       19 </v>
   <v type="int" >       20 </v>
   <v type="int" >       21 </v>
   <v type="int" >       22 </v>
   <v type="int" >       23 </v>
   <v type="int" >       24 </v>
   <v type="int" >       25 </v>
   <v type="int" >       26 </v>
   <v type="int" >       27 </v>
   <v type="int" >       28 </v>
   <v type="int" >       29 </v>
   <v type="int" >       30 </v>
   <v type="int" >       31 </v>
   <v type="int" >       32 </v>
   <v type="int" >       33 </v>
   <v type="int" >       34 </v>
   <v type="int" >       35 </v>
   <v type="int" >       36 </v>
   <v type="int" >       37 </v>
   <v type="int" >       38 </v>
   <v type="int" >       39 </v>
   <v type="int" >       40 </v>
   <v type="int" >       41 </v>
   <v type="int" >       42 </v>
   <v type="int" >       43 </v>
   <v type="int" >       44 </v>
   <v type="int" >       45 </v>
   <v type="int" >       46 </v>
   <v type="int" >       47 </v>
   <v type="int" >       48 </v>
   <v type="int" >       49 </v>
   <v type="int" >       50 </v>
   <v type="int" >       51 </v>
   <v type="int" >       52 </v>
   <v type="int" >       53 </v>
   <v type="int" >       54 </v>
   <v type="int" >       55 </v>
   <v type="int" >       56 </v>
   <v type="int" >       57 </v>
   <v type="int" >       58 </v>
   <v type="int" >       59 </v>
   <v type="int" >       60 </v>
   <v type="int" >       61 </v>
   <v type="int" >       62 </v>
   <v type="int" >       63 </v>
   <v type="int" >       64 </v>
   <v type="int" >       65 </v>
   <v type="int" >       66 </v>
   <v type="int" >       67 </v>
   <v type="int" >       68 </v>
   <v type="int" >       69 </v>
   <v type="int" >       70 </v>
   <v type="int" >       71 </v>
   <v type="int" >       72 </v>
   <v type="int" >       73 </v>
   <v type="int" >       74 </v>
   <v type="int" >       75 </v>
   <v type="int" >       76 </v>
   <v type="int" >       77 </v>
   <v type="int" >       78 </v>
   <v type="int" >       79 </v>
   <v type="int" >       80 </v>
   <v type="int" >       81 </v>
   <v type="int" >       82 </v>
   <v type="int" >       83 </v>
   <v type="int" >       84 </v>
   <v type="int" >       85 </v>
   <v type="int" >       86 </v>
   <v type="int" >       87 </v>
   <v type="int" >       88 </v>
   <v type="int" >       89 </v>
   <v type="int" >       90 </v>
   <v type="int" >       91 </v>
   <v type="int" >       92 </v>
   <v type="int" >       93 </v>
   <v type="int" >       94 </v>
   <v type="int" >       95 </v>
   <v type="int" >       96 </v>
   <v type="int" >       97 </v>
   <v type="int" >       98 </v>
   <v type="int" >       99 </v>
   <v type="int" >      100 </v>
   <v type="int" >      101 </v>
   <v type="int" >      102 </v>
   <v type="int" >      103 </v>
   <v type="int" >      104 </v>
   <v type="int" >      105 </v>
   <v type="int" >      106 </v>
   <v type="int" >      107 </v>
   <v type="int" >      108 </v>
   <v type="int" >      109 </v>
   <v type="int" >      110 </v>
   <v type="int" >      111 </v>
   <v type="int" >      112 </v>
   <v type="int" >      113 </v>
   <v type="int" >      114 </v>
   <v type="int" >      115 </v>
   <v type="int" >      116 </v>
   <v type="int" >      117 </v>
   <v type="int" >      118 </v>
   <v type="int" >      119 </v>
   <v type="int" >      120 </v>
   <v type="int" >      121 </v>
   <v type="int" >      122 </v>
   <v type="int" >      123 </v>
   <v type="int" >      124 </v>
   <v type="int" >      125 </v>
   <v type="int" >      126 </v>
   <v type="int" >      127 </v>
   <v type="int" >      128 </v>
   <v type="int" >      129 </v>
   <v type="int" >      130 </v>
   <v type="int" >      131 </v>
   <v type="int" >      132 </v>
   <v type="int" >      133 </v>
   <v type="int" >      134 </v>
   <v type="int" >      135 </v>
   <v type="int" >      136 </v>
   <v type="int" >      137 </v>
   <v type="int" >      138 </v>
   <v type="int" >      139 </v>
   <v type="int" >      140 </v>
   <v type="int" >      141 </v>
   <v type="int" >      142 </v>
   <v type="int" >      143 </v>
   <v type="int" >      144 </v>
   <v type="int" >      145 </v>
   <v type="int" >      146 </v>
   <v type="int" >      147 </v>
   <v type="int" >      148 </v>
   <v type="int" >      149 </v>
   <v type="int" >      150 </v>
   <v type="int" >      151 </v>
   <v type="int" >      152 </v>
   <v type="int" >      153 </v>
   <v type="int" >      154 </v>
   <v type="int" >      155 </v>
   <v type="int" >      156 </v>
   <v type="int" >      157 </v>
   <v type="int" >      158 </v>
   <v type="int" >      159 </v>
   <v type="int" >      160 </v>
   <v type="int" >      161 </v>
   <v type="int" >      162 </v>
   <v type="int" >      163 </v>
   <v type="int" >      164 </v>
   <v type="int" >      165 </v>
   <v type="int" >      166 </v>
   <v type="int" >      167 </v>
   <v type="int" >      168 </v>
   <v type="int" >      169 </v>
   <v type="int" >      170 </v>
   <v type="int" >      171 </v>
   <v type="int" >      172 </v>
   <v type="int" >      173 </v>
   <v type="int" >      174 </v>
   <v type="int" >      175 </v>
   <v type="int" >      176 </v>
   <v type="int" >      177 </v>
   <v type="int" >      178 </v>
   <v type="int" >      179 </v>
   <v type="int" >      180 </v>
   <v type="int" >      181 </v>
   <v type="int" >      182 </v>
   <v type="int" >      183 </v>
   <v type="int" >      184 </v>
   <v type="int" >      185 </v>
   <v type="int" >      186 </v>
   <v type="int" >      187 </v>
   <v type="int" >      188 </v>
   <v type="int" >      189 </v>
   <v type="int" >      190 </v>
   <v type="int" >      191 </v>
   <v type="int" >      192 </v>
   <v type="int" >      193 </v>
   <v type="int" >      194 </v>
   <v type="int" >      195 </v>
   <v type="int" >      196 </v>
   <v type="int" >      197 </v>
   <v type="int" >      198 </v>
   <v type="int" >      199 </v>
   <v type="int" >      200 </v>
   <v type="int" >      201 </v>
   <v type="int" >      202 </v>
   <v type="int" >      203 </v>
   <v type="int" >      204 </v>
   <v type="int" >      205 </v>
   <v type="int" >      206 </v>
   <v type="int" >      207 </v>
   <v type="int" >      208 </v>
   <v type="int" >      209 </v>
   <v type="int" >      210 </v>
   <v type="int" >      211 </v>
   <v type="int" >      212 </v>
   <v type="int" >      213 </v>
   <v type="int" >      214 </v>
   <v type="int" >      215 </v>
   <v type="int" >      216 </v>
   <v type="int" >      217 </v>
   <v type="int" >      218 </v>
   <v type="int" >      219 </v>
   <v type="int" >      220 </v>
   <v type="int" >      221 </v>
   <v type="int" >      222 </v>
   <v type="int" >      223 </v>
   <v type="int" >      224 </v>
   <v type="int" >      225 </v>
   <v type="int" >      226 </v>
   <v type="int" >      227 </v>
   <v type="int" >      228 </v>
   <v type="int" >      229 </v>
   <v type="int" >      230 </v>
   <v type="int" >      231 </v>
   <v type="int" >      232 </v>
   <v type="int" >      233 </v>
   <v type="int" >      234 </v>
   <v type="int" >      235 </v>
   <v type="int" >      236 </v>
   <v type="int" >      237 </v>
   <v type="int" >      238 </v>
   <v type="int" >      239 </v>
   <v type="int" >      240 </v>
   <v type="int" >      241 </v>
   <v type="int" >      242 </v>
   <v type="int" >      243 </v>
   <v type="int" >      244 </v>
   <v type="int" >      245 </v>
   <v type="int" >      246 </v>
   <v type="int" >      247 </v>
   <v type="int" >      248 </v>
   <v type="int" >      249 </v>
   <v type="int" >      250 </v>
   <v type="int" >      251 </v>
   <v type="int" >      252 </v>
   <v type="int" >      253 </v>
   <v type="int" >      254 </v>
   <v type="int" >      255 </v>
   <v type="int" >      256 </v>
   <v type="int" >      257 </v>
   <v type="int" >      258 </v>
   <v type="int" >      259 </v>
   <v type="int" >      260 </v>
   <v type="int" >      261 </v>
   <v type="int" >      262 </v>
   <v type="int" >      263 </v>
   <v type="int" >      264 </v>
   <v type="int" >      265 </v>
   <v type="int" >      266 </v>
   <v type="int" >      267 </v>
   <v type="int" >      268 </v>
   <v type="int" >      269 </v>
   <v type="int" >      270 </v>
   <v type="int" >      271 </v>
   <v type="int" >      272 </v>
   <v type="int" >      273 </v>
   <v type="int" >      274 </v>
   <v type="int" >      275 </v>
   <v type="int" >      276 </v>
   <v type="int" >      277 </v>
   <v type="int" >      278 </v>
   <v type="int" >      279 </v>
   <v type="int" >      280 </v>
   <v type="int" >      281 </v>
   <v type="int" >      282 </v>
   <v type="int" >      283 </v>
   <v type="int" >      284 </v>
   <v type="int" >      285 </v>
   <v type="int" >      286 </v>
   <v type="int" >      287 </v>
   <v type="int" >      288 </v>
   <v type="int" >      289 </v>
   <v type="int" >      290 </v>
   <v type="int" >      291 </v>
   <v type="int" >      292 </v>
   <v type="int" >      293 </v>
   <v type="int" >      294 </v>
   <v type="int" >      295 </v>
   <v type="int" >      296 </v>
   <v type="int" >      297 </v>
   <v type="int" >      298 </v>
   <v type="int" >      299 </v>
   <v type="int" >      300 </v>
   <v type="int" >      301 </v>
   <v type="int" >      302 </v>
   <v type="int" >      303 </v>
   <v type="int" >      304 </v>
   <v type="int" >      305 </v>
   <v type="int" >      306 </v>
   <v type="int" >      307 </v>
   <v type="int" >      308 </v>
   <v type="int" >      309 </v>
   <v type="int" >      310 </v>
   <v type="int" >      311 </v>
   <v type="int" >      312 </v>
   <v type="int" >      313 </v>
   <v type="int" >      314 </v>
   <v type="int" >      315 </v>
   <v type="int" >      316 </v>
   <v type="int" >      317 </v>
   <v type="int" >      318 </v>
   <v type="int" >      319 </v>
   <v type="int" >      320 </v>
   <v type="int" >      321 </v>
   <v type="int" >      322 </v>
   <v type="int" >      323 </v>
   <v type="int" >      324 </v>
   <v type="int" >      325 </v>
  </varray>
 </primitive_cell>
 <kpoints>
  <generation param="Gamma">
   <v type="int" name="divisions">       3        3        1 </v>
   <v name="usershift">      0.00000000       0.00000000       0.00000000 </v>
   <v name="genvec1">      0.33333333       0.00000000       0.00000000 </v>
   <v name="genvec2">      0.00000000       0.33333333       0.00000000 </v>
   <v name="genvec3">      0.00000000       0.00000000       1.00000000 </v>
   <v name="shift">      0.00000000       0.00000000       0.00000000 </v>
  </generation>
  <varray name="kpointlist" >
   <v>       0.00000000       0.00000000       0.00000000 </v>
   <v>       0.33333333       0.00000000       0.00000000 </v>
   <v>       0.00000000       0.33333333       0.00000000 </v>
   <v>       0.33333333       0.33333333       0.00000000 </v>
   <v>      -0.33333333       0.33333333       0.00000000 </v>
  </varray>
  <varray name="weights" >
   <v>       0.11111111 </v>
   <v>       0.22222222 </v>
   <v>       0.22222222 </v>
   <v>       0.22222222 </v>
   <v>       0.22222222 </v>
  </varray>
 </kpoints>
 <parameters>
  <separator name="general" >
   <i type="string" name="SYSTEM">PSC</i>
   <i type="logical" name="LCOMPAT"> F  </i>
  </separator>
  <separator name="electronic" >
   <i type="string" name="PREC">normal</i>
   <i name="ENMAX">    500.00000000</i>
   <i name="ENAUG">    644.87300000</i>
   <i name="EDIFF">      0.00010000</i>
   <i type="int" name="IALGO">    38</i>
   <i type="int" name="IWAVPR">    10</i>
   <i type="int" name="NBANDS">   732</i>
   <i type="int" name="NBANDSLOW">    -1</i>
   <i type="int" name="NBANDSHIGH">    -1</i>
   <i name="NELECT">   1134.00000000</i>
   <i type="int" name="TURBO">     0</i>
   <i type="int" name="IRESTART">     0</i>
   <i type="int" name="NREBOOT">     0</i>
   <i type="int" name="NMIN">     0</i>
   <i name="EREF">      0.00000000</i>
   <separator name="electronic smearing" >
    <i type="int" name="ISMEAR">     0</i>
    <i name="SIGMA">      0.05000000</i>
    <i name="KSPACING">      0.50000000</i>
    <i type="logical" name="KGAMMA"> T  </i>
    <i type="logical" name="KBLOWUP"> T  </i>
   </separator>
   <separator name="electronic projectors" >
    <i type="logical" name="LREAL"> T  </i>
    <v name="ROPT">     -0.00050000     -0.00050000     -0.00050000     -0.00050000     -0.00050000</v>
    <i type="int" name="LMAXPAW">  -100</i>
    <i type="int" name="LMAXMIX">     2</i>
    <i type="logical" name="NLSPLINE"> F  </i>
   </separator>
   <separator name="electronic startup" >
    <i type="int" name="ISTART">     0</i>
    <i type="int" name="ICHARG">     1</i>
    <i type="int" name="INIWAV">     1</i>
   </separator>
   <separator name="electronic spin" >
    <i type="int" name="ISPIN">     1</i>
    <i type="logical" name="LNONCOLLINEAR"> F  </i>
    <v name="MAGMOM">      1.00000000      1.00000000      1.00000000      1.00000000      1.00000000      1.00000000      1.00000000      1.00000000      1.00000000      1.00000000      1.00000000      1.00000000      1.00000000      1.00000000      1.00000000      1.00000000      1.00000000      1.00000000      1.00000000      1.00000000
      1.00000000      1.00000000      1.00000000      1.00000000      1.00000000      1.00000000      1.00000000      1.00000000      1.00000000      1.00000000      1.00000000      1.00000000      1.00000000      1.00000000      1.00000000      1.00000000      1.00000000      1.00000000      1.00000000      1.00000000
      1.00000000      1.00000000      1.00000000      1.00000000      1.00000000      1.00000000      1.00000000      1.00000000      1.00000000      1.00000000      1.00000000      1.00000000      1.00000000      1.00000000      1.00000000      1.00000000      1.00000000      1.00000000      1.00000000      1.00000000
      1.00000000      1.00000000      1.00000000      1.00000000      1.00000000      1.00000000      1.00000000      1.00000000      1.00000000      1.00000000      1.00000000      1.00000000      1.00000000      1.00000000      1.00000000      1.00000000      1.00000000      1.00000000      1.00000000      1.00000000
      1.00000000      1.00000000      1.00000000      1.00000000      1.00000000      1.00000000      1.00000000      1.00000000      1.00000000      1.00000000      1.00000000      1.00000000      1.00000000      1.00000000      1.00000000      1.00000000      1.00000000      1.00000000      1.00000000      1.00000000
      1.00000000      1.00000000      1.00000000      1.00000000      1.00000000      1.00000000      1.00000000      1.00000000      1.00000000      1.00000000      1.00000000      1.00000000      1.00000000      1.00000000      1.00000000      1.00000000      1.00000000      1.00000000      1.00000000      1.00000000
      1.00000000      1.00000000      1.00000000      1.00000000      1.00000000      1.00000000      1.00000000      1.00000000      1.00000000      1.00000000      1.00000000      1.00000000      1.00000000      1.00000000      1.00000000      1.00000000      1.00000000      1.00000000      1.00000000      1.00000000
      1.00000000      1.00000000      1.00000000      1.00000000      1.00000000      1.00000000      1.00000000      1.00000000      1.00000000      1.00000000      1.00000000      1.00000000      1.00000000      1.00000000      1.00000000      1.00000000      1.00000000      1.00000000      1.00000000      1.00000000
      1.00000000      1.00000000      1.00000000      1.00000000      1.00000000      1.00000000      1.00000000      1.00000000      1.00000000      1.00000000      1.00000000      1.00000000      1.00000000      1.00000000      1.00000000      1.00000000      1.00000000      1.00000000      1.00000000      1.00000000
      1.00000000      1.00000000      1.00000000      1.00000000      1.00000000      1.00000000      1.00000000      1.00000000      1.00000000      1.00000000      1.00000000      1.00000000      1.00000000      1.00000000      1.00000000      1.00000000      1.00000000      1.00000000      1.00000000      1.00000000
      1.00000000      1.00000000      1.00000000      1.00000000      1.00000000      1.00000000      1.00000000      1.00000000      1.00000000      1.00000000      1.00000000      1.00000000      1.00000000      1.00000000      1.00000000      1.00000000      1.00000000      1.00000000      1.00000000      1.00000000
      1.00000000      1.00000000      1.00000000      1.00000000      1.00000000      1.00000000      1.00000000      1.00000000      1.00000000      1.00000000      1.00000000      1.00000000      1.00000000      1.00000000      1.00000000      1.00000000      1.00000000      1.00000000      1.00000000      1.00000000
      1.00000000      1.00000000      1.00000000      1.00000000      1.00000000      1.00000000      1.00000000      1.00000000      1.00000000      1.00000000      1.00000000      1.00000000      1.00000000      1.00000000      1.00000000      1.00000000      1.00000000      1.00000000      1.00000000      1.00000000
      1.00000000      1.00000000      1.00000000      1.00000000      1.00000000      1.00000000      1.00000000      1.00000000      1.00000000      1.00000000      1.00000000      1.00000000      1.00000000      1.00000000      1.00000000      1.00000000      1.00000000      1.00000000      1.00000000      1.00000000
      1.00000000      1.00000000      1.00000000      1.00000000      1.00000000      1.00000000      1.00000000      1.00000000      1.00000000      1.00000000      1.00000000      1.00000000      1.00000000      1.00000000      1.00000000      1.00000000      1.00000000      1.00000000      1.00000000      1.00000000
      1.00000000      1.00000000      1.00000000      1.00000000      1.00000000      1.00000000      1.00000000      1.00000000      1.00000000      1.00000000      1.00000000      1.00000000      1.00000000      1.00000000      1.00000000      1.00000000      1.00000000      1.00000000      1.00000000      1.00000000
      1.00000000      1.00000000      1.00000000      1.00000000      1.00000000</v>
    <i name="NUPDOWN">     -1.00000000</i>
    <i type="logical" name="LSORBIT"> F  </i>
    <v name="SAXIS">      0.00000000      0.00000000      1.00000000</v>
    <i type="logical" name="LSPIRAL"> F  </i>
    <v name="QSPIRAL">      0.00000000      0.00000000      0.00000000</v>
    <i type="logical" name="LZEROZ"> F  </i>
   </separator>
   <separator name="electronic exchange-correlation" >
    <i type="logical" name="LASPH"> F  </i>
    <i type="logical" name="LMETAGGA"> F  </i>
   </separator>
   <separator name="electronic convergence" >
    <i type="int" name="NELM">   600</i>
    <i type="int" name="NELMDL">     0</i>
    <i type="int" name="NELMIN">     2</i>
    <i name="ENINI">    500.00000000</i>
    <separator name="electronic convergence detail" >
     <i type="logical" name="LDIAG"> T  </i>
     <i type="logical" name="LSUBROT"> F  </i>
     <i name="WEIMIN">      0.00000000</i>
     <i name="EBREAK">      0.00000003</i>
     <i name="DEPER">      0.30000000</i>
     <i type="int" name="NRMM">     4</i>
     <i name="TIME">      0.40000000</i>
    </separator>
   </separator>
   <separator name="electronic mixer" >
    <i name="AMIX">      0.40000000</i>
    <i name="BMIX">      0.01000000</i>
    <i name="AMIN">      0.01000000</i>
    <i name="AMIX_MAG">      1.60000000</i>
    <i name="BMIX_MAG">      0.01000000</i>
    <separator name="electronic mixer details" >
     <i type="int" name="IMIX">     4</i>
     <i type="logical" name="MIXFIRST"> F  </i>
     <i type="int" name="MAXMIX">   -45</i>
     <i name="WC">    100.00000000</i>
     <i type="int" name="INIMIX">     1</i>
     <i type="int" name="MIXPRE">     1</i>
     <i type="int" name="MREMOVE">     5</i>
    </separator>
   </separator>
   <separator name="electronic dipolcorrection" >
    <i type="logical" name="LDIPOL"> T  </i>
    <i type="logical" name="LMONO"> F  </i>
    <i type="int" name="IDIPOL">     3</i>
    <i name="EPSILON">      1.00000000</i>
    <v name="DIPOL">   -100.00000000   -100.00000000   -100.00000000</v>
    <i name="EFIELD">      0.00000000</i>
   </separator>
  </separator>
  <separator name="grids" >
   <i type="int" name="NGX">   100</i>
   <i type="int" name="NGY">   100</i>
   <i type="int" name="NGZ">   350</i>
   <i type="int" name="NGXF">   200</i>
   <i type="int" name="NGYF">   200</i>
   <i type="int" name="NGZF">   700</i>
   <i type="logical" name="ADDGRID"> F  </i>
  </separator>
  <separator name="ionic" >
   <i type="int" name="NSW">     0</i>
   <i type="int" name="IBRION">    -1</i>
   <i type="int" name="MDALGO">     0</i>
   <i type="int" name="ISIF">     2</i>
   <i name="PSTRESS">      0.00000000</i>
   <i name="EDIFFG">      0.00100000</i>
   <i type="int" name="NFREE">     0</i>
   <i name="POTIM">      0.50000000</i>
   <i name="SMASS">     -3.00000000</i>
   <i name="SCALEE">      1.00000000</i>
  </separator>
  <separator name="ionic md" >
   <i name="TEBEG">      0.00010000</i>
   <i name="TEEND">      0.00010000</i>
   <i type="int" name="NBLOCK">     1</i>
   <i type="int" name="KBLOCK">     1</i>
   <i type="int" name="NPACO">   256</i>
   <i name="APACO">     16.00000000</i>
  </separator>
  <separator name="symmetry" >
   <i type="int" name="ISYM">     0</i>
   <i name="SYMPREC">      0.00001000</i>
  </separator>
  <separator name="dos" >
   <i type="int" name="LORBIT">     0</i>
   <v name="RWIGS">     -1.00000000     -1.00000000     -1.00000000     -1.00000000     -1.00000000</v>
   <i type="int" name="NEDOS">   301</i>
   <i name="EMIN">     10.00000000</i>
   <i name="EMAX">    -10.00000000</i>
   <i name="EFERMI">      0.00000000</i>
  </separator>
  <separator name="writing" >
   <i type="int" name="NWRITE">     2</i>
   <i type="logical" name="LWAVE"> F  </i>
   <i type="logical" name="LDOWNSAMPLE"> F  </i>
   <i type="logical" name="LCHARG"> T  </i>
   <i type="logical" name="LPARD"> F  </i>
   <i type="logical" name="LVTOT"> T  </i>
   <i type="logical" name="LVHAR"> F  </i>
   <i type="logical" name="LELF"> F  </i>
   <i type="logical" name="LOPTICS"> F  </i>
   <v name="STM">      0.00000000      0.00000000      0.00000000      0.00000000      0.00000000      0.00000000      0.00000000</v>
  </separator>
  <separator name="performance" >
   <i type="int" name="NPAR">     4</i>
   <i type="int" name="NSIM">     4</i>
   <i type="int" name="NBLK">    -1</i>
   <i type="logical" name="LPLANE"> T  </i>
   <i type="logical" name="LSCALAPACK"> T  </i>
   <i type="logical" name="LSCAAWARE"> F  </i>
   <i type="logical" name="LSCALU"> F  </i>
   <i type="logical" name="LASYNC"> F  </i>
   <i type="logical" name="LORBITALREAL"> F  </i>
  </separator>
  <separator name="miscellaneous" >
   <i type="int" name="IDIOT">     3</i>
   <i type="int" name="PHON_NSTRUCT">    -1</i>
   <i type="logical" name="LMUSIC"> F  </i>
   <v name="POMASS">      1.00000000     12.01100000     14.00100000    126.90400000    207.20000000</v>
   <v name="DARWINR">      0.00000000      0.00000000      0.00000000      0.00000000      0.00000000</v>
   <v name="DARWINV">      1.00000000      1.00000000      1.00000000      1.00000000      1.00000000</v>
   <i type="logical" name="LCORR"> T  </i>
  </separator>
  <i type="logical" name="GGA_COMPAT"> F  </i>
  <i type="logical" name="LBERRY"> F  </i>
  <i type="int" name="ICORELEVEL">     0</i>
  <i type="logical" name="LDAU"> F  </i>
  <i type="int" name="I_CONSTRAINED_M">     0</i>
  <separator name="electronic exchange-correlation" >
   <i type="string" name="GGA">--</i>
   <i type="int" name="VOSKOWN">     0</i>
   <i type="logical" name="LHFCALC"> F  </i>
   <i type="string" name="PRECFOCK"></i>
   <i type="logical" name="LSYMGRAD"> F  </i>
   <i type="logical" name="LHFONE"> F  </i>
   <i type="logical" name="LRHFCALC"> F  </i>
   <i type="logical" name="LTHOMAS"> F  </i>
   <i type="logical" name="LMODELHF"> F  </i>
   <i type="logical" name="LFOCKACE"> F  </i>
   <i name="ENCUT4O">     -1.00000000</i>
   <i type="int" name="EXXOEP">     0</i>
   <i type="int" name="FOURORBIT">     0</i>
   <i name="AEXX">      0.00000000</i>
   <i name="HFALPHA">      0.00000000</i>
   <i name="MCALPHA">      0.00000000</i>
   <i name="ALDAX">      1.00000000</i>
   <i name="AGGAX">      1.00000000</i>
   <i name="ALDAC">      1.00000000</i>
   <i name="AGGAC">      1.00000000</i>
   <i type="int" name="NKREDX">     1</i>
   <i type="int" name="NKREDY">     1</i>
   <i type="int" name="NKREDZ">     1</i>
   <i type="logical" name="SHIFTRED"> F  </i>
   <i type="logical" name="ODDONLY"> F  </i>
   <i type="logical" name="EVENONLY"> F  </i>
   <i type="int" name="LMAXFOCK">     0</i>
   <i type="int" name="NMAXFOCKAE">     0</i>
   <i type="logical" name="LFOCKAEDFT"> F  </i>
   <i name="HFSCREEN">      0.00000000</i>
   <i name="HFSCREENC">      0.00000000</i>
   <i type="int" name="NBANDSGWLOW">     0</i>
  </separator>
  <separator name="vdW DFT" >
   <i type="logical" name="LUSE_VDW"> F  </i>
   <i name="Zab_VDW">     -0.84910000</i>
   <i name="PARAM1">      0.12340000</i>
   <i name="PARAM2">      1.00000000</i>
   <i name="PARAM3">      0.00000000</i>
  </separator>
  <separator name="model GW" >
   <i type="int" name="MODEL_GW">     0</i>
   <i name="MODEL_EPS0">     37.63423484</i>
   <i name="MODEL_ALPHA">      1.00000000</i>
  </separator>
  <separator name="linear response parameters" >
   <i type="logical" name="LEPSILON"> F  </i>
   <i type="logical" name="LRPA"> F  </i>
   <i type="logical" name="LNABLA"> F  </i>
   <i type="logical" name="LVEL"> F  </i>
   <i type="int" name="KINTER">     0</i>
   <i name="CSHIFT">      0.10000000</i>
   <i name="OMEGAMAX">     -1.00000000</i>
   <i name="DEG_THRESHOLD">      0.00200000</i>
   <i name="RTIME">     -0.10000000</i>
   <i name="WPLASMAI">      0.00000000</i>
   <v name="DFIELD">      0.00000000      0.00000000      0.00000000</v>
   <v name="WPLASMA">      0.00000000      0.00000000      0.00000000      0.00000000      0.00000000      0.00000000      0.00000000      0.00000000      0.00000000</v>
  </separator>
  <separator name="orbital magnetization" >
   <i type="logical" name="NUCIND"> F  </i>
   <v name="MAGPOS">      0.00000000      0.00000000      0.00000000</v>
   <i type="logical" name="LNICSALL"> T  </i>
   <i type="logical" name="ORBITALMAG"> F  </i>
   <i type="logical" name="LMAGBLOCH"> F  </i>
   <i type="logical" name="LCHIMAG"> F  </i>
   <i type="logical" name="LGAUGE"> T  </i>
   <i type="int" name="MAGATOM">     0</i>
   <v name="MAGDIPOL">      0.00000000      0.00000000      0.00000000</v>
   <v name="AVECCONST">      0.00000000      0.00000000      0.00000000</v>
  </separator>
  <separator name="response functions" >
   <i type="logical" name="LFINITE_TEMPERATURE"> F  </i>
   <i type="logical" name="LADDER"> F  </i>
   <i type="logical" name="LRPAFORCE"> F  </i>
   <i type="logical" name="LFXC"> F  </i>
   <i type="logical" name="LHARTREE"> T  </i>
   <i type="int" name="IBSE">     0</i>
   <v type="int" name="KPOINT">    -1     0     0     0</v>
   <i type="logical" name="LTCTC"> F  </i>
   <i type="logical" name="LTCTE"> F  </i>
   <i type="logical" name="LTETE"> F  </i>
   <i type="logical" name="LTRIPLET"> F  </i>
   <i type="logical" name="LFXCEPS"> F  </i>
   <i type="logical" name="LFXHEG"> F  </i>
   <i type="int" name="NATURALO">     2</i>
   <i type="logical" name="LHOLEGF"> F  </i>
   <i type="logical" name="L2ORDER"> F  </i>
   <i type="logical" name="LDMP1"> F  </i>
   <i type="logical" name="LMP2LT"> F  </i>
   <i type="logical" name="LSMP2LT"> F  </i>
   <i type="logical" name="LGWLF"> F  </i>
   <i name="ENCUTGW">     -2.00000000</i>
   <i name="ENCUTGWSOFT">     -2.00000000</i>
   <i name="ENCUTLF">     -1.00000000</i>
   <i type="logical" name="LESF_SPLINES"> F  </i>
   <i type="int" name="LMAXMP2">    -1</i>
   <i name="SCISSOR">      0.00000000</i>
   <i type="int" name="NOMEGA">     0</i>
   <i type="int" name="NOMEGAR">     0</i>
   <i type="int" name="NBANDSGW">    -1</i>
   <i type="int" name="NBANDSO">    -1</i>
   <i type="int" name="NBANDSV">    -1</i>
   <i type="int" name="NELM">   600</i>
   <i type="int" name="NELMHF">     1</i>
   <i type="int" name="DIM">     3</i>
   <i type="int" name="IESPILON">     4</i>
   <i type="int" name="ANTIRES">     0</i>
   <i name="OMEGAMAX">    -30.00000000</i>
   <i name="OMEGAMIN">    -30.00000000</i>
   <i name="OMEGATL">   -200.00000000</i>
   <i type="int" name="OMEGAGRID">     0</i>
   <i name="CSHIFT">     -0.10000000</i>
   <i type="logical" name="LSELFENERGY"> F  </i>
   <i type="logical" name="LSPECTRAL"> F  </i>
   <i type="logical" name="LSPECTRALGW"> F  </i>
   <i type="logical" name="LSINGLES"> F  </i>
   <i type="logical" name="LFERMIGW"> F  </i>
   <i type="logical" name="ODDONLYGW"> F  </i>
   <i type="logical" name="EVENONLYGW"> F  </i>
   <i type="int" name="NKREDLFX">     1</i>
   <i type="int" name="NKREDLFY">     1</i>
   <i type="int" name="NKREDLFZ">     1</i>
   <i type="int" name="MAXMEM">  2800</i>
   <i type="int" name="TELESCOPE">     0</i>
   <i type="int" name="NTAUPAR">    -1</i>
   <i type="int" name="NOMEGAPAR">    -1</i>
   <i name="DAMP_NEWTON">      0.80000001</i>
   <i name="LAMBDA">      1.00000000</i>
  </separator>
  <separator name="External order field" >
   <i name="OFIELD_KAPPA">      0.00000000</i>
   <v name="OFIELD_K">      0.00000000      0.00000000      0.00000000</v>
   <i name="OFIELD_Q6_NEAR">      0.00000000</i>
   <i name="OFIELD_Q6_FAR">      0.00000000</i>
   <i name="OFIELD_A">      0.00000000</i>
  </separator>
 </parameters>
 <atominfo>
  <atoms>     325 </atoms>
  <types>       5 </types>
  <array name="atoms" >
   <dimension dim="1">ion</dimension>
   <field type="string">element</field>
   <field type="int">atomtype</field>
   <set>
    <rc><c>H </c><c>   1</c></rc>
    <rc><c>H </c><c>   1</c></rc>
    <rc><c>H </c><c>   1</c></rc>
    <rc><c>H </c><c>   1</c></rc>
    <rc><c>H </c><c>   1</c></rc>
    <rc><c>H </c><c>   1</c></rc>
    <rc><c>H </c><c>   1</c></rc>
    <rc><c>H </c><c>   1</c></rc>
    <rc><c>H </c><c>   1</c></rc>
    <rc><c>H </c><c>   1</c></rc>
    <rc><c>H </c><c>   1</c></rc>
    <rc><c>H </c><c>   1</c></rc>
    <rc><c>H </c><c>   1</c></rc>
    <rc><c>H </c><c>   1</c></rc>
    <rc><c>H </c><c>   1</c></rc>
    <rc><c>H </c><c>   1</c></rc>
    <rc><c>H </c><c>   1</c></rc>
    <rc><c>H </c><c>   1</c></rc>
    <rc><c>H </c><c>   1</c></rc>
    <rc><c>H </c><c>   1</c></rc>
    <rc><c>H </c><c>   1</c></rc>
    <rc><c>H </c><c>   1</c></rc>
    <rc><c>H </c><c>   1</c></rc>
    <rc><c>H </c><c>   1</c></rc>
    <rc><c>H </c><c>   1</c></rc>
    <rc><c>H </c><c>   1</c></rc>
    <rc><c>H </c><c>   1</c></rc>
    <rc><c>H </c><c>   1</c></rc>
    <rc><c>H </c><c>   1</c></rc>
    <rc><c>H </c><c>   1</c></rc>
    <rc><c>H </c><c>   1</c></rc>
    <rc><c>H </c><c>   1</c></rc>
    <rc><c>H </c><c>   1</c></rc>
    <rc><c>H </c><c>   1</c></rc>
    <rc><c>H </c><c>   1</c></rc>
    <rc><c>H </c><c>   1</c></rc>
    <rc><c>H </c><c>   1</c></rc>
    <rc><c>H </c><c>   1</c></rc>
    <rc><c>H </c><c>   1</c></rc>
    <rc><c>H </c><c>   1</c></rc>
    <rc><c>H </c><c>   1</c></rc>
    <rc><c>H </c><c>   1</c></rc>
    <rc><c>H </c><c>   1</c></rc>
    <rc><c>H </c><c>   1</c></rc>
    <rc><c>H </c><c>   1</c></rc>
    <rc><c>H </c><c>   1</c></rc>
    <rc><c>H </c><c>   1</c></rc>
    <rc><c>H </c><c>   1</c></rc>
    <rc><c>H </c><c>   1</c></rc>
    <rc><c>H </c><c>   1</c></rc>
    <rc><c>H </c><c>   1</c></rc>
    <rc><c>H </c><c>   1</c></rc>
    <rc><c>H </c><c>   1</c></rc>
    <rc><c>H </c><c>   1</c></rc>
    <rc><c>H </c><c>   1</c></rc>
    <rc><c>H </c><c>   1</c></rc>
    <rc><c>H </c><c>   1</c></rc>
    <rc><c>H </c><c>   1</c></rc>
    <rc><c>H </c><c>   1</c></rc>
    <rc><c>H </c><c>   1</c></rc>
    <rc><c>H </c><c>   1</c></rc>
    <rc><c>H </c><c>   1</c></rc>
    <rc><c>H </c><c>   1</c></rc>
    <rc><c>H </c><c>   1</c></rc>
    <rc><c>H </c><c>   1</c></rc>
    <rc><c>H </c><c>   1</c></rc>
    <rc><c>H </c><c>   1</c></rc>
    <rc><c>H </c><c>   1</c></rc>
    <rc><c>H </c><c>   1</c></rc>
    <rc><c>H </c><c>   1</c></rc>
    <rc><c>H </c><c>   1</c></rc>
    <rc><c>H </c><c>   1</c></rc>
    <rc><c>H </c><c>   1</c></rc>
    <rc><c>H </c><c>   1</c></rc>
    <rc><c>H </c><c>   1</c></rc>
    <rc><c>H </c><c>   1</c></rc>
    <rc><c>H </c><c>   1</c></rc>
    <rc><c>H </c><c>   1</c></rc>
    <rc><c>H </c><c>   1</c></rc>
    <rc><c>H </c><c>   1</c></rc>
    <rc><c>H </c><c>   1</c></rc>
    <rc><c>H </c><c>   1</c></rc>
    <rc><c>H </c><c>   1</c></rc>
    <rc><c>H </c><c>   1</c></rc>
    <rc><c>H </c><c>   1</c></rc>
    <rc><c>H </c><c>   1</c></rc>
    <rc><c>H </c><c>   1</c></rc>
    <rc><c>H </c><c>   1</c></rc>
    <rc><c>H </c><c>   1</c></rc>
    <rc><c>H </c><c>   1</c></rc>
    <rc><c>H </c><c>   1</c></rc>
    <rc><c>H </c><c>   1</c></rc>
    <rc><c>H </c><c>   1</c></rc>
    <rc><c>H </c><c>   1</c></rc>
    <rc><c>H </c><c>   1</c></rc>
    <rc><c>H </c><c>   1</c></rc>
    <rc><c>H </c><c>   1</c></rc>
    <rc><c>H </c><c>   1</c></rc>
    <rc><c>H </c><c>   1</c></rc>
    <rc><c>H </c><c>   1</c></rc>
    <rc><c>H </c><c>   1</c></rc>
    <rc><c>H </c><c>   1</c></rc>
    <rc><c>H </c><c>   1</c></rc>
    <rc><c>H </c><c>   1</c></rc>
    <rc><c>H </c><c>   1</c></rc>
    <rc><c>H </c><c>   1</c></rc>
    <rc><c>H </c><c>   1</c></rc>
    <rc><c>H </c><c>   1</c></rc>
    <rc><c>H </c><c>   1</c></rc>
    <rc><c>H </c><c>   1</c></rc>
    <rc><c>H </c><c>   1</c></rc>
    <rc><c>H </c><c>   1</c></rc>
    <rc><c>H </c><c>   1</c></rc>
    <rc><c>H </c><c>   1</c></rc>
    <rc><c>H </c><c>   1</c></rc>
    <rc><c>H </c><c>   1</c></rc>
    <rc><c>H </c><c>   1</c></rc>
    <rc><c>H </c><c>   1</c></rc>
    <rc><c>H </c><c>   1</c></rc>
    <rc><c>H </c><c>   1</c></rc>
    <rc><c>H </c><c>   1</c></rc>
    <rc><c>H </c><c>   1</c></rc>
    <rc><c>H </c><c>   1</c></rc>
    <rc><c>H </c><c>   1</c></rc>
    <rc><c>H </c><c>   1</c></rc>
    <rc><c>H </c><c>   1</c></rc>
    <rc><c>H </c><c>   1</c></rc>
    <rc><c>H </c><c>   1</c></rc>
    <rc><c>H </c><c>   1</c></rc>
    <rc><c>H </c><c>   1</c></rc>
    <rc><c>H </c><c>   1</c></rc>
    <rc><c>H </c><c>   1</c></rc>
    <rc><c>H </c><c>   1</c></rc>
    <rc><c>H </c><c>   1</c></rc>
    <rc><c>H </c><c>   1</c></rc>
    <rc><c>H </c><c>   1</c></rc>
    <rc><c>H </c><c>   1</c></rc>
    <rc><c>H </c><c>   1</c></rc>
    <rc><c>H </c><c>   1</c></rc>
    <rc><c>H </c><c>   1</c></rc>
    <rc><c>H </c><c>   1</c></rc>
    <rc><c>H </c><c>   1</c></rc>
    <rc><c>H </c><c>   1</c></rc>
    <rc><c>C </c><c>   2</c></rc>
    <rc><c>C </c><c>   2</c></rc>
    <rc><c>C </c><c>   2</c></rc>
    <rc><c>C </c><c>   2</c></rc>
    <rc><c>C </c><c>   2</c></rc>
    <rc><c>C </c><c>   2</c></rc>
    <rc><c>C </c><c>   2</c></rc>
    <rc><c>C </c><c>   2</c></rc>
    <rc><c>C </c><c>   2</c></rc>
    <rc><c>C </c><c>   2</c></rc>
    <rc><c>C </c><c>   2</c></rc>
    <rc><c>C </c><c>   2</c></rc>
    <rc><c>C </c><c>   2</c></rc>
    <rc><c>C </c><c>   2</c></rc>
    <rc><c>C </c><c>   2</c></rc>
    <rc><c>C </c><c>   2</c></rc>
    <rc><c>C </c><c>   2</c></rc>
    <rc><c>C </c><c>   2</c></rc>
    <rc><c>C </c><c>   2</c></rc>
    <rc><c>C </c><c>   2</c></rc>
    <rc><c>C </c><c>   2</c></rc>
    <rc><c>C </c><c>   2</c></rc>
    <rc><c>C </c><c>   2</c></rc>
    <rc><c>C </c><c>   2</c></rc>
    <rc><c>C </c><c>   2</c></rc>
    <rc><c>C </c><c>   2</c></rc>
    <rc><c>C </c><c>   2</c></rc>
    <rc><c>C </c><c>   2</c></rc>
    <rc><c>C </c><c>   2</c></rc>
    <rc><c>C </c><c>   2</c></rc>
    <rc><c>C </c><c>   2</c></rc>
    <rc><c>C </c><c>   2</c></rc>
    <rc><c>C </c><c>   2</c></rc>
    <rc><c>C </c><c>   2</c></rc>
    <rc><c>C </c><c>   2</c></rc>
    <rc><c>C </c><c>   2</c></rc>
    <rc><c>C </c><c>   2</c></rc>
    <rc><c>C </c><c>   2</c></rc>
    <rc><c>C </c><c>   2</c></rc>
    <rc><c>N </c><c>   3</c></rc>
    <rc><c>N </c><c>   3</c></rc>
    <rc><c>N </c><c>   3</c></rc>
    <rc><c>N </c><c>   3</c></rc>
    <rc><c>N </c><c>   3</c></rc>
    <rc><c>N </c><c>   3</c></rc>
    <rc><c>N </c><c>   3</c></rc>
    <rc><c>N </c><c>   3</c></rc>
    <rc><c>N </c><c>   3</c></rc>
    <rc><c>N </c><c>   3</c></rc>
    <rc><c>N </c><c>   3</c></rc>
    <rc><c>N </c><c>   3</c></rc>
    <rc><c>N </c><c>   3</c></rc>
    <rc><c>N </c><c>   3</c></rc>
    <rc><c>N </c><c>   3</c></rc>
    <rc><c>N </c><c>   3</c></rc>
    <rc><c>N </c><c>   3</c></rc>
    <rc><c>N </c><c>   3</c></rc>
    <rc><c>N </c><c>   3</c></rc>
    <rc><c>N </c><c>   3</c></rc>
    <rc><c>N </c><c>   3</c></rc>
    <rc><c>N </c><c>   3</c></rc>
    <rc><c>N </c><c>   3</c></rc>
    <rc><c>N </c><c>   3</c></rc>
    <rc><c>N </c><c>   3</c></rc>
    <rc><c>N </c><c>   3</c></rc>
    <rc><c>N </c><c>   3</c></rc>
    <rc><c>N </c><c>   3</c></rc>
    <rc><c>N </c><c>   3</c></rc>
    <rc><c>N </c><c>   3</c></rc>
    <rc><c>N </c><c>   3</c></rc>
    <rc><c>N </c><c>   3</c></rc>
    <rc><c>N </c><c>   3</c></rc>
    <rc><c>N </c><c>   3</c></rc>
    <rc><c>N </c><c>   3</c></rc>
    <rc><c>N </c><c>   3</c></rc>
    <rc><c>N </c><c>   3</c></rc>
    <rc><c>N </c><c>   3</c></rc>
    <rc><c>N </c><c>   3</c></rc>
    <rc><c>N </c><c>   3</c></rc>
    <rc><c>N </c><c>   3</c></rc>
    <rc><c>N </c><c>   3</c></rc>
    <rc><c>N </c><c>   3</c></rc>
    <rc><c>N </c><c>   3</c></rc>
    <rc><c>N </c><c>   3</c></rc>
    <rc><c>N </c><c>   3</c></rc>
    <rc><c>N </c><c>   3</c></rc>
    <rc><c>I </c><c>   4</c></rc>
    <rc><c>I </c><c>   4</c></rc>
    <rc><c>I </c><c>   4</c></rc>
    <rc><c>I </c><c>   4</c></rc>
    <rc><c>I </c><c>   4</c></rc>
    <rc><c>I </c><c>   4</c></rc>
    <rc><c>I </c><c>   4</c></rc>
    <rc><c>I </c><c>   4</c></rc>
    <rc><c>I </c><c>   4</c></rc>
    <rc><c>I </c><c>   4</c></rc>
    <rc><c>I </c><c>   4</c></rc>
    <rc><c>I </c><c>   4</c></rc>
    <rc><c>I </c><c>   4</c></rc>
    <rc><c>I </c><c>   4</c></rc>
    <rc><c>I </c><c>   4</c></rc>
    <rc><c>I </c><c>   4</c></rc>
    <rc><c>I </c><c>   4</c></rc>
    <rc><c>I </c><c>   4</c></rc>
    <rc><c>I </c><c>   4</c></rc>
    <rc><c>I </c><c>   4</c></rc>
    <rc><c>I </c><c>   4</c></rc>
    <rc><c>I </c><c>   4</c></rc>
    <rc><c>I </c><c>   4</c></rc>
    <rc><c>I </c><c>   4</c></rc>
    <rc><c>I </c><c>   4</c></rc>
    <rc><c>I </c><c>   4</c></rc>
    <rc><c>I </c><c>   4</c></rc>
    <rc><c>I </c><c>   4</c></rc>
    <rc><c>I </c><c>   4</c></rc>
    <rc><c>I </c><c>   4</c></rc>
    <rc><c>I </c><c>   4</c></rc>
    <rc><c>I </c><c>   4</c></rc>
    <rc><c>I </c><c>   4</c></rc>
    <rc><c>I </c><c>   4</c></rc>
    <rc><c>I </c><c>   4</c></rc>
    <rc><c>I </c><c>   4</c></rc>
    <rc><c>I </c><c>   4</c></rc>
    <rc><c>I </c><c>   4</c></rc>
    <rc><c>I </c><c>   4</c></rc>
    <rc><c>I </c><c>   4</c></rc>
    <rc><c>I </c><c>   4</c></rc>
    <rc><c>I </c><c>   4</c></rc>
    <rc><c>I </c><c>   4</c></rc>
    <rc><c>I </c><c>   4</c></rc>
    <rc><c>I </c><c>   4</c></rc>
    <rc><c>I </c><c>   4</c></rc>
    <rc><c>I </c><c>   4</c></rc>
    <rc><c>I </c><c>   4</c></rc>
    <rc><c>I </c><c>   4</c></rc>
    <rc><c>I </c><c>   4</c></rc>
    <rc><c>I </c><c>   4</c></rc>
    <rc><c>I </c><c>   4</c></rc>
    <rc><c>I </c><c>   4</c></rc>
    <rc><c>I </c><c>   4</c></rc>
    <rc><c>I </c><c>   4</c></rc>
    <rc><c>I </c><c>   4</c></rc>
    <rc><c>I </c><c>   4</c></rc>
    <rc><c>I </c><c>   4</c></rc>
    <rc><c>I </c><c>   4</c></rc>
    <rc><c>I </c><c>   4</c></rc>
    <rc><c>I </c><c>   4</c></rc>
    <rc><c>I </c><c>   4</c></rc>
    <rc><c>I </c><c>   4</c></rc>
    <rc><c>I </c><c>   4</c></rc>
    <rc><c>I </c><c>   4</c></rc>
    <rc><c>I </c><c>   4</c></rc>
    <rc><c>I </c><c>   4</c></rc>
    <rc><c>I </c><c>   4</c></rc>
    <rc><c>I </c><c>   4</c></rc>
    <rc><c>I </c><c>   4</c></rc>
    <rc><c>I </c><c>   4</c></rc>
    <rc><c>I </c><c>   4</c></rc>
    <rc><c>Pb</c><c>   5</c></rc>
    <rc><c>Pb</c><c>   5</c></rc>
    <rc><c>Pb</c><c>   5</c></rc>
    <rc><c>Pb</c><c>   5</c></rc>
    <rc><c>Pb</c><c>   5</c></rc>
    <rc><c>Pb</c><c>   5</c></rc>
    <rc><c>Pb</c><c>   5</c></rc>
    <rc><c>Pb</c><c>   5</c></rc>
    <rc><c>Pb</c><c>   5</c></rc>
    <rc><c>Pb</c><c>   5</c></rc>
    <rc><c>Pb</c><c>   5</c></rc>
    <rc><c>Pb</c><c>   5</c></rc>
    <rc><c>Pb</c><c>   5</c></rc>
    <rc><c>Pb</c><c>   5</c></rc>
    <rc><c>Pb</c><c>   5</c></rc>
    <rc><c>Pb</c><c>   5</c></rc>
    <rc><c>Pb</c><c>   5</c></rc>
    <rc><c>Pb</c><c>   5</c></rc>
    <rc><c>Pb</c><c>   5</c></rc>
    <rc><c>Pb</c><c>   5</c></rc>
    <rc><c>Pb</c><c>   5</c></rc>
    <rc><c>Pb</c><c>   5</c></rc>
    <rc><c>Pb</c><c>   5</c></rc>
    <rc><c>Pb</c><c>   5</c></rc>
   </set>
  </array>
  <array name="atomtypes" >
   <dimension dim="1">type</dimension>
   <field type="int">atomspertype</field>
   <field type="string">element</field>
   <field>mass</field>
   <field>valence</field>
   <field type="string">pseudopotential</field>
   <set>
    <rc><c> 143</c><c>H </c><c>      1.00000000</c><c>      1.00000000</c><c>  PAW_PBE H 15Jun2001                   </c></rc>
    <rc><c>  39</c><c>C </c><c>     12.01100000</c><c>      4.00000000</c><c>  PAW_PBE C 08Apr2002                   </c></rc>
    <rc><c>  47</c><c>N </c><c>     14.00100000</c><c>      5.00000000</c><c>  PAW_PBE N 08Apr2002                   </c></rc>
    <rc><c>  72</c><c>I </c><c>    126.90400000</c><c>      7.00000000</c><c>  PAW_PBE I 08Apr2002                   </c></rc>
    <rc><c>  24</c><c>Pb</c><c>    207.20000000</c><c>      4.00000000</c><c>  PAW_PBE Pb 08Apr2002                  </c></rc>
   </set>
  </array>
 </atominfo>
 <structure name="initialpos" >
  <crystal>
   <varray name="basis" >
    <v>      18.06080055       0.00000000       0.00000000 </v>
    <v>      -0.00491865      18.06279945       0.00000000 </v>
    <v>       0.00000000       0.00000000      62.48749924 </v>
   </varray>
   <i name="volume">  20385.21054034 </i>
   <varray name="rec_basis" >
    <v>       0.05536853       0.00001508      -0.00000000 </v>
    <v>       0.00000000       0.05536240       0.00000000 </v>
    <v>       0.00000000      -0.00000000       0.01600320 </v>
   </varray>
  </crystal>
  <varray name="positions" >
   <v>       0.44311344       0.32773028       0.56882727 </v>
   <v>       0.41982362       0.82846443       0.56895956 </v>
   <v>       0.96390484       0.32174535       0.57826227 </v>
   <v>       0.94793058       0.81336609       0.57559553 </v>
   <v>       0.32529118       0.95337059       0.57278668 </v>
   <v>       0.34317182       0.56241597       0.56681320 </v>
   <v>       0.80171394       0.07994628       0.57424388 </v>
   <v>       0.01736844       0.13798693       0.56145751 </v>
   <v>       0.06448404       0.65235289       0.56778825 </v>
   <v>       0.55994933       0.17309134       0.55400174 </v>
   <v>       0.50867853       0.64973186       0.56269006 </v>
   <v>       0.36304705       0.02099631       0.55643802 </v>
   <v>       0.28561986       0.62981667       0.55549630 </v>
   <v>       0.87246805       0.02274579       0.56434383 </v>
   <v>       0.96952123       0.18560646       0.58093419 </v>
   <v>       0.99482514       0.68673513       0.58402911 </v>
   <v>       0.56105589       0.25708645       0.56813060 </v>
   <v>       0.43583318       0.69352892       0.57574309 </v>
   <v>       0.28642981       0.43794126       0.57342036 </v>
   <v>       0.19105142       0.93070106       0.57063330 </v>
   <v>       0.67353669       0.03103123       0.57127423 </v>
   <v>       0.36737337       0.28484844       0.55665290 </v>
   <v>       0.48668032       0.87234561       0.55364540 </v>
   <v>       0.01933737       0.36402865       0.55898247 </v>
   <v>       0.99522990       0.86188659       0.55586362 </v>
   <v>       0.19665718       0.42599544       0.56406424 </v>
   <v>       0.13807315       0.99039146       0.55510376 </v>
   <v>       0.66522404       0.94144070       0.56093257 </v>
   <v>       0.43532065       0.18402151       0.54531189 </v>
   <v>       0.55212895       0.76207740       0.54785091 </v>
   <v>       0.05665207       0.24852465       0.54461186 </v>
   <v>       0.07530372       0.76334882       0.54816830 </v>
   <v>       0.18681512       0.54523660       0.55179732 </v>
   <v>       0.24414088       0.05763482       0.54417848 </v>
   <v>       0.78943160       0.92901390       0.55478211 </v>
   <v>       0.48337815       0.33589431       0.66771308 </v>
   <v>       0.44193841       0.81376175       0.67356447 </v>
   <v>       0.96752574       0.28041134       0.67882901 </v>
   <v>       0.92404656       0.73014498       0.67297829 </v>
   <v>       0.31134053       0.05262568       0.67066258 </v>
   <v>       0.29951771       0.55072861       0.67546732 </v>
   <v>       0.79264150       0.06134593       0.67530200 </v>
   <v>       0.75880263       0.59618142       0.66342359 </v>
   <v>       0.08411543       0.16357405       0.64509424 </v>
   <v>       0.10920036       0.71852420       0.65103994 </v>
   <v>       0.58195798       0.17337790       0.64918233 </v>
   <v>       0.56487484       0.66944124       0.65188472 </v>
   <v>       0.18250236       0.41471703       0.64762441 </v>
   <v>       0.17193272       0.92183146       0.64976900 </v>
   <v>       0.71013028       0.40111893       0.66180479 </v>
   <v>       0.67783820       0.91826312       0.64998267 </v>
   <v>       0.06424674       0.17705376       0.67207705 </v>
   <v>       0.05366599       0.67777335       0.67025753 </v>
   <v>       0.59669709       0.25755519       0.66136025 </v>
   <v>       0.53019540       0.70036459       0.67642600 </v>
   <v>       0.20043798       0.44584291       0.67359707 </v>
   <v>       0.20662493       0.95257451       0.67418880 </v>
   <v>       0.67650603       0.48740379       0.67031901 </v>
   <v>       0.69120171       0.95857361       0.67491789 </v>
   <v>       0.39929604       0.29559710       0.65993912 </v>
   <v>       0.42800997       0.84439973       0.64759785 </v>
   <v>       0.93605076       0.32540370       0.65607245 </v>
   <v>       0.90257423       0.79971355       0.65478758 </v>
   <v>       0.33247594       0.07531538       0.64435813 </v>
   <v>       0.33319304       0.57825063       0.65061365 </v>
   <v>       0.83371565       0.07729940       0.65063752 </v>
   <v>       0.83799602       0.57952401       0.64822407 </v>
   <v>       0.00649161       0.25597358       0.63291767 </v>
   <v>       0.01797359       0.79915236       0.63921849 </v>
   <v>       0.45568900       0.19133596       0.64584964 </v>
   <v>       0.50355381       0.75705179       0.63209652 </v>
   <v>       0.24731256       0.99591927       0.62932711 </v>
   <v>       0.26217508       0.49482160       0.63136945 </v>
   <v>       0.76735458       0.98829788       0.63292554 </v>
   <v>       0.81391029       0.45261850       0.64563829 </v>
   <v>       0.44874502       0.30128397       0.76888902 </v>
   <v>       0.44874501       0.80128391       0.76888902 </v>
   <v>       0.94874497       0.30128397       0.76888902 </v>
   <v>       0.94874501       0.80128391       0.76888902 </v>
   <v>       0.30127600       0.05129450       0.76887296 </v>
   <v>       0.30127601       0.55129450       0.76887296 </v>
   <v>       0.80127594       0.05129450       0.76887296 </v>
   <v>       0.80127598       0.55129450       0.76887296 </v>
   <v>       0.07877100       0.17118050       0.74344197 </v>
   <v>       0.07877101       0.67118045       0.74344197 </v>
   <v>       0.57877100       0.17118050       0.74344197 </v>
   <v>       0.57877099       0.67118045       0.74344197 </v>
   <v>       0.17119950       0.42117448       0.74342103 </v>
   <v>       0.17119950       0.92117451       0.74342103 </v>
   <v>       0.67119951       0.42117448       0.74342103 </v>
   <v>       0.67119950       0.92117451       0.74342103 </v>
   <v>       0.05125600       0.19871499       0.76888902 </v>
   <v>       0.05125600       0.69871493       0.76888902 </v>
   <v>       0.55125603       0.19871499       0.76888902 </v>
   <v>       0.55125602       0.69871493       0.76888902 </v>
   <v>       0.19872349       0.44870397       0.76887205 </v>
   <v>       0.19872349       0.94870397       0.76887205 </v>
   <v>       0.69872352       0.44870397       0.76887205 </v>
   <v>       0.69872351       0.94870397       0.76887205 </v>
   <v>       0.42123152       0.32881747       0.74344197 </v>
   <v>       0.42123151       0.82881744       0.74344197 </v>
   <v>       0.92123147       0.32881747       0.74344197 </v>
   <v>       0.92123151       0.82881744       0.74344197 </v>
   <v>       0.32880050       0.07882500       0.74342103 </v>
   <v>       0.32880049       0.57882496       0.74342103 </v>
   <v>       0.82880048       0.07882500       0.74342103 </v>
   <v>       0.82880052       0.57882496       0.74342103 </v>
   <v>       0.00000350       0.25000148       0.72582199 </v>
   <v>       0.00000350       0.75000145       0.72582199 </v>
   <v>       0.50000351       0.25000148       0.72582199 </v>
   <v>       0.50000350       0.75000145       0.72582199 </v>
   <v>       0.25000050       0.00000000       0.72580398 </v>
   <v>       0.25000052       0.50000000       0.72580398 </v>
   <v>       0.75000050       0.00000000       0.72580398 </v>
   <v>       0.75000049       0.50000000       0.72580398 </v>
   <v>       0.77517966       0.55510311       0.52017472 </v>
   <v>       0.72123533       0.47613116       0.52543096 </v>
   <v>       0.87088641       0.50102596       0.54132647 </v>
   <v>       0.85627676       0.48178453       0.56838932 </v>
   <v>       0.74323745       0.64030836       0.55955595 </v>
   <v>       0.80723311       0.59857041       0.57752903 </v>
   <v>       0.66712132       0.54908534       0.56996166 </v>
   <v>       0.67684791       0.45765007       0.56078569 </v>
   <v>       0.61614538       0.55419383       0.53782425 </v>
   <v>       0.67135455       0.63545277       0.53562184 </v>
   <v>       0.60638129       0.64424813       0.50446104 </v>
   <v>       0.68667334       0.60077614       0.49494595 </v>
   <v>       0.79067875       0.39137659       0.53068683 </v>
   <v>       0.77781999       0.36952671       0.55784711 </v>
   <v>       0.86657974       0.36757953       0.54640738 </v>
   <v>       0.86404780       0.69483609       0.55570758 </v>
   <v>       0.84504089       0.64747956       0.53164772 </v>
   <v>       0.90788018       0.60834902       0.55070365 </v>
   <v>       0.75925091       0.52881113       0.59950327 </v>
   <v>       0.77617411       0.43704273       0.59033054 </v>
   <v>       0.68767426       0.46338680       0.59968275 </v>
   <v>       0.53445800       0.52965922       0.50344722 </v>
   <v>       0.57672819       0.54731149       0.47848074 </v>
   <v>       0.69553296       0.47600350       0.46813944 </v>
   <v>       0.56166689       0.41880049       0.52320572 </v>
   <v>       0.76120469       0.35524963       0.47134699 </v>
   <v>       0.62946479       0.29896607       0.52623587 </v>
   <v>       0.72932845       0.26739668       0.50089526 </v>
   <v>       0.02037336       0.25071784       0.55857119 </v>
   <v>       0.03313748       0.75764012       0.56046201 </v>
   <v>       0.46266877       0.22871571       0.55392799 </v>
   <v>       0.50067524       0.76117218       0.55712181 </v>
   <v>       0.23960800       0.52749541       0.55854952 </v>
   <v>       0.24983418       0.01022662       0.55478656 </v>
   <v>       0.76939457       0.98044617       0.56193216 </v>
   <v>       0.00990784       0.24464755       0.65014707 </v>
   <v>       0.00585855       0.76057013       0.65222133 </v>
   <v>       0.48916618       0.23360534       0.65356956 </v>
   <v>       0.49650960       0.75722096       0.64919735 </v>
   <v>       0.25787072       0.49627845       0.64881294 </v>
   <v>       0.25220523       0.99882156       0.64674392 </v>
   <v>       0.77530576       0.48862595       0.65429859 </v>
   <v>       0.75648005       0.99738324       0.64991551 </v>
   <v>       0.49998898       0.24999498       0.74327702 </v>
   <v>       0.49998903       0.74999496       0.74327702 </v>
   <v>       0.99998898       0.24999498       0.74327702 </v>
   <v>       0.99998903       0.74999496       0.74327702 </v>
   <v>       0.25000050       0.00000100       0.74325596 </v>
   <v>       0.25000052       0.50000100       0.74325596 </v>
   <v>       0.75000050       0.00000100       0.74325596 </v>
   <v>       0.75000049       0.50000100       0.74325596 </v>
   <v>       0.62402257       0.45634390       0.49577580 </v>
   <v>       0.67999476       0.43677156       0.48114396 </v>
   <v>       0.60507340       0.40500418       0.51171310 </v>
   <v>       0.71770677       0.36981193       0.48294514 </v>
   <v>       0.64275653       0.33786623       0.51344846 </v>
   <v>       0.69983238       0.32012103       0.49926475 </v>
   <v>       0.73162684       0.53325616       0.53049362 </v>
   <v>       0.83113949       0.47696389       0.55248917 </v>
   <v>       0.79182749       0.60466310       0.56061201 </v>
   <v>       0.70673913       0.50349172       0.56848748 </v>
   <v>       0.66142044       0.57972421       0.52852264 </v>
   <v>       0.63772695       0.59247375       0.50509343 </v>
   <v>       0.81409329       0.39785664       0.54669840 </v>
   <v>       0.85625196       0.63947833       0.54871082 </v>
   <v>       0.73529250       0.48240031       0.59041289 </v>
   <v>       0.58865913       0.53173702       0.49512772 </v>
   <v>       0.00310335       0.18837871       0.56766237 </v>
   <v>       0.03239237       0.69659383       0.57179643 </v>
   <v>       0.53382544       0.22108753       0.55790950 </v>
   <v>       0.47947224       0.69758537       0.56526052 </v>
   <v>       0.42309443       0.28566516       0.55940193 </v>
   <v>       0.46449667       0.82376850       0.55917263 </v>
   <v>       0.99826451       0.31586157       0.56520729 </v>
   <v>       0.98687766       0.81270353       0.56349295 </v>
   <v>       0.24345728       0.45761928       0.56438638 </v>
   <v>       0.18990743       0.97281281       0.55980630 </v>
   <v>       0.69781583       0.98727167       0.56389593 </v>
   <v>       0.31575796       0.99374718       0.56177923 </v>
   <v>       0.29353881       0.57523630       0.56024621 </v>
   <v>       0.81733907       0.03102349       0.56767696 </v>
   <v>       0.05534750       0.19126645       0.65654129 </v>
   <v>       0.05895078       0.71467562       0.65816838 </v>
   <v>       0.56051325       0.22051676       0.65500369 </v>
   <v>       0.53210626       0.70640824       0.66012666 </v>
   <v>       0.21143931       0.44948828       0.65747544 </v>
   <v>       0.20777259       0.95592741       0.65790069 </v>
   <v>       0.71592678       0.45791796       0.66233932 </v>
   <v>       0.70584291       0.95599915       0.65915937 </v>
   <v>       0.45577200       0.29293425       0.66037732 </v>
   <v>       0.45360934       0.80812264       0.65758514 </v>
   <v>       0.96885360       0.28534107       0.66257436 </v>
   <v>       0.94079035       0.76485207       0.66107760 </v>
   <v>       0.30134162       0.04447161       0.65462440 </v>
   <v>       0.29931484       0.54406116       0.65925839 </v>
   <v>       0.79610884       0.04833015       0.65933311 </v>
   <v>       0.79156008       0.55924219       0.65566361 </v>
   <v>       0.04586250       0.20411950       0.75272599 </v>
   <v>       0.04586250       0.70411946       0.75272599 </v>
   <v>       0.54586251       0.20411950       0.75272599 </v>
   <v>       0.54586250       0.70411946       0.75272599 </v>
   <v>       0.20411900       0.45410100       0.75270499 </v>
   <v>       0.20411899       0.95410095       0.75270499 </v>
   <v>       0.70411898       0.45410100       0.75270499 </v>
   <v>       0.70411896       0.95410095       0.75270499 </v>
   <v>       0.45414002       0.29588849       0.75272697 </v>
   <v>       0.45414001       0.79588852       0.75272697 </v>
   <v>       0.95414002       0.29588849       0.75272697 </v>
[...]
   <v>       0.55994933       0.17309134       0.55400174 </v>
   <v>       0.50867853       0.64973186       0.56269006 </v>
   <v>       0.36304705       0.02099631       0.55643802 </v>
   <v>       0.28561986       0.62981667       0.55549630 </v>
   <v>       0.87246805       0.02274579       0.56434383 </v>
   <v>       0.96952123       0.18560646       0.58093419 </v>
   <v>       0.99482514       0.68673513       0.58402911 </v>
   <v>       0.56105589       0.25708645       0.56813060 </v>
   <v>       0.43583318       0.69352892       0.57574309 </v>
   <v>       0.28642981       0.43794126       0.57342036 </v>
   <v>       0.19105142       0.93070106       0.57063330 </v>
   <v>       0.67353669       0.03103123       0.57127423 </v>
   <v>       0.36737337       0.28484844       0.55665290 </v>
   <v>       0.48668032       0.87234561       0.55364540 </v>
   <v>       0.01933737       0.36402865       0.55898247 </v>
   <v>       0.99522990       0.86188659       0.55586362 </v>
   <v>       0.19665718       0.42599544       0.56406424 </v>
   <v>       0.13807315       0.99039146       0.55510376 </v>
   <v>       0.66522404       0.94144070       0.56093257 </v>
   <v>       0.43532065       0.18402151       0.54531189 </v>
   <v>       0.55212895       0.76207740       0.54785091 </v>
   <v>       0.05665207       0.24852465       0.54461186 </v>
   <v>       0.07530372       0.76334882       0.54816830 </v>
   <v>       0.18681512       0.54523660       0.55179732 </v>
   <v>       0.24414088       0.05763482       0.54417848 </v>
   <v>       0.78943160       0.92901390       0.55478211 </v>
   <v>       0.48337815       0.33589431       0.66771308 </v>
   <v>       0.44193841       0.81376175       0.67356447 </v>
   <v>       0.96752574       0.28041134       0.67882901 </v>
   <v>       0.92404656       0.73014498       0.67297829 </v>
   <v>       0.31134053       0.05262568       0.67066258 </v>
   <v>       0.29951771       0.55072861       0.67546732 </v>
   <v>       0.79264150       0.06134593       0.67530200 </v>
   <v>       0.75880263       0.59618142       0.66342359 </v>
   <v>       0.08411543       0.16357405       0.64509424 </v>
   <v>       0.10920036       0.71852420       0.65103994 </v>
   <v>       0.58195798       0.17337790       0.64918233 </v>
   <v>       0.56487484       0.66944124       0.65188472 </v>
   <v>       0.18250236       0.41471703       0.64762441 </v>
   <v>       0.17193272       0.92183146       0.64976900 </v>
   <v>       0.71013028       0.40111893       0.66180479 </v>
   <v>       0.67783820       0.91826312       0.64998267 </v>
   <v>       0.06424674       0.17705376       0.67207705 </v>
   <v>       0.05366599       0.67777335       0.67025753 </v>
   <v>       0.59669709       0.25755519       0.66136025 </v>
   <v>       0.53019540       0.70036459       0.67642600 </v>
   <v>       0.20043798       0.44584291       0.67359707 </v>
   <v>       0.20662493       0.95257451       0.67418880 </v>
   <v>       0.67650603       0.48740379       0.67031901 </v>
   <v>       0.69120171       0.95857361       0.67491789 </v>
   <v>       0.39929604       0.29559710       0.65993912 </v>
   <v>       0.42800997       0.84439973       0.64759785 </v>
   <v>       0.93605076       0.32540370       0.65607245 </v>
   <v>       0.90257423       0.79971355       0.65478758 </v>
   <v>       0.33247594       0.07531538       0.64435813 </v>
   <v>       0.33319304       0.57825063       0.65061365 </v>
   <v>       0.83371565       0.07729940       0.65063752 </v>
   <v>       0.83799602       0.57952401       0.64822407 </v>
   <v>       0.00649161       0.25597358       0.63291767 </v>
   <v>       0.01797359       0.79915236       0.63921849 </v>
   <v>       0.45568900       0.19133596       0.64584964 </v>
   <v>       0.50355381       0.75705179       0.63209652 </v>
   <v>       0.24731256       0.99591927       0.62932711 </v>
   <v>       0.26217508       0.49482160       0.63136945 </v>
   <v>       0.76735458       0.98829788       0.63292554 </v>
   <v>       0.81391029       0.45261850       0.64563829 </v>
   <v>       0.44874502       0.30128397       0.76888902 </v>
   <v>       0.44874501       0.80128391       0.76888902 </v>
   <v>       0.94874497       0.30128397       0.76888902 </v>
   <v>       0.94874501       0.80128391       0.76888902 </v>
   <v>       0.30127600       0.05129450       0.76887296 </v>
   <v>       0.30127601       0.55129450       0.76887296 </v>
   <v>       0.80127594       0.05129450       0.76887296 </v>
   <v>       0.80127598       0.55129450       0.76887296 </v>
   <v>       0.07877100       0.17118050       0.74344197 </v>
   <v>       0.07877101       0.67118045       0.74344197 </v>
   <v>       0.57877100       0.17118050       0.74344197 </v>
   <v>       0.57877099       0.67118045       0.74344197 </v>
   <v>       0.17119950       0.42117448       0.74342103 </v>
   <v>       0.17119950       0.92117451       0.74342103 </v>
   <v>       0.67119951       0.42117448       0.74342103 </v>
   <v>       0.67119950       0.92117451       0.74342103 </v>
   <v>       0.05125600       0.19871499       0.76888902 </v>
   <v>       0.05125600       0.69871493       0.76888902 </v>
   <v>       0.55125603       0.19871499       0.76888902 </v>
   <v>       0.55125602       0.69871493       0.76888902 </v>
   <v>       0.19872349       0.44870397       0.76887205 </v>
   <v>       0.19872349       0.94870397       0.76887205 </v>
   <v>       0.69872352       0.44870397       0.76887205 </v>
   <v>       0.69872351       0.94870397       0.76887205 </v>
   <v>       0.42123152       0.32881747       0.74344197 </v>
   <v>       0.42123151       0.82881744       0.74344197 </v>
   <v>       0.92123147       0.32881747       0.74344197 </v>
   <v>       0.92123151       0.82881744       0.74344197 </v>
   <v>       0.32880050       0.07882500       0.74342103 </v>
   <v>       0.32880049       0.57882496       0.74342103 </v>
   <v>       0.82880048       0.07882500       0.74342103 </v>
   <v>       0.82880052       0.57882496       0.74342103 </v>
   <v>       0.00000350       0.25000148       0.72582199 </v>
   <v>       0.00000350       0.75000145       0.72582199 </v>
   <v>       0.50000351       0.25000148       0.72582199 </v>
   <v>       0.50000350       0.75000145       0.72582199 </v>
   <v>       0.25000050       0.00000000       0.72580398 </v>
   <v>       0.25000052       0.50000000       0.72580398 </v>
   <v>       0.75000050       0.00000000       0.72580398 </v>
   <v>       0.75000049       0.50000000       0.72580398 </v>
   <v>       0.77517966       0.55510311       0.52017472 </v>
   <v>       0.72123533       0.47613116       0.52543096 </v>
   <v>       0.87088641       0.50102596       0.54132647 </v>
   <v>       0.85627676       0.48178453       0.56838932 </v>
   <v>       0.74323745       0.64030836       0.55955595 </v>
   <v>       0.80723311       0.59857041       0.57752903 </v>
   <v>       0.66712132       0.54908534       0.56996166 </v>
   <v>       0.67684791       0.45765007       0.56078569 </v>
   <v>       0.61614538       0.55419383       0.53782425 </v>
   <v>       0.67135455       0.63545277       0.53562184 </v>
   <v>       0.60638129       0.64424813       0.50446104 </v>
   <v>       0.68667334       0.60077614       0.49494595 </v>
   <v>       0.79067875       0.39137659       0.53068683 </v>
   <v>       0.77781999       0.36952671       0.55784711 </v>
   <v>       0.86657974       0.36757953       0.54640738 </v>
   <v>       0.86404780       0.69483609       0.55570758 </v>
   <v>       0.84504089       0.64747956       0.53164772 </v>
   <v>       0.90788018       0.60834902       0.55070365 </v>
   <v>       0.75925091       0.52881113       0.59950327 </v>
   <v>       0.77617411       0.43704273       0.59033054 </v>
   <v>       0.68767426       0.46338680       0.59968275 </v>
   <v>       0.53445800       0.52965922       0.50344722 </v>
   <v>       0.57672819       0.54731149       0.47848074 </v>
   <v>       0.69553296       0.47600350       0.46813944 </v>
   <v>       0.56166689       0.41880049       0.52320572 </v>
   <v>       0.76120469       0.35524963       0.47134699 </v>
   <v>       0.62946479       0.29896607       0.52623587 </v>
   <v>       0.72932845       0.26739668       0.50089526 </v>
   <v>       0.02037336       0.25071784       0.55857119 </v>
   <v>       0.03313748       0.75764012       0.56046201 </v>
   <v>       0.46266877       0.22871571       0.55392799 </v>
   <v>       0.50067524       0.76117218       0.55712181 </v>
   <v>       0.23960800       0.52749541       0.55854952 </v>
   <v>       0.24983418       0.01022662       0.55478656 </v>
   <v>       0.76939457       0.98044617       0.56193216 </v>
   <v>       0.00990784       0.24464755       0.65014707 </v>
   <v>       0.00585855       0.76057013       0.65222133 </v>
   <v>       0.48916618       0.23360534       0.65356956 </v>
   <v>       0.49650960       0.75722096       0.64919735 </v>
   <v>       0.25787072       0.49627845       0.64881294 </v>
   <v>       0.25220523       0.99882156       0.64674392 </v>
   <v>       0.77530576       0.48862595       0.65429859 </v>
   <v>       0.75648005       0.99738324       0.64991551 </v>
   <v>       0.49998898       0.24999498       0.74327702 </v>
   <v>       0.49998903       0.74999496       0.74327702 </v>
   <v>       0.99998898       0.24999498       0.74327702 </v>
   <v>       0.99998903       0.74999496       0.74327702 </v>
   <v>       0.25000050       0.00000100       0.74325596 </v>
   <v>       0.25000052       0.50000100       0.74325596 </v>
   <v>       0.75000050       0.00000100       0.74325596 </v>
   <v>       0.75000049       0.50000100       0.74325596 </v>
   <v>       0.62402257       0.45634390       0.49577580 </v>
   <v>       0.67999476       0.43677156       0.48114396 </v>
   <v>       0.60507340       0.40500418       0.51171310 </v>
   <v>       0.71770677       0.36981193       0.48294514 </v>
   <v>       0.64275653       0.33786623       0.51344846 </v>
   <v>       0.69983238       0.32012103       0.49926475 </v>
   <v>       0.73162684       0.53325616       0.53049362 </v>
   <v>       0.83113949       0.47696389       0.55248917 </v>
   <v>       0.79182749       0.60466310       0.56061201 </v>
   <v>       0.70673913       0.50349172       0.56848748 </v>
   <v>       0.66142044       0.57972421       0.52852264 </v>
   <v>       0.63772695       0.59247375       0.50509343 </v>
   <v>       0.81409329       0.39785664       0.54669840 </v>
   <v>       0.85625196       0.63947833       0.54871082 </v>
   <v>       0.73529250       0.48240031       0.59041289 </v>
   <v>       0.58865913       0.53173702       0.49512772 </v>
   <v>       0.00310335       0.18837871       0.56766237 </v>
   <v>       0.03239237       0.69659383       0.57179643 </v>
   <v>       0.53382544       0.22108753       0.55790950 </v>
   <v>       0.47947224       0.69758537       0.56526052 </v>
   <v>       0.42309443       0.28566516       0.55940193 </v>
   <v>       0.46449667       0.82376850       0.55917263 </v>
   <v>       0.99826451       0.31586157       0.56520729 </v>
   <v>       0.98687766       0.81270353       0.56349295 </v>
   <v>       0.24345728       0.45761928       0.56438638 </v>
   <v>       0.18990743       0.97281281       0.55980630 </v>
   <v>       0.69781583       0.98727167       0.56389593 </v>
   <v>       0.31575796       0.99374718       0.56177923 </v>
   <v>       0.29353881       0.57523630       0.56024621 </v>
   <v>       0.81733907       0.03102349       0.56767696 </v>
   <v>       0.05534750       0.19126645       0.65654129 </v>
   <v>       0.05895078       0.71467562       0.65816838 </v>
   <v>       0.56051325       0.22051676       0.65500369 </v>
   <v>       0.53210626       0.70640824       0.66012666 </v>
   <v>       0.21143931       0.44948828       0.65747544 </v>
   <v>       0.20777259       0.95592741       0.65790069 </v>
   <v>       0.71592678       0.45791796       0.66233932 </v>
   <v>       0.70584291       0.95599915       0.65915937 </v>
   <v>       0.45577200       0.29293425       0.66037732 </v>
   <v>       0.45360934       0.80812264       0.65758514 </v>
   <v>       0.96885360       0.28534107       0.66257436 </v>
   <v>       0.94079035       0.76485207       0.66107760 </v>
   <v>       0.30134162       0.04447161       0.65462440 </v>
   <v>       0.29931484       0.54406116       0.65925839 </v>
   <v>       0.79610884       0.04833015       0.65933311 </v>
   <v>       0.79156008       0.55924219       0.65566361 </v>
   <v>       0.04586250       0.20411950       0.75272599 </v>
   <v>       0.04586250       0.70411946       0.75272599 </v>
   <v>       0.54586251       0.20411950       0.75272599 </v>
   <v>       0.54586250       0.70411946       0.75272599 </v>
   <v>       0.20411900       0.45410100       0.75270499 </v>
   <v>       0.20411899       0.95410095       0.75270499 </v>
   <v>       0.70411898       0.45410100       0.75270499 </v>
   <v>       0.70411896       0.95410095       0.75270499 </v>
   <v>       0.45414002       0.29588849       0.75272697 </v>
   <v>       0.45414001       0.79588852       0.75272697 </v>
   <v>       0.95414002       0.29588849       0.75272697 </v>
   <v>       0.95414006       0.79588852       0.75272697 </v>
   <v>       0.29588249       0.04590050       0.75270499 </v>
   <v>       0.29588248       0.54590053       0.75270499 </v>
   <v>       0.79588244       0.04590050       0.75270499 </v>
   <v>       0.79588248       0.54590053       0.75270499 </v>
   <v>       0.76573606       0.52930436       0.55279520 </v>
   <v>       0.50573813       0.01945633       0.55145246 </v>
   <v>       0.47601262       0.49986119       0.55511909 </v>
   <v>       0.00082110       0.00209148       0.54971908 </v>
   <v>       0.03995735       0.50455116       0.55302535 </v>
   <v>       0.23099850       0.24105639       0.55186960 </v>
   <v>       0.24973801       0.76806465       0.55351104 </v>
   <v>       0.73544368       0.20206985       0.55530235 </v>
   <v>       0.70518135       0.79230735       0.55268495 </v>
   <v>       0.00184429       0.98173744       0.65403963 </v>
   <v>       0.00492177       0.49635664       0.65525148 </v>
   <v>       0.50278520       0.01325579       0.65419909 </v>
   <v>       0.51501203       0.48774143       0.65496041 </v>
   <v>       0.26036554       0.24562149       0.65446782 </v>
   <v>       0.25140477       0.75513091       0.65471799 </v>
   <v>       0.75519111       0.26336429       0.65471616 </v>
   <v>       0.74498704       0.75392041       0.65409231 </v>
   <v>       0.13443280       0.10766585       0.60805808 </v>
   <v>       0.14826203       0.60641926       0.60995183 </v>
   <v>       0.64808819       0.10514391       0.61033094 </v>
   <v>       0.61729843       0.63245935       0.61219508 </v>
   <v>       0.36016195       0.38349147       0.60622874 </v>
   <v>       0.37194219       0.88268013       0.60762709 </v>
   <v>       0.89246759       0.36415943       0.61203019 </v>
   <v>       0.87226625       0.87067762       0.60711014 </v>
   <v>       0.12510308       0.36526396       0.61010982 </v>
   <v>       0.12502526       0.87105882       0.60703719 </v>
   <v>       0.58568887       0.33317185       0.60224161 </v>
   <v>       0.61718840       0.87331503       0.61146416 </v>
   <v>       0.38618279       0.13433254       0.60589407 </v>
   <v>       0.38388590       0.62840760       0.61157386 </v>
   <v>       0.88603834       0.13420008       0.61191182 </v>
   <v>       0.90407987       0.64037969       0.61283125 </v>
   <v>       0.00000000       0.00000000       0.75492797 </v>
   <v>       0.00000000       0.50000000       0.75492797 </v>
   <v>       0.50000000       0.00000000       0.75492797 </v>
   <v>       0.49999999       0.50000000       0.75492797 </v>
   <v>       0.25000050       0.25000000       0.75493902 </v>
   <v>       0.25000051       0.74999997       0.75493902 </v>
   <v>       0.75000047       0.25000000       0.75493902 </v>
   <v>       0.75000046       0.74999997       0.75493902 </v>
   <v>       0.13579050       0.11421000       0.70478299 </v>
   <v>       0.13579050       0.61420998       0.70478299 </v>
   <v>       0.63579045       0.11421000       0.70478299 </v>
   <v>       0.63579049       0.61420998       0.70478299 </v>
   <v>       0.36420952       0.38578999       0.70478299 </v>
   <v>       0.36420950       0.88578996       0.70478299 </v>
   <v>       0.86420954       0.38578999       0.70478299 </v>
   <v>       0.86420953       0.88578996       0.70478299 </v>
   <v>       0.11421799       0.36421899       0.70478098 </v>
   <v>       0.11421799       0.86421899       0.70478098 </v>
   <v>       0.61421800       0.36421899       0.70478098 </v>
   <v>       0.61421799       0.86421899       0.70478098 </v>
   <v>       0.38578201       0.13578149       0.70478202 </v>
   <v>       0.38578200       0.63578149       0.70478202 </v>
   <v>       0.88578199       0.13578149       0.70478202 </v>
   <v>       0.88578203       0.63578149       0.70478202 </v>
   <v>       0.13466700       0.11533200       0.80125603 </v>
   <v>       0.13466699       0.61533199       0.80125603 </v>
   <v>       0.63466699       0.11533200       0.80125603 </v>
   <v>       0.63466698       0.61533199       0.80125603 </v>
   <v>       0.36533300       0.38466799       0.80125603 </v>
   <v>       0.36533299       0.88466796       0.80125603 </v>
   <v>       0.86533295       0.38466799       0.80125603 </v>
   <v>       0.86533294       0.88466796       0.80125603 </v>
   <v>       0.11532850       0.36533700       0.80126500 </v>
   <v>       0.11532850       0.86533698       0.80126500 </v>
   <v>       0.61532850       0.36533700       0.80126500 </v>
   <v>       0.61532849       0.86533698       0.80126500 </v>
   <v>       0.38467151       0.13466300       0.80126500 </v>
   <v>       0.38467150       0.63466297       0.80126500 </v>
   <v>       0.88467149       0.13466300       0.80126500 </v>
   <v>       0.88467153       0.63466297       0.80126500 </v>
   <v>       0.99705434       0.99756085       0.60542065 </v>
   <v>       0.00917741       0.50107417       0.60547303 </v>
   <v>       0.50128580       0.00708976       0.60379026 </v>
   <v>       0.49803729       0.49265911       0.60478875 </v>
   <v>       0.24472686       0.24336618       0.60235827 </v>
   <v>       0.24842517       0.74554575       0.60404843 </v>
   <v>       0.74193297       0.24780673       0.60281729 </v>
   <v>       0.73459190       0.75715670       0.60206616 </v>
   <v>       0.00000050       0.00000050       0.70482896 </v>
   <v>       0.00000050       0.50000048       0.70482896 </v>
   <v>       0.50000048       0.00000050       0.70482896 </v>
   <v>       0.50000046       0.50000048       0.70482896 </v>
   <v>       0.24999999       0.24999947       0.70482499 </v>
   <v>       0.25000001       0.74999950       0.70482499 </v>
   <v>       0.74999999       0.24999947       0.70482499 </v>
   <v>       0.74999998       0.74999950       0.70482499 </v>
   <v>       0.00000000       0.00000000       0.80731797 </v>
   <v>       0.00000000       0.50000000       0.80731797 </v>
   <v>       0.50000000       0.00000000       0.80731797 </v>
   <v>       0.49999999       0.50000000       0.80731797 </v>
   <v>       0.24999999       0.25000000       0.80731797 </v>
   <v>       0.25000001       0.74999997       0.80731797 </v>
   <v>       0.74999999       0.25000000       0.80731797 </v>
   <v>       0.74999998       0.74999997       0.80731797 </v>
  </varray>
 </structure>
</modeling>
