<?xml version="1.0" encoding="ISO-8859-1"?>
<modeling>
 <generator>
  <i name="program" type="string">vasp </i>
  <i name="version" type="string">6.2.1  </i>
  <i name="subversion" type="string">16May21 (build Nov 15 2021 14:57:28) complex                          parallel </i>
  <i name="platform" type="string">LinuxPGI </i>
  <i name="date" type="string">2023 07 24 </i>
  <i name="time" type="string">21:13:09 </i>
 </generator>
 <incar>
  <i type="string" name="SYSTEM">PSC</i>
  <i type="int" name="ISTART">     1</i>
  <i type="string" name="PREC">Normal</i>
  <i name="BMIX">      0.01000000</i>
  <i name="AMIN">      0.01000000</i>
  <i type="int" name="ICHARG">     1</i>
  <i type="int" name="NELM">   600</i>
  <i type="int" name="ISYM">     0</i>
  <i name="ENCUT">    500.00000000</i>
  <i type="string" name="LREAL">Auto</i>
  <i type="int" name="ISMEAR">     0</i>
  <i name="SIGMA">      0.05000000</i>
  <i type="logical" name="LWAVE"> F  </i>
  <i type="logical" name="LVTOT"> T  </i>
  <i type="logical" name="GGA_COMPAT"> F  </i>
  <i type="logical" name="LDIPOL"> T  </i>
  <i type="int" name="IDIPOL">     3</i>
  <i type="int" name="IVDW">    12</i>
 </incar>
 <primitive_cell>
  <structure name="primitive_cell" >
   <crystal>
    <varray name="basis" >
     <v>      18.06080055       0.00000000       0.00000000 </v>
     <v>      -0.00491865      18.06279945       0.00000000 </v>
     <v>       0.00000000       0.00000000      62.48749924 </v>
    </varray>
    <i name="volume">  20385.21054034 </i>
    <varray name="rec_basis" >
     <v>       0.05536853       0.00001508      -0.00000000 </v>
     <v>       0.00000000       0.05536240       0.00000000 </v>
     <v>       0.00000000      -0.00000000       0.01600320 </v>
    </varray>
   </crystal>
   <varray name="positions" >
    <v>       0.45400288       0.30534876       0.58135029 </v>
    <v>       0.44568241       0.80887115       0.58037420 </v>
    <v>       0.95746263       0.30986283       0.57670800 </v>
    <v>       0.96770639       0.81387379       0.58112533 </v>
    <v>       0.31362505       0.03956182       0.58104426 </v>
    <v>       0.30198166       0.55278651       0.58105817 </v>
    <v>       0.78660377       0.05665110       0.58245347 </v>
    <v>       0.07624732       0.15143313       0.56132767 </v>
    <v>       0.07133582       0.66241587       0.55600226 </v>
    <v>       0.58663314       0.18418671       0.55717620 </v>
    <v>       0.56711419       0.66807146       0.55874799 </v>
    <v>       0.33434489       0.06967657       0.55556467 </v>
    <v>       0.32070952       0.58439090       0.55558714 </v>
    <v>       0.82265584       0.08251919       0.55800644 </v>
    <v>       0.03915637       0.19467387       0.58394797 </v>
    <v>       0.05377116       0.70358414       0.58054513 </v>
    <v>       0.56317370       0.22555028       0.58111947 </v>
    <v>       0.52920119       0.70046960       0.58260023 </v>
    <v>       0.20318512       0.44631920       0.58230220 </v>
    <v>       0.19964735       0.94946302       0.58260292 </v>
    <v>       0.69763316       0.94219562       0.58071771 </v>
    <v>       0.40539824       0.31717138       0.55714494 </v>
    <v>       0.43262869       0.84872899       0.55488613 </v>
    <v>       0.94640345       0.32768514       0.54963941 </v>
    <v>       0.93097460       0.83810767       0.55700405 </v>
    <v>       0.16933009       0.42119663       0.55751330 </v>
    <v>       0.15930134       0.93228195       0.55805009 </v>
    <v>       0.68664104       0.90629214       0.55527189 </v>
    <v>       0.48902713       0.23915071       0.53856432 </v>
    <v>       0.50967840       0.75980694       0.53828204 </v>
    <v>       0.01731819       0.23613960       0.53706793 </v>
    <v>       0.99405407       0.74788157       0.53762438 </v>
    <v>       0.24050141       0.50626054       0.53808571 </v>
    <v>       0.23834761       0.00527489       0.53848099 </v>
    <v>       0.76463016       0.99169721       0.53835438 </v>
    <v>       0.45231211       0.30478857       0.67543301 </v>
    <v>       0.45192735       0.79382465       0.67524468 </v>
    <v>       0.94256192       0.30422496       0.67206741 </v>
    <v>       0.94697282       0.80365036       0.67541250 </v>
    <v>       0.29567250       0.05153814       0.67529644 </v>
    <v>       0.29780605       0.54934843       0.67486228 </v>
    <v>       0.80290400       0.05234926       0.67412678 </v>
    <v>       0.80337612       0.56267784       0.67550981 </v>
    <v>       0.07829473       0.17162857       0.65099440 </v>
    <v>       0.07865775       0.67090780       0.65077958 </v>
    <v>       0.57401774       0.16674977       0.64986881 </v>
    <v>       0.57383078       0.66977313       0.64634229 </v>
    <v>       0.16955953       0.42079067       0.64816773 </v>
    <v>       0.17228743       0.91888437       0.64774607 </v>
    <v>       0.67852147       0.41945072       0.65282845 </v>
    <v>       0.66578051       0.92585460       0.64963476 </v>
    <v>       0.04450053       0.20410165       0.67608145 </v>
    <v>       0.04552768       0.69943868       0.67645140 </v>
    <v>       0.55165463       0.20215558       0.67514212 </v>
    <v>       0.55171868       0.69250343       0.67217692 </v>
    <v>       0.19835100       0.44861501       0.67380921 </v>
    <v>       0.19886074       0.94696598       0.67371745 </v>
    <v>       0.70205830       0.45909736       0.67667276 </v>
    <v>       0.69673449       0.95729401       0.67490208 </v>
    <v>       0.41793620       0.33091697       0.65010104 </v>
    <v>       0.41686233       0.82890419       0.65093720 </v>
    <v>       0.91937418       0.32727796       0.64620805 </v>
    <v>       0.92166178       0.83613135       0.64984134 </v>
    <v>       0.32652776       0.08533763       0.65032392 </v>
    <v>       0.32928325       0.58114637       0.64967004 </v>
    <v>       0.83515084       0.07706598       0.64845563 </v>
    <v>       0.83336241       0.57798089       0.64954459 </v>
    <v>       0.00465667       0.24409537       0.63049073 </v>
    <v>       0.00301114       0.75381947       0.63195434 </v>
    <v>       0.49133502       0.24284723       0.63300863 </v>
    <v>       0.49277242       0.75156326       0.63052406 </v>
    <v>       0.24965548       0.00297524       0.63123697 </v>
    <v>       0.25055809       0.50231676       0.63106384 </v>
    <v>       0.75027821       0.99907257       0.63126811 </v>
    <v>       0.76338663       0.49290531       0.63337381 </v>
    <v>       0.44874502       0.30128397       0.76888902 </v>
    <v>       0.44874501       0.80128391       0.76888902 </v>
    <v>       0.94874497       0.30128397       0.76888902 </v>
    <v>       0.94874501       0.80128391       0.76888902 </v>
    <v>       0.30127600       0.05129450       0.76887296 </v>
    <v>       0.30127601       0.55129450       0.76887296 </v>
    <v>       0.80127594       0.05129450       0.76887296 </v>
    <v>       0.80127598       0.55129450       0.76887296 </v>
    <v>       0.07877100       0.17118050       0.74344197 </v>
    <v>       0.07877101       0.67118045       0.74344197 </v>
    <v>       0.57877100       0.17118050       0.74344197 </v>
    <v>       0.57877099       0.67118045       0.74344197 </v>
    <v>       0.17119950       0.42117448       0.74342103 </v>
    <v>       0.17119950       0.92117451       0.74342103 </v>
    <v>       0.67119951       0.42117448       0.74342103 </v>
    <v>       0.67119950       0.92117451       0.74342103 </v>
    <v>       0.05125600       0.19871499       0.76888902 </v>
    <v>       0.05125600       0.69871493       0.76888902 </v>
    <v>       0.55125603       0.19871499       0.76888902 </v>
    <v>       0.55125602       0.69871493       0.76888902 </v>
    <v>       0.19872349       0.44870397       0.76887205 </v>
    <v>       0.19872349       0.94870397       0.76887205 </v>
    <v>       0.69872352       0.44870397       0.76887205 </v>
    <v>       0.69872351       0.94870397       0.76887205 </v>
    <v>       0.42123152       0.32881747       0.74344197 </v>
    <v>       0.42123151       0.82881744       0.74344197 </v>
    <v>       0.92123147       0.32881747       0.74344197 </v>
    <v>       0.92123151       0.82881744       0.74344197 </v>
    <v>       0.32880050       0.07882500       0.74342103 </v>
    <v>       0.32880049       0.57882496       0.74342103 </v>
    <v>       0.82880048       0.07882500       0.74342103 </v>
    <v>       0.82880052       0.57882496       0.74342103 </v>
    <v>       0.00000350       0.25000148       0.72582199 </v>
    <v>       0.00000350       0.75000145       0.72582199 </v>
    <v>       0.50000351       0.25000148       0.72582199 </v>
    <v>       0.50000350       0.75000145       0.72582199 </v>
    <v>       0.25000050       0.00000000       0.72580398 </v>
    <v>       0.25000052       0.50000000       0.72580398 </v>
    <v>       0.75000050       0.00000000       0.72580398 </v>
    <v>       0.75000049       0.50000000       0.72580398 </v>
    <v>       0.78924038       0.56802672       0.53037751 </v>
    <v>       0.73829016       0.48514325       0.53201229 </v>
    <v>       0.87527177       0.50537750       0.55204895 </v>
    <v>       0.84974828       0.47746177       0.57846549 </v>
    <v>       0.74282157       0.63974786       0.56999548 </v>
    <v>       0.80493156       0.58848409       0.58766905 </v>
    <v>       0.65321497       0.53760062       0.57407191 </v>
    <v>       0.67975902       0.45182658       0.56241504 </v>
    <v>       0.62611304       0.55221561       0.54364554 </v>
    <v>       0.67740954       0.63528799       0.54535944 </v>
    <v>       0.63212667       0.66233076       0.51365620 </v>
    <v>       0.70461604       0.61064830       0.50377508 </v>
    <v>       0.82115453       0.39548594       0.53645599 </v>
    <v>       0.75587091       0.38574672       0.55857437 </v>
    <v>       0.84789950       0.36553259       0.56297997 </v>
    <v>       0.86919276       0.68743813       0.56335822 </v>
    <v>       0.85264307       0.62576429       0.54205068 </v>
    <v>       0.91298360       0.60005233       0.56399165 </v>
    <v>       0.77112913       0.49840171       0.59978519 </v>
    <v>       0.73953555       0.40727293       0.59392940 </v>
    <v>       0.68027753       0.47190587       0.60734120 </v>
    <v>       0.55105385       0.54967841       0.51279061 </v>
    <v>       0.58481457       0.57015944       0.48692085 </v>
    <v>       0.71342713       0.50432603       0.47988721 </v>
    <v>       0.55945565       0.42603063       0.52675453 </v>
    <v>       0.77387333       0.38227612       0.47957087 </v>
    <v>       0.61905147       0.30521592       0.52702625 </v>
    <v>       0.72942866       0.28287182       0.50307761 </v>
    <v>       0.01010782       0.24103569       0.55434537 </v>
    <v>       0.00224204       0.75073048       0.55561510 </v>
    <v>       0.49814038       0.24883209       0.55613962 </v>
    <v>       0.50118950       0.75693991       0.55551925 </v>
    <v>       0.24364875       0.50155341       0.55576454 </v>
    <v>       0.24521268       0.00012841       0.55607210 </v>
    <v>       0.75589917       0.99566865       0.55590605 </v>
    <v>       0.99960067       0.24868404       0.64868071 </v>
    <v>       0.00109268       0.75267708       0.65015158 </v>
    <v>       0.49686544       0.24766164       0.64990416 </v>
    <v>       0.49568434       0.74909064       0.64863590 </v>
    <v>       0.25041952       0.50157089       0.64908472 </v>
    <v>       0.24847917       0.00112131       0.64923770 </v>
    <v>       0.75592749       0.49848655       0.65094789 </v>
    <v>       0.74955278       0.00077501       0.64924186 </v>
    <v>       0.49998898       0.24999498       0.74327702 </v>
    <v>       0.49998903       0.74999496       0.74327702 </v>
    <v>       0.99998898       0.24999498       0.74327702 </v>
    <v>       0.99998903       0.74999496       0.74327702 </v>
    <v>       0.25000050       0.00000100       0.74325596 </v>
    <v>       0.25000052       0.50000100       0.74325596 </v>
    <v>       0.75000050       0.00000100       0.74325596 </v>
    <v>       0.75000049       0.50000100       0.74325596 </v>
    <v>       0.63049646       0.47538191       0.50216685 </v>
    <v>       0.69062005       0.46181538       0.48912914 </v>
    <v>       0.60492510       0.41789332       0.51507116 </v>
    <v>       0.72727859       0.39021948       0.48926278 </v>
    <v>       0.64094575       0.34684902       0.51594493 </v>
    <v>       0.70203069       0.33384431       0.50296309 </v>
    <v>       0.74359495       0.54072202       0.53819761 </v>
    <v>       0.83112139       0.48091785       0.56154377 </v>
    <v>       0.78950919       0.59977224       0.57096356 </v>
    <v>       0.69729683       0.49663547       0.57306616 </v>
    <v>       0.67057385       0.58561026       0.53642699 </v>
    <v>       0.65550291       0.60651403       0.51325866 </v>
    <v>       0.81237801       0.40326827       0.55377617 </v>
    <v>       0.86075718       0.62889065       0.55955418 </v>
    <v>       0.72304128       0.46767276       0.59480030 </v>
    <v>       0.59961771       0.55341618       0.50309296 </v>
    <v>       0.04530576       0.19232665       0.56764857 </v>
    <v>       0.04466967       0.70180686       0.56497482 </v>
    <v>       0.55406039       0.21741648       0.56563706 </v>
    <v>       0.53434879       0.70450451       0.56623673 </v>
    <v>       0.44806400       0.29408640       0.56596940 </v>
    <v>       0.45494802       0.80893383       0.56484680 </v>
    <v>       0.96818763       0.29576777       0.56147967 </v>
    <v>       0.96559260       0.80355501       0.56536717 </v>
    <v>       0.20296204       0.45339705       0.56548328 </v>
    <v>       0.19842953       0.95796847       0.56586422 </v>
    <v>       0.70997353       0.94441946       0.56424457 </v>
    <v>       0.30168627       0.03944885       0.56449853 </v>
    <v>       0.29225004       0.54985170       0.56442136 </v>
    <v>       0.79111127       0.04783674       0.56576178 </v>
    <v>       0.04178765       0.20717796       0.65913013 </v>
    <v>       0.04315694       0.70720707       0.65958395 </v>
    <v>       0.54161814       0.20442216       0.65927981 </v>
    <v>       0.54416413       0.70007109       0.65647347 </v>
    <v>       0.20347865       0.45203477       0.65821405 </v>
    <v>       0.20591544       0.95502283       0.65827613 </v>
    <v>       0.70938411       0.45656454       0.66091680 </v>
    <v>       0.70328778       0.96099282       0.65930020 </v>
    <v>       0.45191374       0.29889162       0.65977008 </v>
    <v>       0.45188026       0.79388289       0.65942315 </v>
    <v>       0.94948600       0.29757448       0.65650338 </v>
    <v>       0.95448437       0.80066755       0.65862502 </v>
    <v>       0.29415660       0.05021998       0.65957431 </v>
    <v>       0.29305705       0.54457763       0.65924032 </v>
    <v>       0.80016294       0.04739499       0.65847442 </v>
    <v>       0.80170738       0.55087006       0.65902781 </v>
    <v>       0.04586250       0.20411950       0.75272599 </v>
    <v>       0.04586250       0.70411946       0.75272599 </v>
    <v>       0.54586251       0.20411950       0.75272599 </v>
    <v>       0.54586250       0.70411946       0.75272599 </v>
    <v>       0.20411900       0.45410100       0.75270499 </v>
    <v>       0.20411899       0.95410095       0.75270499 </v>
    <v>       0.70411898       0.45410100       0.75270499 </v>
    <v>       0.70411896       0.95410095       0.75270499 </v>
    <v>       0.45414002       0.29588849       0.75272697 </v>
    <v>       0.45414001       0.79588852       0.75272697 </v>
    <v>       0.95414002       0.29588849       0.75272697 </v>
    <v>       0.95414006       0.79588852       0.75272697 </v>
    <v>       0.29588249       0.04590050       0.75270499 </v>
    <v>       0.29588248       0.54590053       0.75270499 </v>
    <v>       0.79588244       0.04590050       0.75270499 </v>
    <v>       0.79588248       0.54590053       0.75270499 </v>
    <v>       0.76409019       0.52724536       0.56070236 </v>
    <v>       0.50064221       0.00741969       0.55257744 </v>
    <v>       0.48460543       0.51452665       0.55615274 </v>
    <v>       0.00073569       0.00235342       0.55171148 </v>
    <v>       0.01630073       0.48403403       0.54937056 </v>
    <v>       0.25366533       0.24845720       0.55228466 </v>
    <v>       0.25184707       0.75132789       0.55277743 </v>
    <v>       0.75815415       0.23397801       0.55503936 </v>
    <v>       0.73776705       0.76517256       0.54862701 </v>
    <v>       0.99890637       0.00498835       0.65412583 </v>
    <v>       0.00354842       0.49977535       0.65320456 </v>
    <v>       0.49993441       0.99723872       0.65494356 </v>
    <v>       0.49726445       0.50174422       0.65576611 </v>
    <v>       0.25153678       0.24870817       0.65474344 </v>
    <v>       0.24906376       0.75244345       0.65432057 </v>
    <v>       0.74991505       0.24714143       0.65516345 </v>
    <v>       0.74692302       0.75213812       0.65467757 </v>
    <v>       0.14576106       0.10759363       0.60921389 </v>
    <v>       0.14684156       0.60588928       0.60822669 </v>
    <v>       0.64660562       0.10646157       0.60826424 </v>
    <v>       0.62940961       0.62081455       0.61142674 </v>
    <v>       0.35266891       0.39124143       0.60879248 </v>
    <v>       0.35775378       0.89573520       0.60870744 </v>
    <v>       0.87301482       0.37752752       0.61172605 </v>
    <v>       0.85709147       0.89649697       0.60815148 </v>
    <v>       0.10951401       0.35465606       0.60795204 </v>
    <v>       0.10559982       0.85776188       0.60876318 </v>
    <v>       0.59164484       0.34204142       0.60805320 </v>
    <v>       0.60434139       0.86065361       0.60895664 </v>
    <v>       0.39518874       0.14211832       0.60804294 </v>
    <v>       0.39111136       0.64509627       0.60889980 </v>
    <v>       0.89152045       0.14327843       0.60785894 </v>
    <v>       0.90779911       0.65851180       0.61180163 </v>
    <v>       0.00000000       0.00000000       0.75492797 </v>
    <v>       0.00000000       0.50000000       0.75492797 </v>
    <v>       0.50000000       0.00000000       0.75492797 </v>
    <v>       0.49999999       0.50000000       0.75492797 </v>
    <v>       0.25000050       0.25000000       0.75493902 </v>
    <v>       0.25000051       0.74999997       0.75493902 </v>
    <v>       0.75000047       0.25000000       0.75493902 </v>
    <v>       0.75000046       0.74999997       0.75493902 </v>
    <v>       0.13579050       0.11421000       0.70478299 </v>
    <v>       0.13579050       0.61420998       0.70478299 </v>
    <v>       0.63579045       0.11421000       0.70478299 </v>
    <v>       0.63579049       0.61420998       0.70478299 </v>
    <v>       0.36420952       0.38578999       0.70478299 </v>
    <v>       0.36420950       0.88578996       0.70478299 </v>
    <v>       0.86420954       0.38578999       0.70478299 </v>
    <v>       0.86420953       0.88578996       0.70478299 </v>
    <v>       0.11421799       0.36421899       0.70478098 </v>
    <v>       0.11421799       0.86421899       0.70478098 </v>
    <v>       0.61421800       0.36421899       0.70478098 </v>
    <v>       0.61421799       0.86421899       0.70478098 </v>
    <v>       0.38578201       0.13578149       0.70478202 </v>
    <v>       0.38578200       0.63578149       0.70478202 </v>
    <v>       0.88578199       0.13578149       0.70478202 </v>
    <v>       0.88578203       0.63578149       0.70478202 </v>
    <v>       0.13466700       0.11533200       0.80125603 </v>
    <v>       0.13466699       0.61533199       0.80125603 </v>
    <v>       0.63466699       0.11533200       0.80125603 </v>
    <v>       0.63466698       0.61533199       0.80125603 </v>
    <v>       0.36533300       0.38466799       0.80125603 </v>
    <v>       0.36533299       0.88466796       0.80125603 </v>
    <v>       0.86533295       0.38466799       0.80125603 </v>
    <v>       0.86533294       0.88466796       0.80125603 </v>
    <v>       0.11532850       0.36533700       0.80126500 </v>
    <v>       0.11532850       0.86533698       0.80126500 </v>
    <v>       0.61532850       0.36533700       0.80126500 </v>
    <v>       0.61532849       0.86533698       0.80126500 </v>
    <v>       0.38467151       0.13466300       0.80126500 </v>
    <v>       0.38467150       0.63466297       0.80126500 </v>
    <v>       0.88467149       0.13466300       0.80126500 </v>
    <v>       0.88467153       0.63466297       0.80126500 </v>
    <v>       0.99868588       0.99815444       0.60326287 </v>
    <v>       0.00078752       0.50383449       0.60310830 </v>
    <v>       0.49569057       0.99989297       0.60282449 </v>
    <v>       0.49735744       0.50060047       0.60438028 </v>
    <v>       0.24892550       0.25088196       0.60288902 </v>
    <v>       0.24774629       0.74713955       0.60222024 </v>
    <v>       0.75068942       0.24640522       0.60418884 </v>
    <v>       0.74834528       0.75813388       0.60442857 </v>
    <v>       0.00000050       0.00000050       0.70482896 </v>
    <v>       0.00000050       0.50000048       0.70482896 </v>
    <v>       0.50000048       0.00000050       0.70482896 </v>
    <v>       0.50000046       0.50000048       0.70482896 </v>
    <v>       0.24999999       0.24999947       0.70482499 </v>
    <v>       0.25000001       0.74999950       0.70482499 </v>
    <v>       0.74999999       0.24999947       0.70482499 </v>
    <v>       0.74999998       0.74999950       0.70482499 </v>
    <v>       0.00000000       0.00000000       0.80731797 </v>
    <v>       0.00000000       0.50000000       0.80731797 </v>
    <v>       0.50000000       0.00000000       0.80731797 </v>
    <v>       0.49999999       0.50000000       0.80731797 </v>
    <v>       0.24999999       0.25000000       0.80731797 </v>
    <v>       0.25000001       0.74999997       0.80731797 </v>
    <v>       0.74999999       0.25000000       0.80731797 </v>
    <v>       0.74999998       0.74999997       0.80731797 </v>
   </varray>
  </structure>
  <varray name="primitive_index" >
   <v type="int" >        1 </v>
   <v type="int" >        2 </v>
   <v type="int" >        3 </v>
   <v type="int" >        4 </v>
   <v type="int" >        5 </v>
   <v type="int" >        6 </v>
   <v type="int" >        7 </v>
   <v type="int" >        8 </v>
   <v type="int" >        9 </v>
   <v type="int" >       10 </v>
   <v type="int" >       11 </v>
   <v type="int" >       12 </v>
   <v type="int" >       13 </v>
   <v type="int" >       14 </v>
   <v type="int" >       15 </v>
   <v type="int" >       16 </v>
   <v type="int" >       17 </v>
   <v type="int" >       18 </v>
   <v type="int" >       19 </v>
   <v type="int" >       20 </v>
   <v type="int" >       21 </v>
   <v type="int" >       22 </v>
   <v type="int" >       23 </v>
   <v type="int" >       24 </v>
   <v type="int" >       25 </v>
   <v type="int" >       26 </v>
   <v type="int" >       27 </v>
   <v type="int" >       28 </v>
   <v type="int" >       29 </v>
   <v type="int" >       30 </v>
   <v type="int" >       31 </v>
   <v type="int" >       32 </v>
   <v type="int" >       33 </v>
   <v type="int" >       34 </v>
   <v type="int" >       35 </v>
   <v type="int" >       36 </v>
   <v type="int" >       37 </v>
   <v type="int" >       38 </v>
   <v type="int" >       39 </v>
   <v type="int" >       40 </v>
   <v type="int" >       41 </v>
   <v type="int" >       42 </v>
   <v type="int" >       43 </v>
   <v type="int" >       44 </v>
   <v type="int" >       45 </v>
   <v type="int" >       46 </v>
   <v type="int" >       47 </v>
   <v type="int" >       48 </v>
   <v type="int" >       49 </v>
   <v type="int" >       50 </v>
   <v type="int" >       51 </v>
   <v type="int" >       52 </v>
   <v type="int" >       53 </v>
   <v type="int" >       54 </v>
   <v type="int" >       55 </v>
   <v type="int" >       56 </v>
   <v type="int" >       57 </v>
   <v type="int" >       58 </v>
   <v type="int" >       59 </v>
   <v type="int" >       60 </v>
   <v type="int" >       61 </v>
   <v type="int" >       62 </v>
   <v type="int" >       63 </v>
   <v type="int" >       64 </v>
   <v type="int" >       65 </v>
   <v type="int" >       66 </v>
   <v type="int" >       67 </v>
   <v type="int" >       68 </v>
   <v type="int" >       69 </v>
   <v type="int" >       70 </v>
   <v type="int" >       71 </v>
   <v type="int" >       72 </v>
   <v type="int" >       73 </v>
   <v type="int" >       74 </v>
   <v type="int" >       75 </v>
   <v type="int" >       76 </v>
   <v type="int" >       77 </v>
   <v type="int" >       78 </v>
   <v type="int" >       79 </v>
   <v type="int" >       80 </v>
   <v type="int" >       81 </v>
   <v type="int" >       82 </v>
   <v type="int" >       83 </v>
   <v type="int" >       84 </v>
   <v type="int" >       85 </v>
   <v type="int" >       86 </v>
   <v type="int" >       87 </v>
   <v type="int" >       88 </v>
   <v type="int" >       89 </v>
   <v type="int" >       90 </v>
   <v type="int" >       91 </v>
   <v type="int" >       92 </v>
   <v type="int" >       93 </v>
   <v type="int" >       94 </v>
   <v type="int" >       95 </v>
   <v type="int" >       96 </v>
   <v type="int" >       97 </v>
   <v type="int" >       98 </v>
   <v type="int" >       99 </v>
   <v type="int" >      100 </v>
   <v type="int" >      101 </v>
   <v type="int" >      102 </v>
   <v type="int" >      103 </v>
   <v type="int" >      104 </v>
   <v type="int" >      105 </v>
   <v type="int" >      106 </v>
   <v type="int" >      107 </v>
   <v type="int" >      108 </v>
   <v type="int" >      109 </v>
   <v type="int" >      110 </v>
   <v type="int" >      111 </v>
   <v type="int" >      112 </v>
   <v type="int" >      113 </v>
   <v type="int" >      114 </v>
   <v type="int" >      115 </v>
   <v type="int" >      116 </v>
   <v type="int" >      117 </v>
   <v type="int" >      118 </v>
   <v type="int" >      119 </v>
   <v type="int" >      120 </v>
   <v type="int" >      121 </v>
   <v type="int" >      122 </v>
   <v type="int" >      123 </v>
   <v type="int" >      124 </v>
   <v type="int" >      125 </v>
   <v type="int" >      126 </v>
   <v type="int" >      127 </v>
   <v type="int" >      128 </v>
   <v type="int" >      129 </v>
   <v type="int" >      130 </v>
   <v type="int" >      131 </v>
   <v type="int" >      132 </v>
   <v type="int" >      133 </v>
   <v type="int" >      134 </v>
   <v type="int" >      135 </v>
   <v type="int" >      136 </v>
   <v type="int" >      137 </v>
   <v type="int" >      138 </v>
   <v type="int" >      139 </v>
   <v type="int" >      140 </v>
   <v type="int" >      141 </v>
   <v type="int" >      142 </v>
   <v type="int" >      143 </v>
   <v type="int" >      144 </v>
   <v type="int" >      145 </v>
   <v type="int" >      146 </v>
   <v type="int" >      147 </v>
   <v type="int" >      148 </v>
   <v type="int" >      149 </v>
   <v type="int" >      150 </v>
   <v type="int" >      151 </v>
   <v type="int" >      152 </v>
   <v type="int" >      153 </v>
   <v type="int" >      154 </v>
   <v type="int" >      155 </v>
   <v type="int" >      156 </v>
   <v type="int" >      157 </v>
   <v type="int" >      158 </v>
   <v type="int" >      159 </v>
   <v type="int" >      160 </v>
   <v type="int" >      161 </v>
   <v type="int" >      162 </v>
   <v type="int" >      163 </v>
   <v type="int" >      164 </v>
   <v type="int" >      165 </v>
   <v type="int" >      166 </v>
   <v type="int" >      167 </v>
   <v type="int" >      168 </v>
   <v type="int" >      169 </v>
   <v type="int" >      170 </v>
   <v type="int" >      171 </v>
   <v type="int" >      172 </v>
   <v type="int" >      173 </v>
   <v type="int" >      174 </v>
   <v type="int" >      175 </v>
   <v type="int" >      176 </v>
   <v type="int" >      177 </v>
   <v type="int" >      178 </v>
   <v type="int" >      179 </v>
   <v type="int" >      180 </v>
   <v type="int" >      181 </v>
   <v type="int" >      182 </v>
   <v type="int" >      183 </v>
   <v type="int" >      184 </v>
   <v type="int" >      185 </v>
   <v type="int" >      186 </v>
   <v type="int" >      187 </v>
   <v type="int" >      188 </v>
   <v type="int" >      189 </v>
   <v type="int" >      190 </v>
   <v type="int" >      191 </v>
   <v type="int" >      192 </v>
   <v type="int" >      193 </v>
   <v type="int" >      194 </v>
   <v type="int" >      195 </v>
   <v type="int" >      196 </v>
   <v type="int" >      197 </v>
   <v type="int" >      198 </v>
   <v type="int" >      199 </v>
   <v type="int" >      200 </v>
   <v type="int" >      201 </v>
   <v type="int" >      202 </v>
   <v type="int" >      203 </v>
   <v type="int" >      204 </v>
   <v type="int" >      205 </v>
   <v type="int" >      206 </v>
   <v type="int" >      207 </v>
   <v type="int" >      208 </v>
   <v type="int" >      209 </v>
   <v type="int" >      210 </v>
   <v type="int" >      211 </v>
   <v type="int" >      212 </v>
   <v type="int" >      213 </v>
   <v type="int" >      214 </v>
   <v type="int" >      215 </v>
   <v type="int" >      216 </v>
   <v type="int" >      217 </v>
   <v type="int" >      218 </v>
   <v type="int" >      219 </v>
   <v type="int" >      220 </v>
   <v type="int" >      221 </v>
   <v type="int" >      222 </v>
   <v type="int" >      223 </v>
   <v type="int" >      224 </v>
   <v type="int" >      225 </v>
   <v type="int" >      226 </v>
   <v type="int" >      227 </v>
   <v type="int" >      228 </v>
   <v type="int" >      229 </v>
   <v type="int" >      230 </v>
   <v type="int" >      231 </v>
   <v type="int" >      232 </v>
   <v type="int" >      233 </v>
   <v type="int" >      234 </v>
   <v type="int" >      235 </v>
   <v type="int" >      236 </v>
   <v type="int" >      237 </v>
   <v type="int" >      238 </v>
   <v type="int" >      239 </v>
   <v type="int" >      240 </v>
   <v type="int" >      241 </v>
   <v type="int" >      242 </v>
   <v type="int" >      243 </v>
   <v type="int" >      244 </v>
   <v type="int" >      245 </v>
   <v type="int" >      246 </v>
   <v type="int" >      247 </v>
   <v type="int" >      248 </v>
   <v type="int" >      249 </v>
   <v type="int" >      250 </v>
   <v type="int" >      251 </v>
   <v type="int" >      252 </v>
   <v type="int" >      253 </v>
   <v type="int" >      254 </v>
   <v type="int" >      255 </v>
   <v type="int" >      256 </v>
   <v type="int" >      257 </v>
   <v type="int" >      258 </v>
   <v type="int" >      259 </v>
   <v type="int" >      260 </v>
   <v type="int" >      261 </v>
   <v type="int" >      262 </v>
   <v type="int" >      263 </v>
   <v type="int" >      264 </v>
   <v type="int" >      265 </v>
   <v type="int" >      266 </v>
   <v type="int" >      267 </v>
   <v type="int" >      268 </v>
   <v type="int" >      269 </v>
   <v type="int" >      270 </v>
   <v type="int" >      271 </v>
   <v type="int" >      272 </v>
   <v type="int" >      273 </v>
   <v type="int" >      274 </v>
   <v type="int" >      275 </v>
   <v type="int" >      276 </v>
   <v type="int" >      277 </v>
   <v type="int" >      278 </v>
   <v type="int" >      279 </v>
   <v type="int" >      280 </v>
   <v type="int" >      281 </v>
   <v type="int" >      282 </v>
   <v type="int" >      283 </v>
   <v type="int" >      284 </v>
   <v type="int" >      285 </v>
   <v type="int" >      286 </v>
   <v type="int" >      287 </v>
   <v type="int" >      288 </v>
   <v type="int" >      289 </v>
   <v type="int" >      290 </v>
   <v type="int" >      291 </v>
   <v type="int" >      292 </v>
   <v type="int" >      293 </v>
   <v type="int" >      294 </v>
   <v type="int" >      295 </v>
   <v type="int" >      296 </v>
   <v type="int" >      297 </v>
   <v type="int" >      298 </v>
   <v type="int" >      299 </v>
   <v type="int" >      300 </v>
   <v type="int" >      301 </v>
   <v type="int" >      302 </v>
   <v type="int" >      303 </v>
   <v type="int" >      304 </v>
   <v type="int" >      305 </v>
   <v type="int" >      306 </v>
   <v type="int" >      307 </v>
   <v type="int" >      308 </v>
   <v type="int" >      309 </v>
   <v type="int" >      310 </v>
   <v type="int" >      311 </v>
   <v type="int" >      312 </v>
   <v type="int" >      313 </v>
   <v type="int" >      314 </v>
   <v type="int" >      315 </v>
   <v type="int" >      316 </v>
   <v type="int" >      317 </v>
   <v type="int" >      318 </v>
   <v type="int" >      319 </v>
   <v type="int" >      320 </v>
   <v type="int" >      321 </v>
   <v type="int" >      322 </v>
   <v type="int" >      323 </v>
   <v type="int" >      324 </v>
   <v type="int" >      325 </v>
  </varray>
 </primitive_cell>
 <kpoints>
  <generation param="Gamma">
   <v type="int" name="divisions">       3        3        1 </v>
   <v name="usershift">      0.00000000       0.00000000       0.00000000 </v>
   <v name="genvec1">      0.33333333       0.00000000       0.00000000 </v>
   <v name="genvec2">      0.00000000       0.33333333       0.00000000 </v>
   <v name="genvec3">      0.00000000       0.00000000       1.00000000 </v>
   <v name="shift">      0.00000000       0.00000000       0.00000000 </v>
  </generation>
  <varray name="kpointlist" >
   <v>       0.00000000       0.00000000       0.00000000 </v>
   <v>       0.33333333       0.00000000       0.00000000 </v>
   <v>       0.00000000       0.33333333       0.00000000 </v>
   <v>       0.33333333       0.33333333       0.00000000 </v>
   <v>      -0.33333333       0.33333333       0.00000000 </v>
  </varray>
  <varray name="weights" >
   <v>       0.11111111 </v>
   <v>       0.22222222 </v>
   <v>       0.22222222 </v>
   <v>       0.22222222 </v>
   <v>       0.22222222 </v>
  </varray>
 </kpoints>
 <parameters>
  <separator name="general" >
   <i type="string" name="SYSTEM">PSC</i>
   <i type="logical" name="LCOMPAT"> F  </i>
  </separator>
  <separator name="electronic" >
   <i type="string" name="PREC">normal</i>
   <i name="ENMAX">    500.00000000</i>
   <i name="ENAUG">    644.87300000</i>
   <i name="EDIFF">      0.00010000</i>
   <i type="int" name="IALGO">    38</i>
   <i type="int" name="IWAVPR">    10</i>
   <i type="int" name="NBANDS">   732</i>
   <i type="int" name="NBANDSLOW">    -1</i>
   <i type="int" name="NBANDSHIGH">    -1</i>
   <i name="NELECT">   1134.00000000</i>
   <i type="int" name="TURBO">     0</i>
   <i type="int" name="IRESTART">     0</i>
   <i type="int" name="NREBOOT">     0</i>
   <i type="int" name="NMIN">     0</i>
   <i name="EREF">      0.00000000</i>
   <separator name="electronic smearing" >
    <i type="int" name="ISMEAR">     0</i>
    <i name="SIGMA">      0.05000000</i>
    <i name="KSPACING">      0.50000000</i>
    <i type="logical" name="KGAMMA"> T  </i>
    <i type="logical" name="KBLOWUP"> T  </i>
   </separator>
   <separator name="electronic projectors" >
    <i type="logical" name="LREAL"> T  </i>
    <v name="ROPT">     -0.00050000     -0.00050000     -0.00050000     -0.00050000     -0.00050000</v>
    <i type="int" name="LMAXPAW">  -100</i>
    <i type="int" name="LMAXMIX">     2</i>
    <i type="logical" name="NLSPLINE"> F  </i>
   </separator>
   <separator name="electronic startup" >
    <i type="int" name="ISTART">     0</i>
    <i type="int" name="ICHARG">     1</i>
    <i type="int" name="INIWAV">     1</i>
   </separator>
   <separator name="electronic spin" >
    <i type="int" name="ISPIN">     1</i>
    <i type="logical" name="LNONCOLLINEAR"> F  </i>
    <v name="MAGMOM">      1.00000000      1.00000000      1.00000000      1.00000000      1.00000000      1.00000000      1.00000000      1.00000000      1.00000000      1.00000000      1.00000000      1.00000000      1.00000000      1.00000000      1.00000000      1.00000000      1.00000000      1.00000000      1.00000000      1.00000000
      1.00000000      1.00000000      1.00000000      1.00000000      1.00000000      1.00000000      1.00000000      1.00000000      1.00000000      1.00000000      1.00000000      1.00000000      1.00000000      1.00000000      1.00000000      1.00000000      1.00000000      1.00000000      1.00000000      1.00000000
      1.00000000      1.00000000      1.00000000      1.00000000      1.00000000      1.00000000      1.00000000      1.00000000      1.00000000      1.00000000      1.00000000      1.00000000      1.00000000      1.00000000      1.00000000      1.00000000      1.00000000      1.00000000      1.00000000      1.00000000
      1.00000000      1.00000000      1.00000000      1.00000000      1.00000000      1.00000000      1.00000000      1.00000000      1.00000000      1.00000000      1.00000000      1.00000000      1.00000000      1.00000000      1.00000000      1.00000000      1.00000000      1.00000000      1.00000000      1.00000000
      1.00000000      1.00000000      1.00000000      1.00000000      1.00000000      1.00000000      1.00000000      1.00000000      1.00000000      1.00000000      1.00000000      1.00000000      1.00000000      1.00000000      1.00000000      1.00000000      1.00000000      1.00000000      1.00000000      1.00000000
      1.00000000      1.00000000      1.00000000      1.00000000      1.00000000      1.00000000      1.00000000      1.00000000      1.00000000      1.00000000      1.00000000      1.00000000      1.00000000      1.00000000      1.00000000      1.00000000      1.00000000      1.00000000      1.00000000      1.00000000
      1.00000000      1.00000000      1.00000000      1.00000000      1.00000000      1.00000000      1.00000000      1.00000000      1.00000000      1.00000000      1.00000000      1.00000000      1.00000000      1.00000000      1.00000000      1.00000000      1.00000000      1.00000000      1.00000000      1.00000000
      1.00000000      1.00000000      1.00000000      1.00000000      1.00000000      1.00000000      1.00000000      1.00000000      1.00000000      1.00000000      1.00000000      1.00000000      1.00000000      1.00000000      1.00000000      1.00000000      1.00000000      1.00000000      1.00000000      1.00000000
      1.00000000      1.00000000      1.00000000      1.00000000      1.00000000      1.00000000      1.00000000      1.00000000      1.00000000      1.00000000      1.00000000      1.00000000      1.00000000      1.00000000      1.00000000      1.00000000      1.00000000      1.00000000      1.00000000      1.00000000
      1.00000000      1.00000000      1.00000000      1.00000000      1.00000000      1.00000000      1.00000000      1.00000000      1.00000000      1.00000000      1.00000000      1.00000000      1.00000000      1.00000000      1.00000000      1.00000000      1.00000000      1.00000000      1.00000000      1.00000000
      1.00000000      1.00000000      1.00000000      1.00000000      1.00000000      1.00000000      1.00000000      1.00000000      1.00000000      1.00000000      1.00000000      1.00000000      1.00000000      1.00000000      1.00000000      1.00000000      1.00000000      1.00000000      1.00000000      1.00000000
      1.00000000      1.00000000      1.00000000      1.00000000      1.00000000      1.00000000      1.00000000      1.00000000      1.00000000      1.00000000      1.00000000      1.00000000      1.00000000      1.00000000      1.00000000      1.00000000      1.00000000      1.00000000      1.00000000      1.00000000
      1.00000000      1.00000000      1.00000000      1.00000000      1.00000000      1.00000000      1.00000000      1.00000000      1.00000000      1.00000000      1.00000000      1.00000000      1.00000000      1.00000000      1.00000000      1.00000000      1.00000000      1.00000000      1.00000000      1.00000000
      1.00000000      1.00000000      1.00000000      1.00000000      1.00000000      1.00000000      1.00000000      1.00000000      1.00000000      1.00000000      1.00000000      1.00000000      1.00000000      1.00000000      1.00000000      1.00000000      1.00000000      1.00000000      1.00000000      1.00000000
      1.00000000      1.00000000      1.00000000      1.00000000      1.00000000      1.00000000      1.00000000      1.00000000      1.00000000      1.00000000      1.00000000      1.00000000      1.00000000      1.00000000      1.00000000      1.00000000      1.00000000      1.00000000      1.00000000      1.00000000
      1.00000000      1.00000000      1.00000000      1.00000000      1.00000000      1.00000000      1.00000000      1.00000000      1.00000000      1.00000000      1.00000000      1.00000000      1.00000000      1.00000000      1.00000000      1.00000000      1.00000000      1.00000000      1.00000000      1.00000000
      1.00000000      1.00000000      1.00000000      1.00000000      1.00000000</v>
    <i name="NUPDOWN">     -1.00000000</i>
    <i type="logical" name="LSORBIT"> F  </i>
    <v name="SAXIS">      0.00000000      0.00000000      1.00000000</v>
    <i type="logical" name="LSPIRAL"> F  </i>
    <v name="QSPIRAL">      0.00000000      0.00000000      0.00000000</v>
    <i type="logical" name="LZEROZ"> F  </i>
   </separator>
   <separator name="electronic exchange-correlation" >
    <i type="logical" name="LASPH"> F  </i>
    <i type="logical" name="LMETAGGA"> F  </i>
   </separator>
   <separator name="electronic convergence" >
    <i type="int" name="NELM">   600</i>
    <i type="int" name="NELMDL">     0</i>
    <i type="int" name="NELMIN">     2</i>
    <i name="ENINI">    500.00000000</i>
    <separator name="electronic convergence detail" >
     <i type="logical" name="LDIAG"> T  </i>
     <i type="logical" name="LSUBROT"> F  </i>
     <i name="WEIMIN">      0.00000000</i>
     <i name="EBREAK">      0.00000003</i>
     <i name="DEPER">      0.30000000</i>
     <i type="int" name="NRMM">     4</i>
     <i name="TIME">      0.40000000</i>
    </separator>
   </separator>
   <separator name="electronic mixer" >
    <i name="AMIX">      0.40000000</i>
    <i name="BMIX">      0.01000000</i>
    <i name="AMIN">      0.01000000</i>
    <i name="AMIX_MAG">      1.60000000</i>
    <i name="BMIX_MAG">      0.01000000</i>
    <separator name="electronic mixer details" >
     <i type="int" name="IMIX">     4</i>
     <i type="logical" name="MIXFIRST"> F  </i>
     <i type="int" name="MAXMIX">   -45</i>
     <i name="WC">    100.00000000</i>
     <i type="int" name="INIMIX">     1</i>
     <i type="int" name="MIXPRE">     1</i>
     <i type="int" name="MREMOVE">     5</i>
    </separator>
   </separator>
   <separator name="electronic dipolcorrection" >
    <i type="logical" name="LDIPOL"> T  </i>
    <i type="logical" name="LMONO"> F  </i>
    <i type="int" name="IDIPOL">     3</i>
    <i name="EPSILON">      1.00000000</i>
    <v name="DIPOL">   -100.00000000   -100.00000000   -100.00000000</v>
    <i name="EFIELD">      0.00000000</i>
   </separator>
  </separator>
  <separator name="grids" >
   <i type="int" name="NGX">   100</i>
   <i type="int" name="NGY">   100</i>
   <i type="int" name="NGZ">   350</i>
   <i type="int" name="NGXF">   200</i>
   <i type="int" name="NGYF">   200</i>
   <i type="int" name="NGZF">   700</i>
   <i type="logical" name="ADDGRID"> F  </i>
  </separator>
  <separator name="ionic" >
   <i type="int" name="NSW">     0</i>
   <i type="int" name="IBRION">    -1</i>
   <i type="int" name="MDALGO">     0</i>
   <i type="int" name="ISIF">     2</i>
   <i name="PSTRESS">      0.00000000</i>
   <i name="EDIFFG">      0.00100000</i>
   <i type="int" name="NFREE">     0</i>
   <i name="POTIM">      0.50000000</i>
   <i name="SMASS">     -3.00000000</i>
   <i name="SCALEE">      1.00000000</i>
  </separator>
  <separator name="ionic md" >
   <i name="TEBEG">      0.00010000</i>
   <i name="TEEND">      0.00010000</i>
   <i type="int" name="NBLOCK">     1</i>
   <i type="int" name="KBLOCK">     1</i>
   <i type="int" name="NPACO">   256</i>
   <i name="APACO">     16.00000000</i>
  </separator>
  <separator name="symmetry" >
   <i type="int" name="ISYM">     0</i>
   <i name="SYMPREC">      0.00001000</i>
  </separator>
  <separator name="dos" >
   <i type="int" name="LORBIT">     0</i>
   <v name="RWIGS">     -1.00000000     -1.00000000     -1.00000000     -1.00000000     -1.00000000</v>
   <i type="int" name="NEDOS">   301</i>
   <i name="EMIN">     10.00000000</i>
   <i name="EMAX">    -10.00000000</i>
   <i name="EFERMI">      0.00000000</i>
  </separator>
  <separator name="writing" >
   <i type="int" name="NWRITE">     2</i>
   <i type="logical" name="LWAVE"> F  </i>
   <i type="logical" name="LDOWNSAMPLE"> F  </i>
   <i type="logical" name="LCHARG"> T  </i>
   <i type="logical" name="LPARD"> F  </i>
   <i type="logical" name="LVTOT"> T  </i>
   <i type="logical" name="LVHAR"> F  </i>
   <i type="logical" name="LELF"> F  </i>
   <i type="logical" name="LOPTICS"> F  </i>
   <v name="STM">      0.00000000      0.00000000      0.00000000      0.00000000      0.00000000      0.00000000      0.00000000</v>
  </separator>
  <separator name="performance" >
   <i type="int" name="NPAR">     4</i>
   <i type="int" name="NSIM">     4</i>
   <i type="int" name="NBLK">    -1</i>
   <i type="logical" name="LPLANE"> T  </i>
   <i type="logical" name="LSCALAPACK"> T  </i>
   <i type="logical" name="LSCAAWARE"> F  </i>
   <i type="logical" name="LSCALU"> F  </i>
   <i type="logical" name="LASYNC"> F  </i>
   <i type="logical" name="LORBITALREAL"> F  </i>
  </separator>
  <separator name="miscellaneous" >
   <i type="int" name="IDIOT">     3</i>
   <i type="int" name="PHON_NSTRUCT">    -1</i>
   <i type="logical" name="LMUSIC"> F  </i>
   <v name="POMASS">      1.00000000     12.01100000     14.00100000    126.90400000    207.20000000</v>
   <v name="DARWINR">      0.00000000      0.00000000      0.00000000      0.00000000      0.00000000</v>
   <v name="DARWINV">      1.00000000      1.00000000      1.00000000      1.00000000      1.00000000</v>
   <i type="logical" name="LCORR"> T  </i>
  </separator>
  <i type="logical" name="GGA_COMPAT"> F  </i>
  <i type="logical" name="LBERRY"> F  </i>
  <i type="int" name="ICORELEVEL">     0</i>
  <i type="logical" name="LDAU"> F  </i>
  <i type="int" name="I_CONSTRAINED_M">     0</i>
  <separator name="electronic exchange-correlation" >
   <i type="string" name="GGA">--</i>
   <i type="int" name="VOSKOWN">     0</i>
   <i type="logical" name="LHFCALC"> F  </i>
   <i type="string" name="PRECFOCK"></i>
   <i type="logical" name="LSYMGRAD"> F  </i>
   <i type="logical" name="LHFONE"> F  </i>
   <i type="logical" name="LRHFCALC"> F  </i>
   <i type="logical" name="LTHOMAS"> F  </i>
   <i type="logical" name="LMODELHF"> F  </i>
   <i type="logical" name="LFOCKACE"> F  </i>
   <i name="ENCUT4O">     -1.00000000</i>
   <i type="int" name="EXXOEP">     0</i>
   <i type="int" name="FOURORBIT">     0</i>
   <i name="AEXX">      0.00000000</i>
   <i name="HFALPHA">      0.00000000</i>
   <i name="MCALPHA">      0.00000000</i>
   <i name="ALDAX">      1.00000000</i>
   <i name="AGGAX">      1.00000000</i>
   <i name="ALDAC">      1.00000000</i>
   <i name="AGGAC">      1.00000000</i>
   <i type="int" name="NKREDX">     1</i>
   <i type="int" name="NKREDY">     1</i>
   <i type="int" name="NKREDZ">     1</i>
   <i type="logical" name="SHIFTRED"> F  </i>
   <i type="logical" name="ODDONLY"> F  </i>
   <i type="logical" name="EVENONLY"> F  </i>
   <i type="int" name="LMAXFOCK">     0</i>
   <i type="int" name="NMAXFOCKAE">     0</i>
   <i type="logical" name="LFOCKAEDFT"> F  </i>
   <i name="HFSCREEN">      0.00000000</i>
   <i name="HFSCREENC">      0.00000000</i>
   <i type="int" name="NBANDSGWLOW">     0</i>
  </separator>
  <separator name="vdW DFT" >
   <i type="logical" name="LUSE_VDW"> F  </i>
   <i name="Zab_VDW">     -0.84910000</i>
   <i name="PARAM1">      0.12340000</i>
   <i name="PARAM2">      1.00000000</i>
   <i name="PARAM3">      0.00000000</i>
  </separator>
  <separator name="model GW" >
   <i type="int" name="MODEL_GW">     0</i>
   <i name="MODEL_EPS0">     37.63423484</i>
   <i name="MODEL_ALPHA">      1.00000000</i>
  </separator>
  <separator name="linear response parameters" >
   <i type="logical" name="LEPSILON"> F  </i>
   <i type="logical" name="LRPA"> F  </i>
   <i type="logical" name="LNABLA"> F  </i>
   <i type="logical" name="LVEL"> F  </i>
   <i type="int" name="KINTER">     0</i>
   <i name="CSHIFT">      0.10000000</i>
   <i name="OMEGAMAX">     -1.00000000</i>
   <i name="DEG_THRESHOLD">      0.00200000</i>
   <i name="RTIME">     -0.10000000</i>
   <i name="WPLASMAI">      0.00000000</i>
   <v name="DFIELD">      0.00000000      0.00000000      0.00000000</v>
   <v name="WPLASMA">      0.00000000      0.00000000      0.00000000      0.00000000      0.00000000      0.00000000      0.00000000      0.00000000      0.00000000</v>
  </separator>
  <separator name="orbital magnetization" >
   <i type="logical" name="NUCIND"> F  </i>
   <v name="MAGPOS">      0.00000000      0.00000000      0.00000000</v>
   <i type="logical" name="LNICSALL"> T  </i>
   <i type="logical" name="ORBITALMAG"> F  </i>
   <i type="logical" name="LMAGBLOCH"> F  </i>
   <i type="logical" name="LCHIMAG"> F  </i>
   <i type="logical" name="LGAUGE"> T  </i>
   <i type="int" name="MAGATOM">     0</i>
   <v name="MAGDIPOL">      0.00000000      0.00000000      0.00000000</v>
   <v name="AVECCONST">      0.00000000      0.00000000      0.00000000</v>
  </separator>
  <separator name="response functions" >
   <i type="logical" name="LFINITE_TEMPERATURE"> F  </i>
   <i type="logical" name="LADDER"> F  </i>
   <i type="logical" name="LRPAFORCE"> F  </i>
   <i type="logical" name="LFXC"> F  </i>
   <i type="logical" name="LHARTREE"> T  </i>
   <i type="int" name="IBSE">     0</i>
   <v type="int" name="KPOINT">    -1     0     0     0</v>
   <i type="logical" name="LTCTC"> F  </i>
   <i type="logical" name="LTCTE"> F  </i>
   <i type="logical" name="LTETE"> F  </i>
   <i type="logical" name="LTRIPLET"> F  </i>
   <i type="logical" name="LFXCEPS"> F  </i>
   <i type="logical" name="LFXHEG"> F  </i>
   <i type="int" name="NATURALO">     2</i>
   <i type="logical" name="LHOLEGF"> F  </i>
   <i type="logical" name="L2ORDER"> F  </i>
   <i type="logical" name="LDMP1"> F  </i>
   <i type="logical" name="LMP2LT"> F  </i>
   <i type="logical" name="LSMP2LT"> F  </i>
   <i type="logical" name="LGWLF"> F  </i>
   <i name="ENCUTGW">     -2.00000000</i>
   <i name="ENCUTGWSOFT">     -2.00000000</i>
   <i name="ENCUTLF">     -1.00000000</i>
   <i type="logical" name="LESF_SPLINES"> F  </i>
   <i type="int" name="LMAXMP2">    -1</i>
   <i name="SCISSOR">      0.00000000</i>
   <i type="int" name="NOMEGA">     0</i>
   <i type="int" name="NOMEGAR">     0</i>
   <i type="int" name="NBANDSGW">    -1</i>
   <i type="int" name="NBANDSO">    -1</i>
   <i type="int" name="NBANDSV">    -1</i>
   <i type="int" name="NELM">   600</i>
   <i type="int" name="NELMHF">     1</i>
   <i type="int" name="DIM">     3</i>
   <i type="int" name="IESPILON">     4</i>
   <i type="int" name="ANTIRES">     0</i>
   <i name="OMEGAMAX">    -30.00000000</i>
   <i name="OMEGAMIN">    -30.00000000</i>
   <i name="OMEGATL">   -200.00000000</i>
   <i type="int" name="OMEGAGRID">     0</i>
   <i name="CSHIFT">     -0.10000000</i>
   <i type="logical" name="LSELFENERGY"> F  </i>
   <i type="logical" name="LSPECTRAL"> F  </i>
   <i type="logical" name="LSPECTRALGW"> F  </i>
   <i type="logical" name="LSINGLES"> F  </i>
   <i type="logical" name="LFERMIGW"> F  </i>
   <i type="logical" name="ODDONLYGW"> F  </i>
   <i type="logical" name="EVENONLYGW"> F  </i>
   <i type="int" name="NKREDLFX">     1</i>
   <i type="int" name="NKREDLFY">     1</i>
   <i type="int" name="NKREDLFZ">     1</i>
   <i type="int" name="MAXMEM">  2800</i>
   <i type="int" name="TELESCOPE">     0</i>
   <i type="int" name="NTAUPAR">    -1</i>
   <i type="int" name="NOMEGAPAR">    -1</i>
   <i name="DAMP_NEWTON">      0.80000001</i>
   <i name="LAMBDA">      1.00000000</i>
  </separator>
  <separator name="External order field" >
   <i name="OFIELD_KAPPA">      0.00000000</i>
   <v name="OFIELD_K">      0.00000000      0.00000000      0.00000000</v>
   <i name="OFIELD_Q6_NEAR">      0.00000000</i>
   <i name="OFIELD_Q6_FAR">      0.00000000</i>
   <i name="OFIELD_A">      0.00000000</i>
  </separator>
 </parameters>
 <atominfo>
  <atoms>     325 </atoms>
  <types>       5 </types>
  <array name="atoms" >
   <dimension dim="1">ion</dimension>
   <field type="string">element</field>
   <field type="int">atomtype</field>
   <set>
    <rc><c>H </c><c>   1</c></rc>
    <rc><c>H </c><c>   1</c></rc>
    <rc><c>H </c><c>   1</c></rc>
    <rc><c>H </c><c>   1</c></rc>
    <rc><c>H </c><c>   1</c></rc>
    <rc><c>H </c><c>   1</c></rc>
    <rc><c>H </c><c>   1</c></rc>
    <rc><c>H </c><c>   1</c></rc>
    <rc><c>H </c><c>   1</c></rc>
    <rc><c>H </c><c>   1</c></rc>
    <rc><c>H </c><c>   1</c></rc>
    <rc><c>H </c><c>   1</c></rc>
    <rc><c>H </c><c>   1</c></rc>
    <rc><c>H </c><c>   1</c></rc>
    <rc><c>H </c><c>   1</c></rc>
    <rc><c>H </c><c>   1</c></rc>
    <rc><c>H </c><c>   1</c></rc>
    <rc><c>H </c><c>   1</c></rc>
    <rc><c>H </c><c>   1</c></rc>
    <rc><c>H </c><c>   1</c></rc>
    <rc><c>H </c><c>   1</c></rc>
    <rc><c>H </c><c>   1</c></rc>
    <rc><c>H </c><c>   1</c></rc>
    <rc><c>H </c><c>   1</c></rc>
    <rc><c>H </c><c>   1</c></rc>
    <rc><c>H </c><c>   1</c></rc>
    <rc><c>H </c><c>   1</c></rc>
    <rc><c>H </c><c>   1</c></rc>
    <rc><c>H </c><c>   1</c></rc>
    <rc><c>H </c><c>   1</c></rc>
    <rc><c>H </c><c>   1</c></rc>
    <rc><c>H </c><c>   1</c></rc>
    <rc><c>H </c><c>   1</c></rc>
    <rc><c>H </c><c>   1</c></rc>
    <rc><c>H </c><c>   1</c></rc>
    <rc><c>H </c><c>   1</c></rc>
    <rc><c>H </c><c>   1</c></rc>
    <rc><c>H </c><c>   1</c></rc>
    <rc><c>H </c><c>   1</c></rc>
    <rc><c>H </c><c>   1</c></rc>
    <rc><c>H </c><c>   1</c></rc>
    <rc><c>H </c><c>   1</c></rc>
    <rc><c>H </c><c>   1</c></rc>
    <rc><c>H </c><c>   1</c></rc>
    <rc><c>H </c><c>   1</c></rc>
    <rc><c>H </c><c>   1</c></rc>
    <rc><c>H </c><c>   1</c></rc>
    <rc><c>H </c><c>   1</c></rc>
    <rc><c>H </c><c>   1</c></rc>
    <rc><c>H </c><c>   1</c></rc>
    <rc><c>H </c><c>   1</c></rc>
    <rc><c>H </c><c>   1</c></rc>
    <rc><c>H </c><c>   1</c></rc>
    <rc><c>H </c><c>   1</c></rc>
    <rc><c>H </c><c>   1</c></rc>
    <rc><c>H </c><c>   1</c></rc>
    <rc><c>H </c><c>   1</c></rc>
    <rc><c>H </c><c>   1</c></rc>
    <rc><c>H </c><c>   1</c></rc>
    <rc><c>H </c><c>   1</c></rc>
    <rc><c>H </c><c>   1</c></rc>
    <rc><c>H </c><c>   1</c></rc>
    <rc><c>H </c><c>   1</c></rc>
    <rc><c>H </c><c>   1</c></rc>
    <rc><c>H </c><c>   1</c></rc>
    <rc><c>H </c><c>   1</c></rc>
    <rc><c>H </c><c>   1</c></rc>
    <rc><c>H </c><c>   1</c></rc>
    <rc><c>H </c><c>   1</c></rc>
    <rc><c>H </c><c>   1</c></rc>
    <rc><c>H </c><c>   1</c></rc>
    <rc><c>H </c><c>   1</c></rc>
    <rc><c>H </c><c>   1</c></rc>
    <rc><c>H </c><c>   1</c></rc>
    <rc><c>H </c><c>   1</c></rc>
    <rc><c>H </c><c>   1</c></rc>
    <rc><c>H </c><c>   1</c></rc>
    <rc><c>H </c><c>   1</c></rc>
    <rc><c>H </c><c>   1</c></rc>
    <rc><c>H </c><c>   1</c></rc>
    <rc><c>H </c><c>   1</c></rc>
    <rc><c>H </c><c>   1</c></rc>
    <rc><c>H </c><c>   1</c></rc>
    <rc><c>H </c><c>   1</c></rc>
    <rc><c>H </c><c>   1</c></rc>
    <rc><c>H </c><c>   1</c></rc>
    <rc><c>H </c><c>   1</c></rc>
    <rc><c>H </c><c>   1</c></rc>
    <rc><c>H </c><c>   1</c></rc>
    <rc><c>H </c><c>   1</c></rc>
    <rc><c>H </c><c>   1</c></rc>
    <rc><c>H </c><c>   1</c></rc>
    <rc><c>H </c><c>   1</c></rc>
    <rc><c>H </c><c>   1</c></rc>
    <rc><c>H </c><c>   1</c></rc>
    <rc><c>H </c><c>   1</c></rc>
    <rc><c>H </c><c>   1</c></rc>
    <rc><c>H </c><c>   1</c></rc>
    <rc><c>H </c><c>   1</c></rc>
    <rc><c>H </c><c>   1</c></rc>
    <rc><c>H </c><c>   1</c></rc>
    <rc><c>H </c><c>   1</c></rc>
    <rc><c>H </c><c>   1</c></rc>
    <rc><c>H </c><c>   1</c></rc>
    <rc><c>H </c><c>   1</c></rc>
    <rc><c>H </c><c>   1</c></rc>
    <rc><c>H </c><c>   1</c></rc>
    <rc><c>H </c><c>   1</c></rc>
    <rc><c>H </c><c>   1</c></rc>
    <rc><c>H </c><c>   1</c></rc>
    <rc><c>H </c><c>   1</c></rc>
    <rc><c>H </c><c>   1</c></rc>
    <rc><c>H </c><c>   1</c></rc>
    <rc><c>H </c><c>   1</c></rc>
    <rc><c>H </c><c>   1</c></rc>
    <rc><c>H </c><c>   1</c></rc>
    <rc><c>H </c><c>   1</c></rc>
    <rc><c>H </c><c>   1</c></rc>
    <rc><c>H </c><c>   1</c></rc>
    <rc><c>H </c><c>   1</c></rc>
    <rc><c>H </c><c>   1</c></rc>
    <rc><c>H </c><c>   1</c></rc>
    <rc><c>H </c><c>   1</c></rc>
    <rc><c>H </c><c>   1</c></rc>
    <rc><c>H </c><c>   1</c></rc>
    <rc><c>H </c><c>   1</c></rc>
    <rc><c>H </c><c>   1</c></rc>
    <rc><c>H </c><c>   1</c></rc>
    <rc><c>H </c><c>   1</c></rc>
    <rc><c>H </c><c>   1</c></rc>
    <rc><c>H </c><c>   1</c></rc>
    <rc><c>H </c><c>   1</c></rc>
    <rc><c>H </c><c>   1</c></rc>
    <rc><c>H </c><c>   1</c></rc>
    <rc><c>H </c><c>   1</c></rc>
    <rc><c>H </c><c>   1</c></rc>
    <rc><c>H </c><c>   1</c></rc>
    <rc><c>H </c><c>   1</c></rc>
    <rc><c>H </c><c>   1</c></rc>
    <rc><c>H </c><c>   1</c></rc>
    <rc><c>H </c><c>   1</c></rc>
    <rc><c>H </c><c>   1</c></rc>
    <rc><c>H </c><c>   1</c></rc>
    <rc><c>C </c><c>   2</c></rc>
    <rc><c>C </c><c>   2</c></rc>
    <rc><c>C </c><c>   2</c></rc>
    <rc><c>C </c><c>   2</c></rc>
    <rc><c>C </c><c>   2</c></rc>
    <rc><c>C </c><c>   2</c></rc>
    <rc><c>C </c><c>   2</c></rc>
    <rc><c>C </c><c>   2</c></rc>
    <rc><c>C </c><c>   2</c></rc>
    <rc><c>C </c><c>   2</c></rc>
    <rc><c>C </c><c>   2</c></rc>
    <rc><c>C </c><c>   2</c></rc>
    <rc><c>C </c><c>   2</c></rc>
    <rc><c>C </c><c>   2</c></rc>
    <rc><c>C </c><c>   2</c></rc>
    <rc><c>C </c><c>   2</c></rc>
    <rc><c>C </c><c>   2</c></rc>
    <rc><c>C </c><c>   2</c></rc>
    <rc><c>C </c><c>   2</c></rc>
    <rc><c>C </c><c>   2</c></rc>
    <rc><c>C </c><c>   2</c></rc>
    <rc><c>C </c><c>   2</c></rc>
    <rc><c>C </c><c>   2</c></rc>
    <rc><c>C </c><c>   2</c></rc>
    <rc><c>C </c><c>   2</c></rc>
    <rc><c>C </c><c>   2</c></rc>
    <rc><c>C </c><c>   2</c></rc>
    <rc><c>C </c><c>   2</c></rc>
    <rc><c>C </c><c>   2</c></rc>
    <rc><c>C </c><c>   2</c></rc>
    <rc><c>C </c><c>   2</c></rc>
    <rc><c>C </c><c>   2</c></rc>
    <rc><c>C </c><c>   2</c></rc>
    <rc><c>C </c><c>   2</c></rc>
    <rc><c>C </c><c>   2</c></rc>
    <rc><c>C </c><c>   2</c></rc>
    <rc><c>C </c><c>   2</c></rc>
    <rc><c>C </c><c>   2</c></rc>
    <rc><c>C </c><c>   2</c></rc>
    <rc><c>N </c><c>   3</c></rc>
    <rc><c>N </c><c>   3</c></rc>
    <rc><c>N </c><c>   3</c></rc>
    <rc><c>N </c><c>   3</c></rc>
    <rc><c>N </c><c>   3</c></rc>
    <rc><c>N </c><c>   3</c></rc>
    <rc><c>N </c><c>   3</c></rc>
    <rc><c>N </c><c>   3</c></rc>
    <rc><c>N </c><c>   3</c></rc>
    <rc><c>N </c><c>   3</c></rc>
    <rc><c>N </c><c>   3</c></rc>
    <rc><c>N </c><c>   3</c></rc>
    <rc><c>N </c><c>   3</c></rc>
    <rc><c>N </c><c>   3</c></rc>
    <rc><c>N </c><c>   3</c></rc>
    <rc><c>N </c><c>   3</c></rc>
    <rc><c>N </c><c>   3</c></rc>
    <rc><c>N </c><c>   3</c></rc>
    <rc><c>N </c><c>   3</c></rc>
    <rc><c>N </c><c>   3</c></rc>
    <rc><c>N </c><c>   3</c></rc>
    <rc><c>N </c><c>   3</c></rc>
    <rc><c>N </c><c>   3</c></rc>
    <rc><c>N </c><c>   3</c></rc>
    <rc><c>N </c><c>   3</c></rc>
    <rc><c>N </c><c>   3</c></rc>
    <rc><c>N </c><c>   3</c></rc>
    <rc><c>N </c><c>   3</c></rc>
    <rc><c>N </c><c>   3</c></rc>
    <rc><c>N </c><c>   3</c></rc>
    <rc><c>N </c><c>   3</c></rc>
    <rc><c>N </c><c>   3</c></rc>
    <rc><c>N </c><c>   3</c></rc>
    <rc><c>N </c><c>   3</c></rc>
    <rc><c>N </c><c>   3</c></rc>
    <rc><c>N </c><c>   3</c></rc>
    <rc><c>N </c><c>   3</c></rc>
    <rc><c>N </c><c>   3</c></rc>
    <rc><c>N </c><c>   3</c></rc>
    <rc><c>N </c><c>   3</c></rc>
    <rc><c>N </c><c>   3</c></rc>
    <rc><c>N </c><c>   3</c></rc>
    <rc><c>N </c><c>   3</c></rc>
    <rc><c>N </c><c>   3</c></rc>
    <rc><c>N </c><c>   3</c></rc>
    <rc><c>N </c><c>   3</c></rc>
    <rc><c>N </c><c>   3</c></rc>
    <rc><c>I </c><c>   4</c></rc>
    <rc><c>I </c><c>   4</c></rc>
    <rc><c>I </c><c>   4</c></rc>
    <rc><c>I </c><c>   4</c></rc>
    <rc><c>I </c><c>   4</c></rc>
    <rc><c>I </c><c>   4</c></rc>
    <rc><c>I </c><c>   4</c></rc>
    <rc><c>I </c><c>   4</c></rc>
    <rc><c>I </c><c>   4</c></rc>
    <rc><c>I </c><c>   4</c></rc>
    <rc><c>I </c><c>   4</c></rc>
    <rc><c>I </c><c>   4</c></rc>
    <rc><c>I </c><c>   4</c></rc>
    <rc><c>I </c><c>   4</c></rc>
    <rc><c>I </c><c>   4</c></rc>
    <rc><c>I </c><c>   4</c></rc>
    <rc><c>I </c><c>   4</c></rc>
    <rc><c>I </c><c>   4</c></rc>
    <rc><c>I </c><c>   4</c></rc>
    <rc><c>I </c><c>   4</c></rc>
    <rc><c>I </c><c>   4</c></rc>
    <rc><c>I </c><c>   4</c></rc>
    <rc><c>I </c><c>   4</c></rc>
    <rc><c>I </c><c>   4</c></rc>
    <rc><c>I </c><c>   4</c></rc>
    <rc><c>I </c><c>   4</c></rc>
    <rc><c>I </c><c>   4</c></rc>
    <rc><c>I </c><c>   4</c></rc>
    <rc><c>I </c><c>   4</c></rc>
    <rc><c>I </c><c>   4</c></rc>
    <rc><c>I </c><c>   4</c></rc>
    <rc><c>I </c><c>   4</c></rc>
    <rc><c>I </c><c>   4</c></rc>
    <rc><c>I </c><c>   4</c></rc>
    <rc><c>I </c><c>   4</c></rc>
    <rc><c>I </c><c>   4</c></rc>
    <rc><c>I </c><c>   4</c></rc>
    <rc><c>I </c><c>   4</c></rc>
    <rc><c>I </c><c>   4</c></rc>
    <rc><c>I </c><c>   4</c></rc>
    <rc><c>I </c><c>   4</c></rc>
    <rc><c>I </c><c>   4</c></rc>
    <rc><c>I </c><c>   4</c></rc>
    <rc><c>I </c><c>   4</c></rc>
    <rc><c>I </c><c>   4</c></rc>
    <rc><c>I </c><c>   4</c></rc>
    <rc><c>I </c><c>   4</c></rc>
    <rc><c>I </c><c>   4</c></rc>
    <rc><c>I </c><c>   4</c></rc>
    <rc><c>I </c><c>   4</c></rc>
    <rc><c>I </c><c>   4</c></rc>
    <rc><c>I </c><c>   4</c></rc>
    <rc><c>I </c><c>   4</c></rc>
    <rc><c>I </c><c>   4</c></rc>
    <rc><c>I </c><c>   4</c></rc>
    <rc><c>I </c><c>   4</c></rc>
    <rc><c>I </c><c>   4</c></rc>
    <rc><c>I </c><c>   4</c></rc>
    <rc><c>I </c><c>   4</c></rc>
    <rc><c>I </c><c>   4</c></rc>
    <rc><c>I </c><c>   4</c></rc>
    <rc><c>I </c><c>   4</c></rc>
    <rc><c>I </c><c>   4</c></rc>
    <rc><c>I </c><c>   4</c></rc>
    <rc><c>I </c><c>   4</c></rc>
    <rc><c>I </c><c>   4</c></rc>
    <rc><c>I </c><c>   4</c></rc>
    <rc><c>I </c><c>   4</c></rc>
    <rc><c>I </c><c>   4</c></rc>
    <rc><c>I </c><c>   4</c></rc>
    <rc><c>I </c><c>   4</c></rc>
    <rc><c>I </c><c>   4</c></rc>
    <rc><c>Pb</c><c>   5</c></rc>
    <rc><c>Pb</c><c>   5</c></rc>
    <rc><c>Pb</c><c>   5</c></rc>
    <rc><c>Pb</c><c>   5</c></rc>
    <rc><c>Pb</c><c>   5</c></rc>
    <rc><c>Pb</c><c>   5</c></rc>
    <rc><c>Pb</c><c>   5</c></rc>
    <rc><c>Pb</c><c>   5</c></rc>
    <rc><c>Pb</c><c>   5</c></rc>
    <rc><c>Pb</c><c>   5</c></rc>
    <rc><c>Pb</c><c>   5</c></rc>
    <rc><c>Pb</c><c>   5</c></rc>
    <rc><c>Pb</c><c>   5</c></rc>
    <rc><c>Pb</c><c>   5</c></rc>
    <rc><c>Pb</c><c>   5</c></rc>
    <rc><c>Pb</c><c>   5</c></rc>
    <rc><c>Pb</c><c>   5</c></rc>
    <rc><c>Pb</c><c>   5</c></rc>
    <rc><c>Pb</c><c>   5</c></rc>
    <rc><c>Pb</c><c>   5</c></rc>
    <rc><c>Pb</c><c>   5</c></rc>
    <rc><c>Pb</c><c>   5</c></rc>
    <rc><c>Pb</c><c>   5</c></rc>
    <rc><c>Pb</c><c>   5</c></rc>
   </set>
  </array>
  <array name="atomtypes" >
   <dimension dim="1">type</dimension>
   <field type="int">atomspertype</field>
   <field type="string">element</field>
   <field>mass</field>
   <field>valence</field>
   <field type="string">pseudopotential</field>
   <set>
    <rc><c> 143</c><c>H </c><c>      1.00000000</c><c>      1.00000000</c><c>  PAW_PBE H 15Jun2001                   </c></rc>
    <rc><c>  39</c><c>C </c><c>     12.01100000</c><c>      4.00000000</c><c>  PAW_PBE C 08Apr2002                   </c></rc>
    <rc><c>  47</c><c>N </c><c>     14.00100000</c><c>      5.00000000</c><c>  PAW_PBE N 08Apr2002                   </c></rc>
    <rc><c>  72</c><c>I </c><c>    126.90400000</c><c>      7.00000000</c><c>  PAW_PBE I 08Apr2002                   </c></rc>
    <rc><c>  24</c><c>Pb</c><c>    207.20000000</c><c>      4.00000000</c><c>  PAW_PBE Pb 08Apr2002                  </c></rc>
   </set>
  </array>
 </atominfo>
 <structure name="initialpos" >
  <crystal>
   <varray name="basis" >
    <v>      18.06080055       0.00000000       0.00000000 </v>
    <v>      -0.00491865      18.06279945       0.00000000 </v>
    <v>       0.00000000       0.00000000      62.48749924 </v>
   </varray>
   <i name="volume">  20385.21054034 </i>
   <varray name="rec_basis" >
    <v>       0.05536853       0.00001508      -0.00000000 </v>
    <v>       0.00000000       0.05536240       0.00000000 </v>
    <v>       0.00000000      -0.00000000       0.01600320 </v>
   </varray>
  </crystal>
  <varray name="positions" >
   <v>       0.45400288       0.30534876       0.58135029 </v>
   <v>       0.44568241       0.80887115       0.58037420 </v>
   <v>       0.95746263       0.30986283       0.57670800 </v>
   <v>       0.96770639       0.81387379       0.58112533 </v>
   <v>       0.31362505       0.03956182       0.58104426 </v>
   <v>       0.30198166       0.55278651       0.58105817 </v>
   <v>       0.78660377       0.05665110       0.58245347 </v>
   <v>       0.07624732       0.15143313       0.56132767 </v>
   <v>       0.07133582       0.66241587       0.55600226 </v>
   <v>       0.58663314       0.18418671       0.55717620 </v>
   <v>       0.56711419       0.66807146       0.55874799 </v>
   <v>       0.33434489       0.06967657       0.55556467 </v>
   <v>       0.32070952       0.58439090       0.55558714 </v>
   <v>       0.82265584       0.08251919       0.55800644 </v>
   <v>       0.03915637       0.19467387       0.58394797 </v>
   <v>       0.05377116       0.70358414       0.58054513 </v>
   <v>       0.56317370       0.22555028       0.58111947 </v>
   <v>       0.52920119       0.70046960       0.58260023 </v>
   <v>       0.20318512       0.44631920       0.58230220 </v>
   <v>       0.19964735       0.94946302       0.58260292 </v>
   <v>       0.69763316       0.94219562       0.58071771 </v>
   <v>       0.40539824       0.31717138       0.55714494 </v>
   <v>       0.43262869       0.84872899       0.55488613 </v>
   <v>       0.94640345       0.32768514       0.54963941 </v>
   <v>       0.93097460       0.83810767       0.55700405 </v>
   <v>       0.16933009       0.42119663       0.55751330 </v>
   <v>       0.15930134       0.93228195       0.55805009 </v>
   <v>       0.68664104       0.90629214       0.55527189 </v>
   <v>       0.48902713       0.23915071       0.53856432 </v>
   <v>       0.50967840       0.75980694       0.53828204 </v>
   <v>       0.01731819       0.23613960       0.53706793 </v>
   <v>       0.99405407       0.74788157       0.53762438 </v>
   <v>       0.24050141       0.50626054       0.53808571 </v>
   <v>       0.23834761       0.00527489       0.53848099 </v>
   <v>       0.76463016       0.99169721       0.53835438 </v>
   <v>       0.45231211       0.30478857       0.67543301 </v>
   <v>       0.45192735       0.79382465       0.67524468 </v>
   <v>       0.94256192       0.30422496       0.67206741 </v>
   <v>       0.94697282       0.80365036       0.67541250 </v>
   <v>       0.29567250       0.05153814       0.67529644 </v>
   <v>       0.29780605       0.54934843       0.67486228 </v>
   <v>       0.80290400       0.05234926       0.67412678 </v>
   <v>       0.80337612       0.56267784       0.67550981 </v>
   <v>       0.07829473       0.17162857       0.65099440 </v>
   <v>       0.07865775       0.67090780       0.65077958 </v>
   <v>       0.57401774       0.16674977       0.64986881 </v>
   <v>       0.57383078       0.66977313       0.64634229 </v>
   <v>       0.16955953       0.42079067       0.64816773 </v>
   <v>       0.17228743       0.91888437       0.64774607 </v>
   <v>       0.67852147       0.41945072       0.65282845 </v>
   <v>       0.66578051       0.92585460       0.64963476 </v>
   <v>       0.04450053       0.20410165       0.67608145 </v>
   <v>       0.04552768       0.69943868       0.67645140 </v>
   <v>       0.55165463       0.20215558       0.67514212 </v>
   <v>       0.55171868       0.69250343       0.67217692 </v>
   <v>       0.19835100       0.44861501       0.67380921 </v>
   <v>       0.19886074       0.94696598       0.67371745 </v>
   <v>       0.70205830       0.45909736       0.67667276 </v>
   <v>       0.69673449       0.95729401       0.67490208 </v>
   <v>       0.41793620       0.33091697       0.65010104 </v>
   <v>       0.41686233       0.82890419       0.65093720 </v>
   <v>       0.91937418       0.32727796       0.64620805 </v>
   <v>       0.92166178       0.83613135       0.64984134 </v>
   <v>       0.32652776       0.08533763       0.65032392 </v>
   <v>       0.32928325       0.58114637       0.64967004 </v>
   <v>       0.83515084       0.07706598       0.64845563 </v>
   <v>       0.83336241       0.57798089       0.64954459 </v>
   <v>       0.00465667       0.24409537       0.63049073 </v>
   <v>       0.00301114       0.75381947       0.63195434 </v>
   <v>       0.49133502       0.24284723       0.63300863 </v>
   <v>       0.49277242       0.75156326       0.63052406 </v>
   <v>       0.24965548       0.00297524       0.63123697 </v>
   <v>       0.25055809       0.50231676       0.63106384 </v>
   <v>       0.75027821       0.99907257       0.63126811 </v>
   <v>       0.76338663       0.49290531       0.63337381 </v>
   <v>       0.44874502       0.30128397       0.76888902 </v>
   <v>       0.44874501       0.80128391       0.76888902 </v>
   <v>       0.94874497       0.30128397       0.76888902 </v>
   <v>       0.94874501       0.80128391       0.76888902 </v>
   <v>       0.30127600       0.05129450       0.76887296 </v>
   <v>       0.30127601       0.55129450       0.76887296 </v>
   <v>       0.80127594       0.05129450       0.76887296 </v>
   <v>       0.80127598       0.55129450       0.76887296 </v>
   <v>       0.07877100       0.17118050       0.74344197 </v>
   <v>       0.07877101       0.67118045       0.74344197 </v>
   <v>       0.57877100       0.17118050       0.74344197 </v>
   <v>       0.57877099       0.67118045       0.74344197 </v>
   <v>       0.17119950       0.42117448       0.74342103 </v>
   <v>       0.17119950       0.92117451       0.74342103 </v>
   <v>       0.67119951       0.42117448       0.74342103 </v>
   <v>       0.67119950       0.92117451       0.74342103 </v>
   <v>       0.05125600       0.19871499       0.76888902 </v>
   <v>       0.05125600       0.69871493       0.76888902 </v>
   <v>       0.55125603       0.19871499       0.76888902 </v>
   <v>       0.55125602       0.69871493       0.76888902 </v>
   <v>       0.19872349       0.44870397       0.76887205 </v>
   <v>       0.19872349       0.94870397       0.76887205 </v>
   <v>       0.69872352       0.44870397       0.76887205 </v>
   <v>       0.69872351       0.94870397       0.76887205 </v>
   <v>       0.42123152       0.32881747       0.74344197 </v>
   <v>       0.42123151       0.82881744       0.74344197 </v>
   <v>       0.92123147       0.32881747       0.74344197 </v>
   <v>       0.92123151       0.82881744       0.74344197 </v>
   <v>       0.32880050       0.07882500       0.74342103 </v>
   <v>       0.32880049       0.57882496       0.74342103 </v>
   <v>       0.82880048       0.07882500       0.74342103 </v>
   <v>       0.82880052       0.57882496       0.74342103 </v>
   <v>       0.00000350       0.25000148       0.72582199 </v>
   <v>       0.00000350       0.75000145       0.72582199 </v>
   <v>       0.50000351       0.25000148       0.72582199 </v>
   <v>       0.50000350       0.75000145       0.72582199 </v>
   <v>       0.25000050       0.00000000       0.72580398 </v>
   <v>       0.25000052       0.50000000       0.72580398 </v>
   <v>       0.75000050       0.00000000       0.72580398 </v>
   <v>       0.75000049       0.50000000       0.72580398 </v>
   <v>       0.78924038       0.56802672       0.53037751 </v>
   <v>       0.73829016       0.48514325       0.53201229 </v>
   <v>       0.87527177       0.50537750       0.55204895 </v>
   <v>       0.84974828       0.47746177       0.57846549 </v>
   <v>       0.74282157       0.63974786       0.56999548 </v>
   <v>       0.80493156       0.58848409       0.58766905 </v>
   <v>       0.65321497       0.53760062       0.57407191 </v>
   <v>       0.67975902       0.45182658       0.56241504 </v>
   <v>       0.62611304       0.55221561       0.54364554 </v>
   <v>       0.67740954       0.63528799       0.54535944 </v>
   <v>       0.63212667       0.66233076       0.51365620 </v>
   <v>       0.70461604       0.61064830       0.50377508 </v>
   <v>       0.82115453       0.39548594       0.53645599 </v>
   <v>       0.75587091       0.38574672       0.55857437 </v>
   <v>       0.84789950       0.36553259       0.56297997 </v>
   <v>       0.86919276       0.68743813       0.56335822 </v>
   <v>       0.85264307       0.62576429       0.54205068 </v>
   <v>       0.91298360       0.60005233       0.56399165 </v>
   <v>       0.77112913       0.49840171       0.59978519 </v>
   <v>       0.73953555       0.40727293       0.59392940 </v>
   <v>       0.68027753       0.47190587       0.60734120 </v>
   <v>       0.55105385       0.54967841       0.51279061 </v>
   <v>       0.58481457       0.57015944       0.48692085 </v>
   <v>       0.71342713       0.50432603       0.47988721 </v>
   <v>       0.55945565       0.42603063       0.52675453 </v>
   <v>       0.77387333       0.38227612       0.47957087 </v>
   <v>       0.61905147       0.30521592       0.52702625 </v>
   <v>       0.72942866       0.28287182       0.50307761 </v>
   <v>       0.01010782       0.24103569       0.55434537 </v>
   <v>       0.00224204       0.75073048       0.55561510 </v>
   <v>       0.49814038       0.24883209       0.55613962 </v>
   <v>       0.50118950       0.75693991       0.55551925 </v>
   <v>       0.24364875       0.50155341       0.55576454 </v>
   <v>       0.24521268       0.00012841       0.55607210 </v>
   <v>       0.75589917       0.99566865       0.55590605 </v>
   <v>       0.99960067       0.24868404       0.64868071 </v>
   <v>       0.00109268       0.75267708       0.65015158 </v>
   <v>       0.49686544       0.24766164       0.64990416 </v>
   <v>       0.49568434       0.74909064       0.64863590 </v>
   <v>       0.25041952       0.50157089       0.64908472 </v>
   <v>       0.24847917       0.00112131       0.64923770 </v>
   <v>       0.75592749       0.49848655       0.65094789 </v>
   <v>       0.74955278       0.00077501       0.64924186 </v>
   <v>       0.49998898       0.24999498       0.74327702 </v>
   <v>       0.49998903       0.74999496       0.74327702 </v>
   <v>       0.99998898       0.24999498       0.74327702 </v>
   <v>       0.99998903       0.74999496       0.74327702 </v>
   <v>       0.25000050       0.00000100       0.74325596 </v>
   <v>       0.25000052       0.50000100       0.74325596 </v>
   <v>       0.75000050       0.00000100       0.74325596 </v>
   <v>       0.75000049       0.50000100       0.74325596 </v>
   <v>       0.63049646       0.47538191       0.50216685 </v>
   <v>       0.69062005       0.46181538       0.48912914 </v>
   <v>       0.60492510       0.41789332       0.51507116 </v>
   <v>       0.72727859       0.39021948       0.48926278 </v>
   <v>       0.64094575       0.34684902       0.51594493 </v>
   <v>       0.70203069       0.33384431       0.50296309 </v>
   <v>       0.74359495       0.54072202       0.53819761 </v>
   <v>       0.83112139       0.48091785       0.56154377 </v>
   <v>       0.78950919       0.59977224       0.57096356 </v>
   <v>       0.69729683       0.49663547       0.57306616 </v>
   <v>       0.67057385       0.58561026       0.53642699 </v>
   <v>       0.65550291       0.60651403       0.51325866 </v>
   <v>       0.81237801       0.40326827       0.55377617 </v>
   <v>       0.86075718       0.62889065       0.55955418 </v>
   <v>       0.72304128       0.46767276       0.59480030 </v>
   <v>       0.59961771       0.55341618       0.50309296 </v>
   <v>       0.04530576       0.19232665       0.56764857 </v>
   <v>       0.04466967       0.70180686       0.56497482 </v>
   <v>       0.55406039       0.21741648       0.56563706 </v>
   <v>       0.53434879       0.70450451       0.56623673 </v>
   <v>       0.44806400       0.29408640       0.56596940 </v>
   <v>       0.45494802       0.80893383       0.56484680 </v>
   <v>       0.96818763       0.29576777       0.56147967 </v>
   <v>       0.96559260       0.80355501       0.56536717 </v>
   <v>       0.20296204       0.45339705       0.56548328 </v>
   <v>       0.19842953       0.95796847       0.56586422 </v>
   <v>       0.70997353       0.94441946       0.56424457 </v>
   <v>       0.30168627       0.03944885       0.56449853 </v>
   <v>       0.29225004       0.54985170       0.56442136 </v>
   <v>       0.79111127       0.04783674       0.56576178 </v>
   <v>       0.04178765       0.20717796       0.65913013 </v>
   <v>       0.04315694       0.70720707       0.65958395 </v>
   <v>       0.54161814       0.20442216       0.65927981 </v>
   <v>       0.54416413       0.70007109       0.65647347 </v>
   <v>       0.20347865       0.45203477       0.65821405 </v>
   <v>       0.20591544       0.95502283       0.65827613 </v>
   <v>       0.70938411       0.45656454       0.66091680 </v>
   <v>       0.70328778       0.96099282       0.65930020 </v>
   <v>       0.45191374       0.29889162       0.65977008 </v>
   <v>       0.45188026       0.79388289       0.65942315 </v>
   <v>       0.94948600       0.29757448       0.65650338 </v>
   <v>       0.95448437       0.80066755       0.65862502 </v>
   <v>       0.29415660       0.05021998       0.65957431 </v>
   <v>       0.29305705       0.54457763       0.65924032 </v>
   <v>       0.80016294       0.04739499       0.65847442 </v>
   <v>       0.80170738       0.55087006       0.65902781 </v>
   <v>       0.04586250       0.20411950       0.75272599 </v>
   <v>       0.04586250       0.70411946       0.75272599 </v>
   <v>       0.54586251       0.20411950       0.75272599 </v>
   <v>       0.54586250       0.70411946       0.75272599 </v>
   <v>       0.20411900       0.45410100       0.75270499 </v>
   <v>       0.20411899       0.95410095       0.75270499 </v>
   <v>       0.70411898       0.45410100       0.75270499 </v>
   <v>       0.70411896       0.95410095       0.75270499 </v>
   <v>       0.45414002       0.29588849       0.75272697 </v>
   <v>       0.45414001       0.79588852       0.75272697 </v>
   <v>       0.95414002       0.29588849       0.75272697 </v>
[...]
   <v>       0.58663314       0.18418671       0.55717620 </v>
   <v>       0.56711419       0.66807146       0.55874799 </v>
   <v>       0.33434489       0.06967657       0.55556467 </v>
   <v>       0.32070952       0.58439090       0.55558714 </v>
   <v>       0.82265584       0.08251919       0.55800644 </v>
   <v>       0.03915637       0.19467387       0.58394797 </v>
   <v>       0.05377116       0.70358414       0.58054513 </v>
   <v>       0.56317370       0.22555028       0.58111947 </v>
   <v>       0.52920119       0.70046960       0.58260023 </v>
   <v>       0.20318512       0.44631920       0.58230220 </v>
   <v>       0.19964735       0.94946302       0.58260292 </v>
   <v>       0.69763316       0.94219562       0.58071771 </v>
   <v>       0.40539824       0.31717138       0.55714494 </v>
   <v>       0.43262869       0.84872899       0.55488613 </v>
   <v>       0.94640345       0.32768514       0.54963941 </v>
   <v>       0.93097460       0.83810767       0.55700405 </v>
   <v>       0.16933009       0.42119663       0.55751330 </v>
   <v>       0.15930134       0.93228195       0.55805009 </v>
   <v>       0.68664104       0.90629214       0.55527189 </v>
   <v>       0.48902713       0.23915071       0.53856432 </v>
   <v>       0.50967840       0.75980694       0.53828204 </v>
   <v>       0.01731819       0.23613960       0.53706793 </v>
   <v>       0.99405407       0.74788157       0.53762438 </v>
   <v>       0.24050141       0.50626054       0.53808571 </v>
   <v>       0.23834761       0.00527489       0.53848099 </v>
   <v>       0.76463016       0.99169721       0.53835438 </v>
   <v>       0.45231211       0.30478857       0.67543301 </v>
   <v>       0.45192735       0.79382465       0.67524468 </v>
   <v>       0.94256192       0.30422496       0.67206741 </v>
   <v>       0.94697282       0.80365036       0.67541250 </v>
   <v>       0.29567250       0.05153814       0.67529644 </v>
   <v>       0.29780605       0.54934843       0.67486228 </v>
   <v>       0.80290400       0.05234926       0.67412678 </v>
   <v>       0.80337612       0.56267784       0.67550981 </v>
   <v>       0.07829473       0.17162857       0.65099440 </v>
   <v>       0.07865775       0.67090780       0.65077958 </v>
   <v>       0.57401774       0.16674977       0.64986881 </v>
   <v>       0.57383078       0.66977313       0.64634229 </v>
   <v>       0.16955953       0.42079067       0.64816773 </v>
   <v>       0.17228743       0.91888437       0.64774607 </v>
   <v>       0.67852147       0.41945072       0.65282845 </v>
   <v>       0.66578051       0.92585460       0.64963476 </v>
   <v>       0.04450053       0.20410165       0.67608145 </v>
   <v>       0.04552768       0.69943868       0.67645140 </v>
   <v>       0.55165463       0.20215558       0.67514212 </v>
   <v>       0.55171868       0.69250343       0.67217692 </v>
   <v>       0.19835100       0.44861501       0.67380921 </v>
   <v>       0.19886074       0.94696598       0.67371745 </v>
   <v>       0.70205830       0.45909736       0.67667276 </v>
   <v>       0.69673449       0.95729401       0.67490208 </v>
   <v>       0.41793620       0.33091697       0.65010104 </v>
   <v>       0.41686233       0.82890419       0.65093720 </v>
   <v>       0.91937418       0.32727796       0.64620805 </v>
   <v>       0.92166178       0.83613135       0.64984134 </v>
   <v>       0.32652776       0.08533763       0.65032392 </v>
   <v>       0.32928325       0.58114637       0.64967004 </v>
   <v>       0.83515084       0.07706598       0.64845563 </v>
   <v>       0.83336241       0.57798089       0.64954459 </v>
   <v>       0.00465667       0.24409537       0.63049073 </v>
   <v>       0.00301114       0.75381947       0.63195434 </v>
   <v>       0.49133502       0.24284723       0.63300863 </v>
   <v>       0.49277242       0.75156326       0.63052406 </v>
   <v>       0.24965548       0.00297524       0.63123697 </v>
   <v>       0.25055809       0.50231676       0.63106384 </v>
   <v>       0.75027821       0.99907257       0.63126811 </v>
   <v>       0.76338663       0.49290531       0.63337381 </v>
   <v>       0.44874502       0.30128397       0.76888902 </v>
   <v>       0.44874501       0.80128391       0.76888902 </v>
   <v>       0.94874497       0.30128397       0.76888902 </v>
   <v>       0.94874501       0.80128391       0.76888902 </v>
   <v>       0.30127600       0.05129450       0.76887296 </v>
   <v>       0.30127601       0.55129450       0.76887296 </v>
   <v>       0.80127594       0.05129450       0.76887296 </v>
   <v>       0.80127598       0.55129450       0.76887296 </v>
   <v>       0.07877100       0.17118050       0.74344197 </v>
   <v>       0.07877101       0.67118045       0.74344197 </v>
   <v>       0.57877100       0.17118050       0.74344197 </v>
   <v>       0.57877099       0.67118045       0.74344197 </v>
   <v>       0.17119950       0.42117448       0.74342103 </v>
   <v>       0.17119950       0.92117451       0.74342103 </v>
   <v>       0.67119951       0.42117448       0.74342103 </v>
   <v>       0.67119950       0.92117451       0.74342103 </v>
   <v>       0.05125600       0.19871499       0.76888902 </v>
   <v>       0.05125600       0.69871493       0.76888902 </v>
   <v>       0.55125603       0.19871499       0.76888902 </v>
   <v>       0.55125602       0.69871493       0.76888902 </v>
   <v>       0.19872349       0.44870397       0.76887205 </v>
   <v>       0.19872349       0.94870397       0.76887205 </v>
   <v>       0.69872352       0.44870397       0.76887205 </v>
   <v>       0.69872351       0.94870397       0.76887205 </v>
   <v>       0.42123152       0.32881747       0.74344197 </v>
   <v>       0.42123151       0.82881744       0.74344197 </v>
   <v>       0.92123147       0.32881747       0.74344197 </v>
   <v>       0.92123151       0.82881744       0.74344197 </v>
   <v>       0.32880050       0.07882500       0.74342103 </v>
   <v>       0.32880049       0.57882496       0.74342103 </v>
   <v>       0.82880048       0.07882500       0.74342103 </v>
   <v>       0.82880052       0.57882496       0.74342103 </v>
   <v>       0.00000350       0.25000148       0.72582199 </v>
   <v>       0.00000350       0.75000145       0.72582199 </v>
   <v>       0.50000351       0.25000148       0.72582199 </v>
   <v>       0.50000350       0.75000145       0.72582199 </v>
   <v>       0.25000050       0.00000000       0.72580398 </v>
   <v>       0.25000052       0.50000000       0.72580398 </v>
   <v>       0.75000050       0.00000000       0.72580398 </v>
   <v>       0.75000049       0.50000000       0.72580398 </v>
   <v>       0.78924038       0.56802672       0.53037751 </v>
   <v>       0.73829016       0.48514325       0.53201229 </v>
   <v>       0.87527177       0.50537750       0.55204895 </v>
   <v>       0.84974828       0.47746177       0.57846549 </v>
   <v>       0.74282157       0.63974786       0.56999548 </v>
   <v>       0.80493156       0.58848409       0.58766905 </v>
   <v>       0.65321497       0.53760062       0.57407191 </v>
   <v>       0.67975902       0.45182658       0.56241504 </v>
   <v>       0.62611304       0.55221561       0.54364554 </v>
   <v>       0.67740954       0.63528799       0.54535944 </v>
   <v>       0.63212667       0.66233076       0.51365620 </v>
   <v>       0.70461604       0.61064830       0.50377508 </v>
   <v>       0.82115453       0.39548594       0.53645599 </v>
   <v>       0.75587091       0.38574672       0.55857437 </v>
   <v>       0.84789950       0.36553259       0.56297997 </v>
   <v>       0.86919276       0.68743813       0.56335822 </v>
   <v>       0.85264307       0.62576429       0.54205068 </v>
   <v>       0.91298360       0.60005233       0.56399165 </v>
   <v>       0.77112913       0.49840171       0.59978519 </v>
   <v>       0.73953555       0.40727293       0.59392940 </v>
   <v>       0.68027753       0.47190587       0.60734120 </v>
   <v>       0.55105385       0.54967841       0.51279061 </v>
   <v>       0.58481457       0.57015944       0.48692085 </v>
   <v>       0.71342713       0.50432603       0.47988721 </v>
   <v>       0.55945565       0.42603063       0.52675453 </v>
   <v>       0.77387333       0.38227612       0.47957087 </v>
   <v>       0.61905147       0.30521592       0.52702625 </v>
   <v>       0.72942866       0.28287182       0.50307761 </v>
   <v>       0.01010782       0.24103569       0.55434537 </v>
   <v>       0.00224204       0.75073048       0.55561510 </v>
   <v>       0.49814038       0.24883209       0.55613962 </v>
   <v>       0.50118950       0.75693991       0.55551925 </v>
   <v>       0.24364875       0.50155341       0.55576454 </v>
   <v>       0.24521268       0.00012841       0.55607210 </v>
   <v>       0.75589917       0.99566865       0.55590605 </v>
   <v>       0.99960067       0.24868404       0.64868071 </v>
   <v>       0.00109268       0.75267708       0.65015158 </v>
   <v>       0.49686544       0.24766164       0.64990416 </v>
   <v>       0.49568434       0.74909064       0.64863590 </v>
   <v>       0.25041952       0.50157089       0.64908472 </v>
   <v>       0.24847917       0.00112131       0.64923770 </v>
   <v>       0.75592749       0.49848655       0.65094789 </v>
   <v>       0.74955278       0.00077501       0.64924186 </v>
   <v>       0.49998898       0.24999498       0.74327702 </v>
   <v>       0.49998903       0.74999496       0.74327702 </v>
   <v>       0.99998898       0.24999498       0.74327702 </v>
   <v>       0.99998903       0.74999496       0.74327702 </v>
   <v>       0.25000050       0.00000100       0.74325596 </v>
   <v>       0.25000052       0.50000100       0.74325596 </v>
   <v>       0.75000050       0.00000100       0.74325596 </v>
   <v>       0.75000049       0.50000100       0.74325596 </v>
   <v>       0.63049646       0.47538191       0.50216685 </v>
   <v>       0.69062005       0.46181538       0.48912914 </v>
   <v>       0.60492510       0.41789332       0.51507116 </v>
   <v>       0.72727859       0.39021948       0.48926278 </v>
   <v>       0.64094575       0.34684902       0.51594493 </v>
   <v>       0.70203069       0.33384431       0.50296309 </v>
   <v>       0.74359495       0.54072202       0.53819761 </v>
   <v>       0.83112139       0.48091785       0.56154377 </v>
   <v>       0.78950919       0.59977224       0.57096356 </v>
   <v>       0.69729683       0.49663547       0.57306616 </v>
   <v>       0.67057385       0.58561026       0.53642699 </v>
   <v>       0.65550291       0.60651403       0.51325866 </v>
   <v>       0.81237801       0.40326827       0.55377617 </v>
   <v>       0.86075718       0.62889065       0.55955418 </v>
   <v>       0.72304128       0.46767276       0.59480030 </v>
   <v>       0.59961771       0.55341618       0.50309296 </v>
   <v>       0.04530576       0.19232665       0.56764857 </v>
   <v>       0.04466967       0.70180686       0.56497482 </v>
   <v>       0.55406039       0.21741648       0.56563706 </v>
   <v>       0.53434879       0.70450451       0.56623673 </v>
   <v>       0.44806400       0.29408640       0.56596940 </v>
   <v>       0.45494802       0.80893383       0.56484680 </v>
   <v>       0.96818763       0.29576777       0.56147967 </v>
   <v>       0.96559260       0.80355501       0.56536717 </v>
   <v>       0.20296204       0.45339705       0.56548328 </v>
   <v>       0.19842953       0.95796847       0.56586422 </v>
   <v>       0.70997353       0.94441946       0.56424457 </v>
   <v>       0.30168627       0.03944885       0.56449853 </v>
   <v>       0.29225004       0.54985170       0.56442136 </v>
   <v>       0.79111127       0.04783674       0.56576178 </v>
   <v>       0.04178765       0.20717796       0.65913013 </v>
   <v>       0.04315694       0.70720707       0.65958395 </v>
   <v>       0.54161814       0.20442216       0.65927981 </v>
   <v>       0.54416413       0.70007109       0.65647347 </v>
   <v>       0.20347865       0.45203477       0.65821405 </v>
   <v>       0.20591544       0.95502283       0.65827613 </v>
   <v>       0.70938411       0.45656454       0.66091680 </v>
   <v>       0.70328778       0.96099282       0.65930020 </v>
   <v>       0.45191374       0.29889162       0.65977008 </v>
   <v>       0.45188026       0.79388289       0.65942315 </v>
   <v>       0.94948600       0.29757448       0.65650338 </v>
   <v>       0.95448437       0.80066755       0.65862502 </v>
   <v>       0.29415660       0.05021998       0.65957431 </v>
   <v>       0.29305705       0.54457763       0.65924032 </v>
   <v>       0.80016294       0.04739499       0.65847442 </v>
   <v>       0.80170738       0.55087006       0.65902781 </v>
   <v>       0.04586250       0.20411950       0.75272599 </v>
   <v>       0.04586250       0.70411946       0.75272599 </v>
   <v>       0.54586251       0.20411950       0.75272599 </v>
   <v>       0.54586250       0.70411946       0.75272599 </v>
   <v>       0.20411900       0.45410100       0.75270499 </v>
   <v>       0.20411899       0.95410095       0.75270499 </v>
   <v>       0.70411898       0.45410100       0.75270499 </v>
   <v>       0.70411896       0.95410095       0.75270499 </v>
   <v>       0.45414002       0.29588849       0.75272697 </v>
   <v>       0.45414001       0.79588852       0.75272697 </v>
   <v>       0.95414002       0.29588849       0.75272697 </v>
   <v>       0.95414006       0.79588852       0.75272697 </v>
   <v>       0.29588249       0.04590050       0.75270499 </v>
   <v>       0.29588248       0.54590053       0.75270499 </v>
   <v>       0.79588244       0.04590050       0.75270499 </v>
   <v>       0.79588248       0.54590053       0.75270499 </v>
   <v>       0.76409019       0.52724536       0.56070236 </v>
   <v>       0.50064221       0.00741969       0.55257744 </v>
   <v>       0.48460543       0.51452665       0.55615274 </v>
   <v>       0.00073569       0.00235342       0.55171148 </v>
   <v>       0.01630073       0.48403403       0.54937056 </v>
   <v>       0.25366533       0.24845720       0.55228466 </v>
   <v>       0.25184707       0.75132789       0.55277743 </v>
   <v>       0.75815415       0.23397801       0.55503936 </v>
   <v>       0.73776705       0.76517256       0.54862701 </v>
   <v>       0.99890637       0.00498835       0.65412583 </v>
   <v>       0.00354842       0.49977535       0.65320456 </v>
   <v>       0.49993441       0.99723872       0.65494356 </v>
   <v>       0.49726445       0.50174422       0.65576611 </v>
   <v>       0.25153678       0.24870817       0.65474344 </v>
   <v>       0.24906376       0.75244345       0.65432057 </v>
   <v>       0.74991505       0.24714143       0.65516345 </v>
   <v>       0.74692302       0.75213812       0.65467757 </v>
   <v>       0.14576106       0.10759363       0.60921389 </v>
   <v>       0.14684156       0.60588928       0.60822669 </v>
   <v>       0.64660562       0.10646157       0.60826424 </v>
   <v>       0.62940961       0.62081455       0.61142674 </v>
   <v>       0.35266891       0.39124143       0.60879248 </v>
   <v>       0.35775378       0.89573520       0.60870744 </v>
   <v>       0.87301482       0.37752752       0.61172605 </v>
   <v>       0.85709147       0.89649697       0.60815148 </v>
   <v>       0.10951401       0.35465606       0.60795204 </v>
   <v>       0.10559982       0.85776188       0.60876318 </v>
   <v>       0.59164484       0.34204142       0.60805320 </v>
   <v>       0.60434139       0.86065361       0.60895664 </v>
   <v>       0.39518874       0.14211832       0.60804294 </v>
   <v>       0.39111136       0.64509627       0.60889980 </v>
   <v>       0.89152045       0.14327843       0.60785894 </v>
   <v>       0.90779911       0.65851180       0.61180163 </v>
   <v>       0.00000000       0.00000000       0.75492797 </v>
   <v>       0.00000000       0.50000000       0.75492797 </v>
   <v>       0.50000000       0.00000000       0.75492797 </v>
   <v>       0.49999999       0.50000000       0.75492797 </v>
   <v>       0.25000050       0.25000000       0.75493902 </v>
   <v>       0.25000051       0.74999997       0.75493902 </v>
   <v>       0.75000047       0.25000000       0.75493902 </v>
   <v>       0.75000046       0.74999997       0.75493902 </v>
   <v>       0.13579050       0.11421000       0.70478299 </v>
   <v>       0.13579050       0.61420998       0.70478299 </v>
   <v>       0.63579045       0.11421000       0.70478299 </v>
   <v>       0.63579049       0.61420998       0.70478299 </v>
   <v>       0.36420952       0.38578999       0.70478299 </v>
   <v>       0.36420950       0.88578996       0.70478299 </v>
   <v>       0.86420954       0.38578999       0.70478299 </v>
   <v>       0.86420953       0.88578996       0.70478299 </v>
   <v>       0.11421799       0.36421899       0.70478098 </v>
   <v>       0.11421799       0.86421899       0.70478098 </v>
   <v>       0.61421800       0.36421899       0.70478098 </v>
   <v>       0.61421799       0.86421899       0.70478098 </v>
   <v>       0.38578201       0.13578149       0.70478202 </v>
   <v>       0.38578200       0.63578149       0.70478202 </v>
   <v>       0.88578199       0.13578149       0.70478202 </v>
   <v>       0.88578203       0.63578149       0.70478202 </v>
   <v>       0.13466700       0.11533200       0.80125603 </v>
   <v>       0.13466699       0.61533199       0.80125603 </v>
   <v>       0.63466699       0.11533200       0.80125603 </v>
   <v>       0.63466698       0.61533199       0.80125603 </v>
   <v>       0.36533300       0.38466799       0.80125603 </v>
   <v>       0.36533299       0.88466796       0.80125603 </v>
   <v>       0.86533295       0.38466799       0.80125603 </v>
   <v>       0.86533294       0.88466796       0.80125603 </v>
   <v>       0.11532850       0.36533700       0.80126500 </v>
   <v>       0.11532850       0.86533698       0.80126500 </v>
   <v>       0.61532850       0.36533700       0.80126500 </v>
   <v>       0.61532849       0.86533698       0.80126500 </v>
   <v>       0.38467151       0.13466300       0.80126500 </v>
   <v>       0.38467150       0.63466297       0.80126500 </v>
   <v>       0.88467149       0.13466300       0.80126500 </v>
   <v>       0.88467153       0.63466297       0.80126500 </v>
   <v>       0.99868588       0.99815444       0.60326287 </v>
   <v>       0.00078752       0.50383449       0.60310830 </v>
   <v>       0.49569057       0.99989297       0.60282449 </v>
   <v>       0.49735744       0.50060047       0.60438028 </v>
   <v>       0.24892550       0.25088196       0.60288902 </v>
   <v>       0.24774629       0.74713955       0.60222024 </v>
   <v>       0.75068942       0.24640522       0.60418884 </v>
   <v>       0.74834528       0.75813388       0.60442857 </v>
   <v>       0.00000050       0.00000050       0.70482896 </v>
   <v>       0.00000050       0.50000048       0.70482896 </v>
   <v>       0.50000048       0.00000050       0.70482896 </v>
   <v>       0.50000046       0.50000048       0.70482896 </v>
   <v>       0.24999999       0.24999947       0.70482499 </v>
   <v>       0.25000001       0.74999950       0.70482499 </v>
   <v>       0.74999999       0.24999947       0.70482499 </v>
   <v>       0.74999998       0.74999950       0.70482499 </v>
   <v>       0.00000000       0.00000000       0.80731797 </v>
   <v>       0.00000000       0.50000000       0.80731797 </v>
   <v>       0.50000000       0.00000000       0.80731797 </v>
   <v>       0.49999999       0.50000000       0.80731797 </v>
   <v>       0.24999999       0.25000000       0.80731797 </v>
   <v>       0.25000001       0.74999997       0.80731797 </v>
   <v>       0.74999999       0.25000000       0.80731797 </v>
   <v>       0.74999998       0.74999997       0.80731797 </v>
  </varray>
 </structure>
</modeling>
