 vasp.6.2.1 16May21 (build Nov 15 2021 14:57:28) complex                         
 executed on             LinuxPGI date 2023.07.30  13:13:48
 running on    4 total cores
 distrk:  each k-point on    4 cores,    1 groups
 distr:  one band on NCORE=   1 cores,    4 groups


--------------------------------------------------------------------------------------------------------


 INCAR:
   SYSTEM = PSC
   ISTART = 1
   ICHARG = 1
   PREC = Normal
   ENCUT = 500
   GGA_COMPAT = F
   NELM = 600
   ISYM = 0
   LREAL = Auto
   ISMEAR = 0
   SIGMA = 0.05
   AMIN = 0.01
   BMIX = 0.01
   LVTOT = T
   LWAVE = F
   LDIPOL = T
   IDIPOL = 3
   LVDW = T
   IVDW = 12

 POTCAR:    PAW_PBE H 15Jun2001                   
 POTCAR:    PAW_PBE C 08Apr2002                   
 POTCAR:    PAW_PBE N 08Apr2002                   
 POTCAR:    PAW_PBE I 08Apr2002                   
 POTCAR:    PAW_PBE Pb 08Apr2002                  
 WARNING: For LVTOT=.TRUE., VASP.5.x writes the TOTAL local potential to the
     file LOCPOT. If you want only the Hartree contributions, use LVHAR=.TRUE.
     instead. 

 POTCAR:    PAW_PBE H 15Jun2001                   
   SHA256 =  030f79b5d3ab3cf0e668861823c8fb652ff669f3e15e46930bd03bfd63a607b6 H/POTCAR              
   COPYR  = (c) Copyright 15Jun2001 Georg Kresse                                                    
   COPYR  = This file is part of the software VASP. Any use, copying, and all other rights are regul
   COPYR  = If you do not have a valid VASP license, you may not use, copy or distribute this file. 
   VRHFIN =H: ultrasoft test                                                                        
   LEXCH  = PE                                                                                      
   EATOM  =    12.4884 eV,    0.9179 Ry                                                             
                                                                                                    
   TITEL  = PAW_PBE H 15Jun2001                                                                     
   LULTRA =        F    use ultrasoft PP ?                                                          
   IUNSCR =        0    unscreen: 0-lin 1-nonlin 2-no                                               
   RPACOR =    0.000    partial core radius                                                         
   POMASS =    1.000; ZVAL   =    1.000    mass and valenz                                          
   RCORE  =    1.100    outmost cutoff radius                                                       
   RWIGS  =    0.700; RWIGS  =    0.370    wigner-seitz radius (au A)                               
   ENMAX  =  250.000; ENMIN  =  200.000 eV                                                          
   RCLOC  =    0.701    cutoff for local pot                                                        
   LCOR   =        T    correct aug charges                                                         
   LPAW   =        T    paw PP                                                                      
   EAUG   =  400.000                                                                                
   RMAX   =    1.123    core radius for proj-oper                                                   
   RAUG   =    1.200    factor for augmentation sphere                                              
   RDEP   =    1.112    radius for radial grids                                                     
   RDEPT  =    0.926    core radius for aug-charge                                                  
                                                                                                    
   Atomic configuration                                                                             
    2 entries                                                                                       
     n  l   j            E        occ.                                                              
     1  0  0.50        -6.4927   1.0000                                                             
     2  1  0.50        -3.4015   0.0000                                                             
   Description                                                                                      
     l       E           TYP  RCUT    TYP  RCUT                                                     
     0     -6.4927494     23  1.100                                                                 
     0      6.8029130     23  1.100                                                                 
     1     -4.0817478     23  1.100                                                                 
  local pseudopotential read in
  atomic valenz-charges read in
  non local Contribution for L=            0  read in
    real space projection operators read in
  non local Contribution for L=            0  read in
    real space projection operators read in
  non local Contribution for L=            1  read in
    real space projection operators read in
    PAW grid and wavefunctions read in
 
   number of l-projection  operators is LMAX  =            3
   number of lm-projection operators is LMMAX =            5
 
 POTCAR:    PAW_PBE C 08Apr2002                   
   SHA256 =  253f7b50bb8d59471dbedb8285d89021f4a42ed1a2c5d38a03a736e69125dd95 C/POTCAR              
   COPYR  = (c) Copyright 08Apr2002 Georg Kresse                                                    
   COPYR  = This file is part of the software VASP. Any use, copying, and all other rights are regul
   COPYR  = If you do not have a valid VASP license, you may not use, copy or distribute this file. 
   VRHFIN =C: s2p2                                                                                  
   LEXCH  = PE                                                                                      
   EATOM  =   147.1560 eV,   10.8157 Ry                                                             
                                                                                                    
   TITEL  = PAW_PBE C 08Apr2002                                                                     
   LULTRA =        F    use ultrasoft PP ?                                                          
   IUNSCR =        1    unscreen: 0-lin 1-nonlin 2-no                                               
   RPACOR =    1.200    partial core radius                                                         
   POMASS =   12.011; ZVAL   =    4.000    mass and valenz                                          
   RCORE  =    1.500    outmost cutoff radius                                                       
   RWIGS  =    1.630; RWIGS  =    0.863    wigner-seitz radius (au A)                               
   ENMAX  =  400.000; ENMIN  =  300.000 eV                                                          
   ICORE  =        2    local potential                                                             
   LCOR   =        T    correct aug charges                                                         
   LPAW   =        T    paw PP                                                                      
   EAUG   =  644.873                                                                                
   DEXC   =    0.000                                                                                
   RMAX   =    1.529    core radius for proj-oper                                                   
   RAUG   =    1.300    factor for augmentation sphere                                              
   RDEP   =    1.501    radius for radial grids                                                     
   RDEPT  =    1.300    core radius for aug-charge                                                  
                                                                                                    
   Atomic configuration                                                                             
    4 entries                                                                                       
     n  l   j            E        occ.                                                              
     1  0  0.50      -273.3789   2.0000                                                             
     2  0  0.50       -13.7508   2.0000                                                             
     2  1  0.50        -5.2854   2.0000                                                             
     3  2  1.50        -5.4423   0.0000                                                             
   Description                                                                                      
     l       E           TYP  RCUT    TYP  RCUT                                                     
     0    -13.7508458     23  1.200                                                                 
     0     -8.2022199     23  1.200                                                                 
     1     -5.2854383     23  1.500                                                                 
     1     34.0145650     23  1.500                                                                 
     2     -5.4423304      7  1.500                                                                 
  local pseudopotential read in
  partial core-charges read in
  partial kinetic energy density read in
  atomic valenz-charges read in
  non local Contribution for L=            0  read in
    real space projection operators read in
  non local Contribution for L=            0  read in
    real space projection operators read in
  non local Contribution for L=            1  read in
    real space projection operators read in
  non local Contribution for L=            1  read in
    real space projection operators read in
    PAW grid and wavefunctions read in
 
   number of l-projection  operators is LMAX  =            4
   number of lm-projection operators is LMMAX =            8
 
 POTCAR:    PAW_PBE N 08Apr2002                   
   SHA256 =  e053789ff3a61a86a1b75d8a110fcc91f86041011e7b0817c7c99e4e8a6349d7 N/POTCAR              
   COPYR  = (c) Copyright 08Apr2002 Georg Kresse                                                    
   COPYR  = This file is part of the software VASP. Any use, copying, and all other rights are regul
   COPYR  = If you do not have a valid VASP license, you may not use, copy or distribute this file. 
   VRHFIN =N: s2p3                                                                                  
   LEXCH  = PE                                                                                      
   EATOM  =   264.5486 eV,   19.4438 Ry                                                             
                                                                                                    
   TITEL  = PAW_PBE N 08Apr2002                                                                     
   LULTRA =        F    use ultrasoft PP ?                                                          
   IUNSCR =        1    unscreen: 0-lin 1-nonlin 2-no                                               
   RPACOR =    1.200    partial core radius                                                         
   POMASS =   14.001; ZVAL   =    5.000    mass and valenz                                          
   RCORE  =    1.500    outmost cutoff radius                                                       
   RWIGS  =    1.400; RWIGS  =    0.741    wigner-seitz radius (au A)                               
   ENMAX  =  400.000; ENMIN  =  300.000 eV                                                          
   ICORE  =        2    local potential                                                             
   LCOR   =        T    correct aug charges                                                         
   LPAW   =        T    paw PP                                                                      
   EAUG   =  627.112                                                                                
   DEXC   =    0.000                                                                                
   RMAX   =    1.529    core radius for proj-oper                                                   
   RAUG   =    1.300    factor for augmentation sphere                                              
   RDEP   =    1.514    radius for radial grids                                                     
   RDEPT  =    1.338    core radius for aug-charge                                                  
                                                                                                    
   Atomic configuration                                                                             
    4 entries                                                                                       
     n  l   j            E        occ.                                                              
     1  0  0.50      -384.7179   2.0000                                                             
     2  0  0.50       -18.5828   2.0000                                                             
     2  1  0.50        -7.0898   3.0000                                                             
     3  2  1.50        -6.8029   0.0000                                                             
   Description                                                                                      
     l       E           TYP  RCUT    TYP  RCUT                                                     
     0    -18.5828119     23  1.200                                                                 
     0    -13.5018863     23  1.200                                                                 
     1     -7.0897853     23  1.500                                                                 
     1      9.5240782     23  1.500                                                                 
     2     -6.8029130      7  1.500                                                                 
  local pseudopotential read in
  partial core-charges read in
  partial kinetic energy density read in
  atomic valenz-charges read in
  non local Contribution for L=            0  read in
    real space projection operators read in
  non local Contribution for L=            0  read in
    real space projection operators read in
  non local Contribution for L=            1  read in
    real space projection operators read in
  non local Contribution for L=            1  read in
    real space projection operators read in
    PAW grid and wavefunctions read in
 
   number of l-projection  operators is LMAX  =            4
   number of lm-projection operators is LMMAX =            8
 
 POTCAR:    PAW_PBE I 08Apr2002                   
   SHA256 =  e40f3f59b681c1fc3e3091736183c4589116986673d2b852a5012aec72758799 I/POTCAR              
   COPYR  = (c) Copyright 08Apr2002 Georg Kresse                                                    
   COPYR  = This file is part of the software VASP. Any use, copying, and all other rights are regul
   COPYR  = If you do not have a valid VASP license, you may not use, copy or distribute this file. 
   VRHFIN =I : s2p5                                                                                 
   LEXCH  = PE                                                                                      
   EATOM  =   315.8678 eV,   23.2156 Ry                                                             
                                                                                                    
   TITEL  = PAW_PBE I 08Apr2002                                                                     
   LULTRA =        F    use ultrasoft PP ?                                                          
   IUNSCR =        1    unscreen: 0-lin 1-nonlin 2-no                                               
   RPACOR =    2.200    partial core radius                                                         
   POMASS =  126.904; ZVAL   =    7.000    mass and valenz                                          
   RCORE  =    2.300    outmost cutoff radius                                                       
   RWIGS  =    2.810; RWIGS  =    1.487    wigner-seitz radius (au A)                               
   ENMAX  =  175.647; ENMIN  =  131.735 eV                                                          
   ICORE  =        3    local potential                                                             
   LCOR   =        T    correct aug charges                                                         
   LPAW   =        T    paw PP                                                                      
   EAUG   =  370.139                                                                                
   DEXC   =    0.000                                                                                
   RMAX   =    2.359    core radius for proj-oper                                                   
   RAUG   =    1.300    factor for augmentation sphere                                              
   RDEP   =    2.392    radius for radial grids                                                     
   RDEPT  =    2.170    core radius for aug-charge                                                  
                                                                                                    
   Atomic configuration                                                                             
   13 entries                                                                                       
     n  l   j            E        occ.                                                              
     1  0  0.50    -32976.3739   2.0000                                                             
     2  0  0.50     -5094.5933   2.0000                                                             
     2  1  1.50     -4572.0131   6.0000                                                             
     3  0  0.50     -1028.2813   2.0000                                                             
     3  1  1.50      -859.0250   6.0000                                                             
     3  2  2.50      -605.7620  10.0000                                                             
     4  0  0.50      -180.5540   2.0000                                                             
     4  1  1.50      -127.5306   6.0000                                                             
     4  2  2.50       -50.2720  10.0000                                                             
     5  0  0.50       -17.4058   2.0000                                                             
     5  1  0.50        -7.0851   5.0000                                                             
     5  2  1.50        -7.0750   0.0000                                                             
     4  3  2.50        -7.0750   0.0000                                                             
   Description                                                                                      
     l       E           TYP  RCUT    TYP  RCUT                                                     
     0    -17.4058016     23  2.300                                                                 
     0    -18.7663842     23  2.300                                                                 
     1     -7.0850686     23  2.300                                                                 
     1     -4.2150896     23  2.300                                                                 
     2     -7.0750295     23  2.300                                                                 
     3     -1.3605826     23  2.300                                                                 
  local pseudopotential read in
  partial core-charges read in
  partial kinetic energy density read in
  atomic valenz-charges read in
  non local Contribution for L=            0  read in
    real space projection operators read in
  non local Contribution for L=            0  read in
    real space projection operators read in
  non local Contribution for L=            1  read in
    real space projection operators read in
  non local Contribution for L=            1  read in
    real space projection operators read in
  non local Contribution for L=            2  read in
    real space projection operators read in
    PAW grid and wavefunctions read in
 
   number of l-projection  operators is LMAX  =            5
   number of lm-projection operators is LMMAX =           13
 
 POTCAR:    PAW_PBE Pb 08Apr2002                  
   SHA256 =  797118a27cf1bcd06b9881c67a26cdde129e3cd1a551dd4a281f9681ce847303 Pb/POTCAR             
   COPYR  = (c) Copyright 08Apr2002 Georg Kresse                                                    
   COPYR  = This file is part of the software VASP. Any use, copying, and all other rights are regul
   COPYR  = If you do not have a valid VASP license, you may not use, copy or distribute this file. 
   VRHFIN =Pb:                                                                                      
   LEXCH  = PE                                                                                      
   EATOM  =    96.9868 eV,    7.1283 Ry                                                             
                                                                                                    
   TITEL  = PAW_PBE Pb 08Apr2002                                                                    
   LULTRA =        F    use ultrasoft PP ?                                                          
   IUNSCR =        1    unscreen: 0-lin 1-nonlin 2-no                                               
   RPACOR =    2.200    partial core radius                                                         
   POMASS =  207.200; ZVAL   =    4.000    mass and valenz                                          
   RCORE  =    3.100    outmost cutoff radius                                                       
   RWIGS  =    3.260; RWIGS  =    1.725    wigner-seitz radius (au A)                               
   ENMAX  =   97.973; ENMIN  =   73.480 eV                                                          
   ICORE  =        3    local potential                                                             
   LCOR   =        T    correct aug charges                                                         
   LPAW   =        T    paw PP                                                                      
   EAUG   =  234.873                                                                                
   DEXC   =    0.000                                                                                
   RMAX   =    3.158    core radius for proj-oper                                                   
   RAUG   =    1.300    factor for augmentation sphere                                              
   RDEP   =    3.202    radius for radial grids                                                     
   RDEPT  =    2.659    core radius for aug-charge                                                  
                                                                                                    
   Atomic configuration                                                                             
   17 entries                                                                                       
     n  l   j            E        occ.                                                              
     1  0  0.50    -88091.8466   2.0000                                                             
     2  0  0.50    -15753.4197   2.0000                                                             
     2  1  1.50    -13508.1797   6.0000                                                             
     3  0  0.50     -3781.7194   2.0000                                                             
     3  1  1.50     -3138.2529   6.0000                                                             
     3  2  2.50     -2483.2977  10.0000                                                             
     4  0  0.50      -856.2895   2.0000                                                             
     4  1  1.50      -645.4943   6.0000                                                             
     4  2  2.50      -401.8768  10.0000                                                             
     4  3  3.50      -132.9059  14.0000                                                             
     5  0  0.50      -144.0950   2.0000                                                             
     5  1  1.50       -85.7879   6.0000                                                             
     5  2  2.50       -21.1769  10.0000                                                             
     6  0  0.50       -12.0372   2.0000                                                             
     6  1  1.50        -3.4971   2.0000                                                             
     6  2  2.50        -1.3606   0.0000                                                             
     5  3  2.50        -2.7212   0.0000                                                             
   Description                                                                                      
     l       E           TYP  RCUT    TYP  RCUT                                                     
     0    -12.0371566     23  3.100                                                                 
     0    -13.3977392     23  3.100                                                                 
     1     -3.4971341     23  3.100                                                                 
     1     -5.4423304     23  3.100                                                                 
     2     -1.3605826     23  3.100                                                                 
     3     -1.3605826     23  3.100                                                                 
  local pseudopotential read in
  partial core-charges read in
  partial kinetic energy density read in
  atomic valenz-charges read in
  non local Contribution for L=            0  read in
    real space projection operators read in
  non local Contribution for L=            0  read in
    real space projection operators read in
  non local Contribution for L=            1  read in
    real space projection operators read in
  non local Contribution for L=            1  read in
    real space projection operators read in
  non local Contribution for L=            2  read in
    real space projection operators read in
    PAW grid and wavefunctions read in
 
   number of l-projection  operators is LMAX  =            5
   number of lm-projection operators is LMMAX =           13
 
 Optimization of the real space projectors (new method)

 maximal supplied QI-value         = 34.20
 optimisation between [QCUT,QGAM] = [ 11.29, 22.57] = [ 35.68,142.71] Ry 
 Optimized for a Real-space Cutoff    1.16 Angstroem

   l    n(q)    QCUT    max X(q) W(low)/X(q) W(high)/X(q)  e(spline) 
   0      8    11.287    19.460    0.40E-03    0.73E-03    0.16E-06
   0      8    11.287    12.209    0.38E-03    0.70E-03    0.15E-06
   1      7    11.287     4.655    0.22E-03    0.25E-04    0.22E-06
 Optimization of the real space projectors (new method)

 maximal supplied QI-value         = 25.13
 optimisation between [QCUT,QGAM] = [ 11.31, 22.87] = [ 35.82,146.48] Ry 
 Optimized for a Real-space Cutoff    1.00 Angstroem

   l    n(q)    QCUT    max X(q) W(low)/X(q) W(high)/X(q)  e(spline) 
   0      7    11.310   115.676    0.43E-03    0.13E-02    0.19E-06
   0      7    11.310    87.132    0.43E-03    0.13E-02    0.18E-06
   1      6    11.310     4.429    0.42E-03    0.74E-03    0.11E-06
   1      6    11.310     2.733    0.34E-03    0.55E-03    0.92E-07
 Optimization of the real space projectors (new method)

 maximal supplied QI-value         = 25.13
 optimisation between [QCUT,QGAM] = [ 11.31, 22.87] = [ 35.82,146.48] Ry 
 Optimized for a Real-space Cutoff    1.27 Angstroem

   l    n(q)    QCUT    max X(q) W(low)/X(q) W(high)/X(q)  e(spline) 
   0      9    11.310    79.467    0.75E-04    0.16E-03    0.36E-06
   0      9    11.310    66.151    0.74E-04    0.16E-03    0.36E-06
   1      8    11.310    17.416    0.35E-03    0.12E-03    0.95E-06
   1      8    11.310    12.382    0.37E-03    0.13E-03    0.98E-06
 Optimization of the real space projectors (new method)

 maximal supplied QI-value         = 16.25
 optimisation between [QCUT,QGAM] = [ 11.38, 22.75] = [ 36.24,144.96] Ry 
 Optimized for a Real-space Cutoff    1.31 Angstroem

   l    n(q)    QCUT    max X(q) W(low)/X(q) W(high)/X(q)  e(spline) 
   0      9    11.376   194.483    0.24E-03    0.23E-03    0.67E-07
   0      9    11.376   190.334    0.23E-03    0.22E-03    0.65E-07
   1      8    11.376   116.687    0.25E-03    0.63E-04    0.16E-06
   1      8    11.376    88.696    0.25E-03    0.61E-04    0.16E-06
   2      8    11.376     4.877    0.17E-03    0.14E-03    0.29E-07
 Optimization of the real space projectors (new method)

 maximal supplied QI-value         = 12.09
 optimisation between [QCUT,QGAM] = [ 11.37, 22.86] = [ 36.19,146.31] Ry 
 Optimized for a Real-space Cutoff    1.66 Angstroem

   l    n(q)    QCUT    max X(q) W(low)/X(q) W(high)/X(q)  e(spline) 
   0     11    11.369   135.111    0.12E-03    0.69E-04    0.19E-05
   0     11    11.369   146.850    0.11E-03    0.65E-04    0.18E-05
   1     11    11.369   148.016    0.17E-03    0.32E-03    0.89E-06
   1     11    11.369   122.989    0.17E-03    0.32E-03    0.91E-06
   2     10    11.369     8.916    0.12E-03    0.45E-04    0.33E-06
  PAW_PBE H 15Jun2001                   :
 energy of atom  1       EATOM=  -12.4884
 kinetic energy error for atom=    0.0020 (will be added to EATOM!!)
  PAW_PBE C 08Apr2002                   :
 energy of atom  2       EATOM= -147.1560
 kinetic energy error for atom=    0.0076 (will be added to EATOM!!)
  PAW_PBE N 08Apr2002                   :
 energy of atom  3       EATOM= -264.5486
 kinetic energy error for atom=    0.0138 (will be added to EATOM!!)
  PAW_PBE I 08Apr2002                   :
 energy of atom  4       EATOM= -315.8678
 kinetic energy error for atom=    0.0009 (will be added to EATOM!!)
  PAW_PBE Pb 08Apr2002                  :
 energy of atom  5       EATOM=  -96.9868
 kinetic energy error for atom=    0.0000 (will be added to EATOM!!)
 
 
 POSCAR:  H  C  N  I Pb
  positions in cartesian coordinates
  No initial velocities read in
 exchange correlation table for  LEXCH =        8
   RHO(1)=    0.500       N(1)  =     2000
   RHO(2)=  100.500       N(2)  =     4000
 


--------------------------------------------------------------------------------------------------------


 ion  position               nearest neighbor table
   1  0.412  0.274  0.568- 187 1.02
   2  0.411  0.706  0.574- 188 1.03
   3  0.929  0.286  0.581- 189 1.03
   4  0.932  0.813  0.574- 190 1.03
   5  0.324  0.089  0.567- 194 1.01
   6  0.317  0.577  0.570- 195 1.02
   7  0.801  0.094  0.571- 196 1.01
   8  0.110  0.239  0.563- 183 1.03
   9  0.083  0.680  0.569- 184 1.02
  10  0.594  0.190  0.565- 185 1.02
  11  0.602  0.742  0.559- 186 1.04
  12  0.378  0.020  0.556- 194 1.03
  13  0.253  0.623  0.554- 195 1.02
  14  0.874  0.043  0.560- 196 1.02
  15  0.062  0.285  0.583- 183 1.02
  16  0.997  0.692  0.582- 184 1.03
  17  0.502  0.172  0.573- 185 1.03
  18  0.547  0.686  0.576- 186 1.03
  19  0.304  0.441  0.574- 191 1.02
  20  0.190  0.064  0.570- 192 1.01
  21  0.678  0.031  0.573- 193 1.01
  22  0.449  0.358  0.559- 187 1.03
  23  0.378  0.775  0.557- 188 1.02
  24  0.885  0.236  0.561- 189 1.02
  25  0.978  0.873  0.557- 190 1.03
  26  0.232  0.400  0.560- 191 1.02
  27  0.155  0.986  0.558- 192 1.01
  28  0.676  0.942  0.562- 193 1.01
  29  0.565  0.310  0.554- 146 1.09
  30  0.501  0.806  0.546- 147 1.09
  31  0.999  0.199  0.546- 144 1.09
  32  0.077  0.792  0.551- 145 1.09
  33  0.189  0.512  0.546- 148 1.09
  34  0.276  0.946  0.548- 149 1.10
  35  0.799  0.942  0.553- 150 1.09
  36  0.454  0.291  0.675- 205 1.03
  37  0.438  0.812  0.672- 206 1.02
  38  0.962  0.281  0.679- 207 1.01
  39  0.919  0.746  0.670- 208 1.02
  40  0.300  0.042  0.675- 209 1.02
  41  0.307  0.553  0.674- 210 1.03
  42  0.793  0.053  0.676- 211 1.02
  43  0.824  0.512  0.671- 212 1.02
  44  0.089  0.171  0.647- 197 1.02
  45  0.103  0.695  0.652- 198 1.02
  46  0.576  0.166  0.645- 199 1.02
  47  0.574  0.678  0.652- 200 1.02
  48  0.184  0.414  0.651- 201 1.01
  49  0.164  0.931  0.645- 202 1.02
  50  0.645  0.453  0.651- 203 1.03
  51  0.676  0.916  0.648- 204 1.02
  52  0.067  0.186  0.673- 197 1.03
  53  0.029  0.660  0.667- 198 1.03
  54  0.545  0.182  0.671- 199 1.02
  55  0.541  0.712  0.676- 200 1.03
  56  0.216  0.442  0.676- 201 1.03
  57  0.186  0.953  0.672- 202 1.03
  58  0.704  0.437  0.672- 203 1.02
  59  0.696  0.947  0.674- 204 1.03
  60  0.439  0.341  0.652- 205 1.02
  61  0.414  0.831  0.645- 206 1.02
  62  0.926  0.320  0.655- 207 1.01
  63  0.929  0.832  0.657- 208 1.02
  64  0.342  0.062  0.651- 209 1.01
  65  0.322  0.588  0.649- 210 1.01
  66  0.827  0.080  0.651- 211 1.02
  67  0.834  0.572  0.649- 212 1.02
  68  0.002  0.253  0.633- 151 1.09
  69  0.044  0.805  0.644- 152 1.09
  70  0.513  0.267  0.631- 153 1.08
  71  0.498  0.749  0.631- 154 1.08
  72  0.259  0.995  0.630- 156 1.09
  73  0.247  0.503  0.632- 155 1.08
  74  0.758  0.995  0.632- 158 1.09
  75  0.721  0.539  0.635- 157 1.10
  76  0.449  0.301  0.769- 221 1.02
  77  0.449  0.801  0.769- 222 1.02
  78  0.949  0.301  0.769- 223 1.02
  79  0.949  0.801  0.769- 224 1.02
  80  0.301  0.051  0.769- 225 1.02
  81  0.301  0.551  0.769- 226 1.02
  82  0.801  0.051  0.769- 227 1.02
  83  0.801  0.551  0.769- 228 1.02
  84  0.079  0.171  0.743- 213 1.02
  85  0.079  0.671  0.743- 214 1.02
  86  0.579  0.171  0.743- 215 1.02
  87  0.579  0.671  0.743- 216 1.02
  88  0.171  0.421  0.743- 217 1.02
  89  0.171  0.921  0.743- 218 1.02
  90  0.671  0.421  0.743- 219 1.02
  91  0.671  0.921  0.743- 220 1.02
  92  0.051  0.199  0.769- 213 1.02
  93  0.051  0.699  0.769- 214 1.02
  94  0.551  0.199  0.769- 215 1.02
  95  0.551  0.699  0.769- 216 1.02
  96  0.199  0.449  0.769- 217 1.02
  97  0.199  0.949  0.769- 218 1.02
  98  0.699  0.449  0.769- 219 1.02
  99  0.699  0.949  0.769- 220 1.02
 100  0.421  0.329  0.743- 221 1.02
 101  0.421  0.829  0.743- 222 1.02
 102  0.921  0.329  0.743- 223 1.02
 103  0.921  0.829  0.743- 224 1.02
 104  0.329  0.079  0.743- 225 1.02
 105  0.329  0.579  0.743- 226 1.02
 106  0.829  0.079  0.743- 227 1.02
 107  0.829  0.579  0.743- 228 1.02
 108  0.000  0.250  0.726- 161 1.09
 109  0.000  0.750  0.726- 162 1.09
 110  0.500  0.250  0.726- 159 1.09
 111  0.500  0.750  0.726- 160 1.09
 112  0.250  0.000  0.726- 163 1.09
 113  0.250  0.500  0.726- 164 1.09
 114  0.750  0.000  0.726- 165 1.09
 115  0.750  0.500  0.726- 166 1.09
 116  0.800  0.510  0.515- 173 1.10
 117  0.879  0.500  0.532- 173 1.10
 118  0.764  0.624  0.533- 174 1.09
 119  0.764  0.629  0.561- 174 1.10
 120  0.686  0.451  0.551- 175 1.09
 121  0.671  0.543  0.559- 175 1.10
 122  0.799  0.429  0.568- 176 1.09
 123  0.868  0.498  0.569- 176 1.10
 124  0.859  0.376  0.539- 177 1.10
 125  0.764  0.379  0.534- 177 1.10
 126  0.781  0.381  0.496- 178 1.10
 127  0.874  0.410  0.498- 178 1.12
 128  0.898  0.619  0.531- 179 1.09
 129  0.909  0.606  0.558- 179 1.10
 130  0.872  0.690  0.548- 179 1.10
 131  0.601  0.516  0.527- 180 1.10
 132  0.679  0.488  0.512- 180 1.10
 133  0.668  0.582  0.520- 180 1.09
 134  0.710  0.506  0.589- 181 1.11
 135  0.779  0.577  0.591- 181 1.09
 136  0.795  0.489  0.602- 181 1.10
 137  0.824  0.256  0.514- 182 1.10
 138  0.844  0.275  0.487- 182 1.10
 139  0.924  0.161  0.498- 168 1.10
 140  0.972  0.385  0.517- 169 1.09
 141  0.057  0.129  0.503- 170 1.09
 142  0.102  0.355  0.523- 171 1.09
 143  0.147  0.226  0.515- 172 1.09
 144  0.997  0.235  0.560-  31 1.09 189 1.31 183 1.31
 145  0.029  0.775  0.561-  32 1.09 184 1.31 190 1.31
 146  0.522  0.274  0.560-  29 1.09 187 1.30 185 1.31
 147  0.491  0.761  0.557-  30 1.09 188 1.30 186 1.32
 148  0.239  0.511  0.556-  33 1.09 195 1.31 191 1.31
 149  0.267  1.000  0.556-  34 1.10 194 1.31 192 1.32
 150  0.775  0.991  0.560-  35 1.09 196 1.31 193 1.31
 151  0.007  0.245  0.650-  68 1.09 207 1.32 197 1.32
 152  0.016  0.765  0.654-  69 1.09 208 1.30 198 1.32
 153  0.507  0.254  0.647-  70 1.08 205 1.31 199 1.32
 154  0.494  0.755  0.648-  71 1.08 206 1.31 200 1.31
 155  0.254  0.501  0.649-  73 1.08 210 1.30 201 1.32
 156  0.252  0.996  0.648-  72 1.09 209 1.31 202 1.32
 157  0.739  0.513  0.649-  75 1.10 203 1.31 212 1.32
 158  0.752  0.998  0.649-  74 1.09 211 1.30 204 1.32
 159  0.500  0.250  0.743- 110 1.09 221 1.31 215 1.31
 160  0.500  0.750  0.743- 111 1.09 222 1.31 216 1.31
 161  1.000  0.250  0.743- 108 1.09 223 1.31 213 1.31
 162  1.000  0.750  0.743- 109 1.09 224 1.31 214 1.31
 163  0.250  0.000  0.743- 112 1.09 225 1.31 218 1.31
 164  0.250  0.500  0.743- 113 1.09 226 1.31 217 1.31
 165  0.750  0.000  0.743- 114 1.09 227 1.31 220 1.31
 166  0.750  0.500  0.743- 115 1.09 228 1.31 219 1.31
 167  0.938  0.276  0.507- 169 1.39 168 1.42 182 1.51
 168  0.964  0.203  0.504- 139 1.10 170 1.39 167 1.42
 169  0.989  0.329  0.514- 140 1.09 167 1.39 171 1.40
 170  0.038  0.185  0.506- 141 1.09 168 1.39 172 1.41
 171  0.064  0.312  0.517- 142 1.09 172 1.39 169 1.40
 172  0.089  0.240  0.513- 143 1.09 171 1.39 170 1.41
 173  0.821  0.484  0.530- 116 1.10 117 1.10 177 1.52 229 1.52
 174  0.793  0.604  0.547- 118 1.09 119 1.10 179 1.52 229 1.53
 175  0.696  0.508  0.547- 120 1.09 121 1.10 180 1.52 229 1.52
 176  0.808  0.489  0.569- 122 1.09 123 1.10 181 1.50 229 1.51
 177  0.817  0.400  0.529- 124 1.10 125 1.10 173 1.52 178 1.54
 178  0.832  0.373  0.506- 126 1.10 127 1.12 182 1.53 177 1.54
 179  0.873  0.630  0.546- 128 1.09 129 1.10 130 1.10 174 1.52
 180  0.660  0.525  0.525- 133 1.09 131 1.10 132 1.10 175 1.52
 181  0.770  0.518  0.589- 135 1.09 136 1.10 134 1.11 176 1.50
 182  0.857  0.293  0.503- 138 1.10 137 1.10 167 1.51 178 1.53
 183  0.060  0.253  0.569-  15 1.02   8 1.03 144 1.31
 184  0.035  0.710  0.570-   9 1.02  16 1.03 145 1.31
 185  0.540  0.206  0.566-  10 1.02  17 1.03 146 1.31
 186  0.550  0.724  0.563-  18 1.03  11 1.04 147 1.32
 187  0.455  0.302  0.561-   1 1.02  22 1.03 146 1.30
 188  0.423  0.746  0.562-  23 1.02   2 1.03 147 1.30
 189  0.933  0.256  0.567-  24 1.02   3 1.03 144 1.31
 190  0.973  0.820  0.563-   4 1.03  25 1.03 145 1.31
 191  0.261  0.447  0.564-  19 1.02  26 1.02 148 1.31
 192  0.199  0.019  0.561-  20 1.01  27 1.01 149 1.32
 193  0.704  0.990  0.565-  21 1.01  28 1.01 150 1.31
 194  0.327  0.040  0.559-   5 1.01  12 1.03 149 1.31
 195  0.273  0.574  0.560-   6 1.02  13 1.02 148 1.31
 196  0.819  0.047  0.564-   7 1.01  14 1.02 150 1.31
 197  0.057  0.198  0.657-  44 1.02  52 1.03 151 1.32
 198  0.051  0.702  0.657-  45 1.02  53 1.03 152 1.32
 199  0.544  0.197  0.655-  54 1.02  46 1.02 153 1.32
 200  0.539  0.713  0.659-  47 1.02  55 1.03 154 1.31
 201  0.216  0.449  0.659-  48 1.01  56 1.03 155 1.32
 202  0.197  0.958  0.656-  49 1.02  57 1.03 156 1.32
 203  0.695  0.464  0.658-  58 1.02  50 1.03 157 1.31
 204  0.705  0.951  0.658-  51 1.02  59 1.03 158 1.32
 205  0.465  0.298  0.659-  60 1.02  36 1.03 153 1.31
 206  0.446  0.802  0.656-  61 1.02  37 1.02 154 1.31
 207  0.962  0.285  0.662-  62 1.01  38 1.01 151 1.32
 208  0.950  0.781  0.661-  63 1.02  39 1.02 152 1.30
 209  0.300  0.036  0.659-  64 1.01  40 1.02 156 1.31
 210  0.296  0.549  0.658-  65 1.01  41 1.03 155 1.30
 211  0.792  0.046  0.659-  66 1.02  42 1.02 158 1.30
 212  0.804  0.533  0.657-  67 1.02  43 1.02 157 1.32
 213  0.046  0.204  0.753-  92 1.02  84 1.02 161 1.31
 214  0.046  0.704  0.753-  93 1.02  85 1.02 162 1.31
 215  0.546  0.204  0.753-  94 1.02  86 1.02 159 1.31
 216  0.546  0.704  0.753-  95 1.02  87 1.02 160 1.31
 217  0.204  0.454  0.753-  96 1.02  88 1.02 164 1.31
 218  0.204  0.954  0.753-  97 1.02  89 1.02 163 1.31
 219  0.704  0.454  0.753-  98 1.02  90 1.02 166 1.31
 220  0.704  0.954  0.753-  99 1.02  91 1.02 165 1.31
 221  0.454  0.296  0.753-  76 1.02 100 1.02 159 1.31
 222  0.454  0.796  0.753-  77 1.02 101 1.02 160 1.31
 223  0.954  0.296  0.753-  78 1.02 102 1.02 161 1.31
 224  0.954  0.796  0.753-  79 1.02 103 1.02 162 1.31
 225  0.296  0.046  0.753-  80 1.02 104 1.02 163 1.31
 226  0.296  0.546  0.753-  81 1.02 105 1.02 164 1.31
 227  0.796  0.046  0.753-  82 1.02 106 1.02 165 1.31
 228  0.796  0.546  0.753-  83 1.02 107 1.02 166 1.31
 229  0.779  0.521  0.548- 176 1.51 175 1.52 173 1.52 174 1.53
 230  0.509  0.976  0.553- 304 3.18
 231  0.465  0.499  0.554- 305 3.14
 232  0.005  0.012  0.552- 302 3.29
 233  0.035  0.495  0.555- 303 3.16
 234  0.254  0.243  0.555- 306 3.20
 235  0.233  0.771  0.551- 307 3.27
 236  0.738  0.222  0.555- 308 3.22
 237  0.723  0.797  0.554- 309 3.20
 238  0.995  0.985  0.654- 302 3.15 310 3.18
 239  0.004  0.502  0.655- 311 3.09 303 3.18
 240  0.497  0.002  0.655- 312 3.14 304 3.21
 241  0.498  0.501  0.654- 313 3.15 305 3.18
 242  0.263  0.240  0.655- 314 3.10 306 3.11
 243  0.246  0.754  0.654- 307 3.16 315 3.18
 244  0.743  0.261  0.656- 316 3.09 308 3.10
 245  0.751  0.741  0.654- 309 3.17 317 3.19
 246  0.139  0.114  0.609- 302 3.19 306 3.25
 247  0.146  0.609  0.608- 303 3.14 307 3.22
 248  0.642  0.108  0.609- 308 3.24 304 3.25
 249  0.616  0.632  0.610- 305 3.19 309 3.38
 250  0.367  0.384  0.610- 306 3.15 305 3.20
 251  0.364  0.886  0.606- 307 3.17 304 3.20
 252  0.889  0.362  0.613- 308 3.26 303 3.39
 253  0.863  0.889  0.606- 309 3.10 302 3.26
 254  0.126  0.370  0.612- 306 3.20 303 3.28
 255  0.118  0.874  0.607- 307 3.13 302 3.22
 256  0.621  0.372  0.602- 308 3.19 305 3.20
 257  0.618  0.867  0.613- 309 3.13 304 3.16
 258  0.399  0.143  0.604- 306 3.24 304 3.27
 259  0.377  0.632  0.608- 305 3.24 307 3.30
 260  0.883  0.133  0.613- 302 3.16 308 3.25
 261  0.904  0.651  0.612- 303 3.27 309 3.44
 262  0.000  0.000  0.755- 310 3.13 318 3.27
 263  0.000  0.500  0.755- 311 3.13 319 3.27
 264  0.500  0.000  0.755- 312 3.13 320 3.27
 265  0.500  0.500  0.755- 313 3.13 321 3.27
 266  0.250  0.250  0.755- 314 3.13 322 3.27
 267  0.250  0.750  0.755- 315 3.13 323 3.27
 268  0.750  0.250  0.755- 316 3.13 324 3.27
 269  0.750  0.750  0.755- 317 3.13 325 3.27
 270  0.136  0.114  0.705- 310 3.20 314 3.20
 271  0.136  0.614  0.705- 311 3.20 315 3.20
 272  0.636  0.114  0.705- 312 3.20 316 3.20
 273  0.636  0.614  0.705- 313 3.20 317 3.20
 274  0.364  0.386  0.705- 313 3.20 314 3.20
 275  0.364  0.886  0.705- 312 3.20 315 3.20
 276  0.864  0.386  0.705- 311 3.20 316 3.20
 277  0.864  0.886  0.705- 310 3.20 317 3.20
 278  0.114  0.364  0.705- 314 3.21 311 3.21
 279  0.114  0.864  0.705- 315 3.21 310 3.21
 280  0.614  0.364  0.705- 316 3.21 313 3.21
 281  0.614  0.864  0.705- 317 3.21 312 3.21
 282  0.386  0.136  0.705- 314 3.21 312 3.21
 283  0.386  0.636  0.705- 315 3.21 313 3.21
 284  0.886  0.136  0.705- 316 3.21 310 3.21
 285  0.886  0.636  0.705- 317 3.21 311 3.21
 286  0.135  0.115  0.801- 318 3.22 322 3.22
 287  0.135  0.615  0.801- 319 3.22 323 3.22
 288  0.635  0.115  0.801- 320 3.22 324 3.22
 289  0.635  0.615  0.801- 321 3.22 325 3.22
 290  0.365  0.385  0.801- 321 3.22 322 3.22
 291  0.365  0.885  0.801- 320 3.22 323 3.22
 292  0.865  0.385  0.801- 319 3.22 324 3.22
 293  0.865  0.885  0.801- 318 3.22 325 3.22
 294  0.115  0.365  0.801- 319 3.23 322 3.23
 295  0.115  0.865  0.801- 318 3.23 323 3.23
 296  0.615  0.365  0.801- 321 3.23 324 3.23
 297  0.615  0.865  0.801- 320 3.23 325 3.23
 298  0.385  0.135  0.801- 320 3.23 322 3.23
 299  0.385  0.635  0.801- 321 3.23 323 3.23
 300  0.885  0.135  0.801- 318 3.23 324 3.23
 301  0.885  0.635  0.801- 319 3.23 325 3.23
 302  1.000  0.007  0.604- 238 3.15 260 3.16 246 3.19 255 3.22 253 3.26 232 3.29
 303  0.008  0.505  0.605- 247 3.14 233 3.16 239 3.18 261 3.27 254 3.28 252 3.39
 304  0.503  0.995  0.603- 257 3.16 230 3.18 251 3.20 240 3.21 248 3.25 258 3.27
 305  0.499  0.501  0.604- 231 3.14 241 3.18 249 3.19 250 3.20 256 3.20 259 3.24
 306  0.256  0.251  0.606- 242 3.11 250 3.15 234 3.20 254 3.20 258 3.24 246 3.25
 307  0.245  0.757  0.603- 255 3.13 243 3.16 251 3.17 247 3.22 235 3.27 259 3.30
 308  0.749  0.251  0.606- 244 3.10 256 3.19 236 3.22 248 3.24 260 3.25 252 3.26
 309  0.750  0.760  0.603- 253 3.10 257 3.13 245 3.17 237 3.20 249 3.38 261 3.44
 310  0.000  0.000  0.705- 262 3.13 238 3.18 270 3.20 277 3.20 279 3.21 284 3.21
 311  0.000  0.500  0.705- 239 3.09 263 3.13 271 3.20 276 3.20 278 3.21 285 3.21
 312  0.500  0.000  0.705- 264 3.13 240 3.14 272 3.20 275 3.20 281 3.21 282 3.21
 313  0.500  0.500  0.705- 265 3.13 241 3.15 273 3.20 274 3.20 280 3.21 283 3.21
 314  0.250  0.250  0.705- 242 3.10 266 3.13 270 3.20 274 3.20 282 3.21 278 3.21
 315  0.250  0.750  0.705- 267 3.13 243 3.18 271 3.20 275 3.20 283 3.21 279 3.21
 316  0.750  0.250  0.705- 244 3.09 268 3.13 272 3.20 276 3.20 284 3.21 280 3.21
 317  0.750  0.750  0.705- 269 3.13 245 3.19 273 3.20 277 3.20 285 3.21 281 3.21
 318  0.000  0.000  0.807- 286 3.22 293 3.22 300 3.23 295 3.23 262 3.27
 319  0.000  0.500  0.807- 287 3.22 292 3.22 301 3.23 294 3.23 263 3.27
 320  0.500  0.000  0.807- 288 3.22 291 3.22 298 3.23 297 3.23 264 3.27
 321  0.500  0.500  0.807- 289 3.22 290 3.22 299 3.23 296 3.23 265 3.27
 322  0.250  0.250  0.807- 290 3.22 286 3.22 294 3.23 298 3.23 266 3.27
 323  0.250  0.750  0.807- 291 3.22 287 3.22 299 3.23 295 3.23 267 3.27
 324  0.750  0.250  0.807- 292 3.22 288 3.22 296 3.23 300 3.23 268 3.27
 325  0.750  0.750  0.807- 293 3.22 289 3.22 297 3.23 301 3.23 269 3.27
 

IMPORTANT INFORMATION: All symmetrisations will be switched off!
NOSYMM: (Re-)initialisation of all symmetry stuff for point group C_1.


----------------------------------------------------------------------------------------

                                     Primitive cell                                     

  volume of cell :   20385.2105

  direct lattice vectors                    reciprocal lattice vectors
    18.060800552  0.000000000  0.000000000     0.055368531  0.000015077 -0.000000000
    -0.004918649 18.062799454  0.000000000     0.000000000  0.055362404  0.000000000
     0.000000000  0.000000000 62.487499237     0.000000000 -0.000000000  0.016003201

  length of vectors
    18.060800552 18.062800123 62.487499237     0.055368533  0.055362404  0.016003201

  position of ions in fractional coordinates (direct lattice)
     0.412015205  0.274299509  0.568239509
     0.410714363  0.706477507  0.573507164
     0.928709749  0.286282397  0.581364632
     0.932436766  0.812636951  0.574044076
     0.323544144  0.089376532  0.567091941
     0.316511186  0.577491188  0.570071358
     0.801182150  0.094482057  0.570898122
     0.110367059  0.239418760  0.562576389
     0.082505566  0.679868838  0.569001869
     0.593987238  0.190358171  0.565492500
     0.602463671  0.742307876  0.559374699
     0.378428718  0.019822691  0.555897319
     0.253208540  0.623011414  0.553993374
     0.874024331  0.042543293  0.559938533
     0.062382863  0.285458409  0.582812431
     0.997016220  0.692340870  0.581505713
     0.502416110  0.171706749  0.573258946
     0.546697702  0.686327370  0.575698643
     0.304166644  0.440908785  0.573787555
     0.189720218  0.064347187  0.570118242
     0.678395086  0.031197027  0.572650487
     0.449034270  0.357683607  0.558912937
     0.378494142  0.774925611  0.556548817
     0.884669647  0.235906551  0.561076883
     0.978413255  0.873197605  0.557071687
     0.232359463  0.399578268  0.559804289
     0.155260087  0.986179825  0.557697667
     0.675641068  0.941633130  0.562372613
     0.565462338  0.309592767  0.554401598
     0.500539335  0.806385439  0.545596980
     0.999339491  0.198773979  0.546319964
     0.076634129  0.792326308  0.551323406
     0.189220019  0.512122828  0.546336203
     0.275953866  0.945997302  0.548068544
     0.798528571  0.941737101  0.553015029
     0.454307146  0.291447517  0.674834072
     0.438162095  0.812049154  0.671689644
     0.961989868  0.281340796  0.678656125
     0.919033599  0.745805618  0.669839909
     0.299534860  0.041730921  0.674981745
     0.307086711  0.553380114  0.674190022
     0.792519005  0.053437268  0.675504616
     0.824186306  0.512414799  0.671213536
     0.089069834  0.170576601  0.646528545
     0.102892985  0.694564920  0.651638942
     0.576016512  0.166160878  0.645009991
     0.573655307  0.677679951  0.651789057
     0.184162206  0.413630561  0.650591369
     0.163585380  0.930758393  0.645427372
     0.645186967  0.452826203  0.650609805
     0.676438984  0.916045172  0.648190132
     0.066595550  0.186284273  0.673245619
     0.029028433  0.659721604  0.666567343
     0.545119662  0.181995556  0.670845542
     0.540801802  0.712058277  0.675824748
     0.215957968  0.441603101  0.675548509
     0.185537164  0.952680000  0.671793241
     0.703751061  0.436921423  0.672027663
     0.695539781  0.946724128  0.674078427
     0.439079006  0.341106581  0.651602191
     0.413820034  0.831068312  0.645439521
     0.925707182  0.319613296  0.655325287
     0.928866583  0.831793383  0.657285152
     0.341642174  0.062270363  0.650875422
     0.322028221  0.587628770  0.648775393
     0.826504297  0.080116534  0.650744659
     0.834290964  0.571987239  0.649362119
     0.002092457  0.252873568  0.632916752
     0.044183368  0.805141683  0.643716947
     0.513313236  0.266537376  0.630671308
     0.498385797  0.749195231  0.630895779
     0.258512803  0.994860526  0.630362225
     0.247388512  0.503204662  0.631916247
     0.757633405  0.995318102  0.631806056
     0.720644618  0.539341416  0.634508868
     0.448745018  0.301283966  0.768889017
     0.448745007  0.801283913  0.768889017
     0.948744965  0.301283966  0.768889017
     0.948745007  0.801283913  0.768889017
     0.301275995  0.051294496  0.768872961
     0.301276011  0.551294499  0.768872961
     0.801275943  0.051294496  0.768872961
     0.801275984  0.551294499  0.768872961
     0.078771004  0.171180501  0.743441971
     0.078771006  0.671180448  0.743441971
     0.578771004  0.171180501  0.743441971
     0.578770992  0.671180448  0.743441971
     0.171199499  0.421174482  0.743421032
     0.171199501  0.921174508  0.743421032
     0.671199512  0.421174482  0.743421032
     0.671199501  0.921174508  0.743421032
     0.051256000  0.198714991  0.768889017
     0.051256002  0.698714925  0.768889017
     0.551256027  0.198714991  0.768889017
     0.551256016  0.698714925  0.768889017
     0.198723491  0.448703970  0.768872046
     0.198723493  0.948703970  0.768872046
     0.698723518  0.448703970  0.768872046
     0.698723507  0.948703970  0.768872046
     0.421231519  0.328817467  0.743441971
     0.421231508  0.828817440  0.743441971
     0.921231466  0.328817467  0.743441971
     0.921231508  0.828817440  0.743441971
     0.328800503  0.078824997  0.743421032
     0.328800492  0.578824964  0.743421032
     0.828800477  0.078824997  0.743421032
     0.828800519  0.578824964  0.743421032
     0.000003500  0.250001478  0.725821992
     0.000003500  0.750001452  0.725821992
     0.500003506  0.250001478  0.725821992
     0.500003495  0.750001452  0.725821992
     0.250000502  0.000000000  0.725803983
     0.250000517  0.500000000  0.725803983
     0.750000502  0.000000000  0.725803983
     0.750000490  0.500000000  0.725803983
     0.799601295  0.509712718  0.514980810
     0.879357694  0.500485000  0.531577391
     0.764212826  0.624273596  0.532972202
     0.764167549  0.628641867  0.560949599
     0.685588938  0.450782615  0.550993262
     0.671270186  0.542633511  0.559114027
     0.799237002  0.429049972  0.567827012
     0.867678672  0.497626954  0.568763845
     0.858929387  0.376439173  0.539416972
     0.763504747  0.379062031  0.533989617
     0.781433522  0.381260422  0.496180755
     0.874159533  0.409859908  0.497955798
     0.898472903  0.618789604  0.530652218
     0.908939448  0.606129243  0.558481027
     0.871672894  0.690364176  0.548326835
     0.600912611  0.516201239  0.527418967
     0.678831049  0.488061489  0.512313834
     0.668465889  0.582164683  0.520256829
     0.710129793  0.505790430  0.588980779
     0.778914106  0.576892093  0.591074582
     0.794858045  0.488527851  0.602389101
     0.823545196  0.256012101  0.513596622
     0.844195000  0.275302745  0.486823597
     0.924325069  0.160718939  0.498253526
     0.972314979  0.385392027  0.517479601
     0.056732380  0.128885541  0.503368624
     0.101557117  0.354637418  0.522524799
     0.147226502  0.225971290  0.514889544
     0.997498803  0.234610737  0.560272218
     0.029485642  0.774526777  0.560859615
     0.521577856  0.273593181  0.560399440
     0.491040439  0.760771655  0.556733119
     0.239195319  0.511117612  0.556098714
     0.267460345  0.999736473  0.555830716
     0.774837181  0.991286176  0.560373495
     0.006703236  0.245471805  0.650241201
     0.015645366  0.764563270  0.653528358
     0.507498482  0.254222311  0.647460311
     0.494366835  0.754702665  0.648052531
     0.253586787  0.500721111  0.649146561
     0.252498710  0.996389601  0.647706087
     0.739249026  0.512886335  0.649364622
     0.752233837  0.997901893  0.649089237
     0.499988984  0.249994984  0.743277021
     0.499989025  0.749994958  0.743277021
     0.999988984  0.249994984  0.743277021
     0.999989025  0.749994958  0.743277021
     0.250000502  0.000001000  0.743255960
     0.250000517  0.500001003  0.743255960
     0.750000502  0.000001000  0.743255960
     0.750000491  0.500001003  0.743255960
     0.937516029  0.276279449  0.507260394
     0.963837394  0.203228033  0.503691839
     0.988809340  0.328819315  0.514042878
     0.038108460  0.185486131  0.506361838
     0.063937686  0.311714047  0.516752160
     0.088962440  0.239947185  0.512890976
     0.820817244  0.484355671  0.529705374
     0.792968584  0.604313319  0.547201488
     0.696283162  0.508275882  0.546605727
     0.807546193  0.488665917  0.568911885
     0.817328197  0.400209016  0.528653894
     0.832023450  0.373159855  0.505617609
     0.872803730  0.629854313  0.546185171
     0.660469608  0.524862280  0.525207648
     0.770206056  0.517734801  0.588728410
     0.856828261  0.292605502  0.503285539
     0.060128881  0.253234282  0.569402095
     0.034713146  0.709984225  0.570237956
     0.539558309  0.205732162  0.565617098
     0.549803179  0.724307819  0.563486545
     0.455230538  0.301781981  0.561492738
     0.422980047  0.745939408  0.562234951
     0.932713011  0.255701967  0.567444673
     0.972710022  0.819585023  0.562576389
     0.260639030  0.446672842  0.563560107
     0.199472573  0.018742104  0.561163814
     0.703647627  0.989645636  0.564600232
     0.326524817  0.040294837  0.559358094
     0.273138339  0.573950152  0.559728224
     0.819250761  0.047475820  0.563847212
     0.056567009  0.197967640  0.657394793
     0.050769397  0.701666686  0.657459564
     0.544171104  0.196946136  0.655129630
     0.538544559  0.712846705  0.659374009
     0.215778472  0.448811835  0.659258630
     0.196912301  0.958349377  0.655798953
     0.694754689  0.464377232  0.657996537
     0.705456755  0.950769627  0.657919495
     0.464939576  0.297700982  0.658741314
     0.446428445  0.801802651  0.655742363
     0.961860683  0.284610293  0.662443898
     0.949917592  0.781059120  0.660756976
     0.300390469  0.035936519  0.658688936
     0.296356547  0.549472926  0.658073945
     0.792146179  0.046334974  0.659234272
     0.804092093  0.532840224  0.657138027
     0.045862501  0.204119496  0.752725994
     0.045862500  0.704119456  0.752725994
     0.545862507  0.204119496  0.752725994
     0.545862496  0.704119456  0.752725994
     0.204119002  0.454101003  0.752704994
     0.204118991  0.954100951  0.752704994
     0.704118976  0.454101003  0.752704994
     0.704118964  0.954100951  0.752704994
     0.454140018  0.295888490  0.752726971
     0.454140007  0.795888516  0.752726971
     0.954140018  0.295888490  0.752726971
     0.954140060  0.795888516  0.752726971
     0.295882492  0.045900498  0.752704994
     0.295882481  0.545900528  0.752704994
     0.795882439  0.045900498  0.752704994
     0.795882481  0.545900528  0.752704994
     0.779307718  0.520911956  0.548131300
     0.509017962  0.976201614  0.552789398
     0.464549833  0.498568179  0.554324251
     0.005281435  0.012392263  0.551665699
     0.034704458  0.494518806  0.554666543
     0.253784540  0.243056205  0.554775085
     0.233335391  0.770535112  0.551255033
     0.737661303  0.222343085  0.555356256
     0.722797261  0.796636501  0.554014557
     0.994670237  0.985415912  0.654180160
     0.004090775  0.501714025  0.655387677
     0.497033172  0.002296188  0.654549863
     0.498199573  0.501262815  0.654488450
     0.263177964  0.240012391  0.655455318
     0.245983299  0.754468085  0.653889758
     0.743133124  0.260542988  0.655584128
     0.751408855  0.740769298  0.653913933
     0.139327489  0.113520103  0.608778746
     0.145620529  0.609412679  0.607870239
     0.641620490  0.107824828  0.609025804
     0.615626700  0.631604293  0.609737922
     0.367449800  0.383926758  0.610470857
     0.363903777  0.885518636  0.606080086
     0.888532537  0.362494640  0.613418834
     0.863073433  0.888976885  0.605795849
     0.126303829  0.369954718  0.612308504
     0.118124390  0.873785455  0.606851541
     0.620809445  0.372463717  0.602475117
     0.618205242  0.867324178  0.612719964
     0.399317101  0.143375976  0.604351530
     0.377417204  0.632088448  0.607545650
     0.882722048  0.132977324  0.612634314
     0.904143528  0.651166634  0.611512569
     0.000000000  0.000000000  0.754927972
     0.000000000  0.500000000  0.754927972
     0.500000000  0.000000000  0.754927972
     0.499999989  0.500000000  0.754927972
     0.250000496  0.250000000  0.754939022
     0.250000511  0.749999974  0.754939022
     0.750000470  0.250000000  0.754939022
     0.750000458  0.749999974  0.754939022
     0.135790500  0.114209997  0.704782994
     0.135790502  0.614209984  0.704782994
     0.635790447  0.114209997  0.704782994
     0.635790488  0.614209984  0.704782994
     0.364209516  0.385789989  0.704782994
     0.364209505  0.885789963  0.704782994
     0.864209542  0.385789989  0.704782994
     0.864209531  0.885789963  0.704782994
     0.114217990  0.364218986  0.704780979
     0.114217992  0.864218986  0.704780979
     0.614218004  0.364218986  0.704780979
     0.614217992  0.864218986  0.704780979
     0.385782012  0.135781489  0.704782017
     0.385782001  0.635781489  0.704782017
     0.885781985  0.135781489  0.704782017
     0.885782027  0.635781489  0.704782017
     0.134667000  0.115332001  0.801256025
     0.134666989  0.615331988  0.801256025
     0.634666987  0.115332001  0.801256025
     0.634666976  0.615331988  0.801256025
     0.365333002  0.384667985  0.801256025
     0.365332990  0.884667959  0.801256025
     0.865332949  0.384667985  0.801256025
     0.865332938  0.884667959  0.801256025
     0.115328503  0.365337004  0.801264999
     0.115328505  0.865336978  0.801264999
     0.615328503  0.365337004  0.801264999
     0.615328492  0.865336978  0.801264999
     0.384671513  0.134662996  0.801264999
     0.384671501  0.634662970  0.801264999
     0.884671486  0.134662996  0.801264999
     0.884671528  0.634662970  0.801264999
     0.999883328  0.006618808  0.604226505
     0.007652479  0.504519959  0.604535099
     0.503062647  0.994915120  0.603308474
     0.498570633  0.500714195  0.603652659
     0.255683458  0.250798908  0.605902011
     0.244888034  0.756549212  0.603259087
     0.748796951  0.251284278  0.606120865
     0.750337642  0.760008676  0.603453645
     0.000000500  0.000000500  0.704828963
     0.000000500  0.500000475  0.704828963
     0.500000475  0.000000500  0.704828963
     0.500000464  0.500000475  0.704828963
     0.249999994  0.249999472  0.704824995
     0.250000010  0.749999498  0.704824995
     0.749999994  0.249999472  0.704824995
     0.749999983  0.749999498  0.704824995
     0.000000000  0.000000000  0.807317968
     0.000000000  0.500000000  0.807317968
     0.500000000  0.000000000  0.807317968
     0.499999989  0.500000000  0.807317968
     0.249999994  0.250000000  0.807317968
     0.250000010  0.749999974  0.807317968
     0.749999994  0.250000000  0.807317968
     0.749999983  0.749999974  0.807317968

  ion indices of the primitive-cell ions
   primitive index   ion index
                 1           1
                 2           2
                 3           3
                 4           4
                 5           5
                 6           6
                 7           7
                 8           8
                 9           9
                10          10
                11          11
                12          12
                13          13
                14          14
                15          15
                16          16
                17          17
                18          18
                19          19
                20          20
                21          21
                22          22
                23          23
                24          24
                25          25
                26          26
                27          27
                28          28
                29          29
                30          30
                31          31
                32          32
                33          33
                34          34
                35          35
                36          36
                37          37
                38          38
                39          39
                40          40
                41          41
                42          42
                43          43
                44          44
                45          45
                46          46
                47          47
                48          48
                49          49
                50          50
                51          51
                52          52
                53          53
                54          54
                55          55
                56          56
                57          57
                58          58
                59          59
                60          60
                61          61
                62          62
                63          63
                64          64
                65          65
                66          66
                67          67
                68          68
                69          69
                70          70
                71          71
                72          72
                73          73
                74          74
                75          75
                76          76
                77          77
                78          78
                79          79
                80          80
                81          81
                82          82
                83          83
                84          84
                85          85
                86          86
                87          87
                88          88
                89          89
                90          90
                91          91
                92          92
                93          93
                94          94
                95          95
                96          96
                97          97
                98          98
                99          99
               100         100
               101         101
               102         102
               103         103
               104         104
               105         105
               106         106
               107         107
               108         108
               109         109
               110         110
               111         111
               112         112
               113         113
               114         114
               115         115
               116         116
               117         117
               118         118
               119         119
               120         120
               121         121
               122         122
               123         123
               124         124
               125         125
               126         126
               127         127
               128         128
               129         129
               130         130
               131         131
               132         132
               133         133
               134         134
               135         135
               136         136
               137         137
               138         138
               139         139
               140         140
               141         141
               142         142
               143         143
               144         144
               145         145
               146         146
               147         147
               148         148
               149         149
               150         150
               151         151
               152         152
               153         153
               154         154
               155         155
               156         156
               157         157
               158         158
               159         159
               160         160
               161         161
               162         162
               163         163
               164         164
               165         165
               166         166
               167         167
               168         168
               169         169
               170         170
               171         171
               172         172
               173         173
               174         174
               175         175
               176         176
               177         177
               178         178
               179         179
               180         180
               181         181
               182         182
               183         183
               184         184
               185         185
               186         186
               187         187
               188         188
               189         189
               190         190
               191         191
               192         192
               193         193
               194         194
               195         195
               196         196
               197         197
               198         198
               199         199
               200         200
               201         201
               202         202
               203         203
               204         204
               205         205
               206         206
               207         207
               208         208
               209         209
               210         210
               211         211
               212         212
               213         213
               214         214
               215         215
               216         216
               217         217
               218         218
               219         219
               220         220
               221         221
               222         222
               223         223
               224         224
               225         225
               226         226
               227         227
               228         228
               229         229
               230         230
               231         231
               232         232
               233         233
               234         234
               235         235
               236         236
               237         237
               238         238
               239         239
               240         240
               241         241
               242         242
               243         243
               244         244
               245         245
               246         246
               247         247
               248         248
               249         249
               250         250
               251         251
               252         252
               253         253
               254         254
               255         255
               256         256
               257         257
               258         258
               259         259
               260         260
               261         261
               262         262
               263         263
               264         264
               265         265
               266         266
               267         267
               268         268
               269         269
               270         270
               271         271
               272         272
               273         273
               274         274
               275         275
               276         276
               277         277
               278         278
               279         279
               280         280
               281         281
               282         282
               283         283
               284         284
               285         285
               286         286
               287         287
               288         288
               289         289
               290         290
               291         291
               292         292
               293         293
               294         294
               295         295
               296         296
               297         297
               298         298
               299         299
               300         300
               301         301
               302         302
               303         303
               304         304
               305         305
               306         306
               307         307
               308         308
               309         309
               310         310
               311         311
               312         312
               313         313
               314         314
               315         315
               316         316
               317         317
               318         318
               319         319
               320         320
               321         321
               322         322
               323         323
               324         324
               325         325

----------------------------------------------------------------------------------------

 
 
 KPOINTS: Automatic Mesh                          

Automatic generation of k-mesh.
 Grid dimensions read from file:
 generate k-points for:    3    3    1

 Generating k-lattice:

  Cartesian coordinates                     Fractional coordinates (reciprocal lattice)
     0.018456177  0.000005026 -0.000000000     0.333333333  0.000000000  0.000000000
     0.000000000  0.018454135  0.000000000     0.000000000  0.333333333  0.000000000
     0.000000000 -0.000000000  0.016003201     0.000000000  0.000000000  1.000000000

  Length of vectors
     0.018456178  0.018454135  0.016003201

  Shift w.r.t. Gamma in fractional coordinates (k-lattice)
     0.000000000  0.000000000  0.000000000

 
 Subroutine IBZKPT returns following result:
 ===========================================
 
 Found      5 irreducible k-points:
 
 Following reciprocal coordinates:
            Coordinates               Weight
  0.000000  0.000000  0.000000      1.000000
  0.333333  0.000000  0.000000      2.000000
  0.000000  0.333333  0.000000      2.000000
  0.333333  0.333333  0.000000      2.000000
 -0.333333  0.333333  0.000000      2.000000
 
 Following cartesian coordinates:
            Coordinates               Weight
  0.000000  0.000000  0.000000      1.000000
  0.018456  0.000005  0.000000      2.000000
  0.000000  0.018454  0.000000      2.000000
  0.018456  0.018459  0.000000      2.000000
 -0.018456  0.018449  0.000000      2.000000
 


--------------------------------------------------------------------------------------------------------




 Dimension of arrays:
   k-points           NKPTS =      5   k-points in BZ     NKDIM =      5   number of bands    NBANDS=    732
   number of dos      NEDOS =    301   number of ions     NIONS =    325
   non local maximal  LDIM  =      5   non local SUM 2l+1 LMDIM =     13
   total plane-waves  NPLWV = ******
   max r-space proj   IRMAX =   3336   max aug-charges    IRDMAX=  19845
   dimension x,y,z NGX =   100 NGY =  100 NGZ =  350
   dimension x,y,z NGXF=   200 NGYF=  200 NGZF=  700
   support grid    NGXF=   200 NGYF=  200 NGZF=  700
   ions per type =             143  39  47  72  24
   NGX,Y,Z   is equivalent  to a cutoff of   9.20,  9.20,  9.31 a.u.
   NGXF,Y,Z  is equivalent  to a cutoff of  18.41, 18.41, 18.62 a.u.

 SYSTEM =  PSC                                     
 POSCAR =   H  C  N  I Pb                          

 Startparameter for this run:
   NWRITE =      2    write-flag & timer
   PREC   = normal    normal or accurate (medium, high low for compatibility)
   ISTART =      0    job   : 0-new  1-cont  2-samecut
   ICHARG =      1    charge: 1-file 2-atom 10-const
   ISPIN  =      1    spin polarized calculation?
   LNONCOLLINEAR =      F non collinear calculations
   LSORBIT =      F    spin-orbit coupling
   INIWAV =      1    electr: 0-lowe 1-rand  2-diag
   LASPH  =      F    aspherical Exc in radial PAW
 Electronic Relaxation 1
   ENCUT  =  500.0 eV  36.75 Ry    6.06 a.u.  32.93 32.93113.93*2*pi/ulx,y,z
   ENINI  =  500.0     initial cutoff
   ENAUG  =  644.9 eV  augmentation charge cutoff
   NELM   =    600;   NELMIN=  2; NELMDL=  0     # of ELM steps 
   EDIFF  = 0.1E-03   stopping-criterion for ELM
   LREAL  =      T    real-space projection
   NLSPLINE    = F    spline interpolate recip. space projectors
   LCOMPAT=      F    compatible to vasp.4.4
   GGA_COMPAT  = F    GGA compatible to vasp.4.4-vasp.4.6
   LMAXPAW     = -100 max onsite density
   LMAXMIX     =    2 max onsite mixed and CHGCAR
   VOSKOWN=      0    Vosko Wilk Nusair interpolation
   ROPT   =   -0.00050  -0.00050  -0.00050  -0.00050
   ROPT   =   -0.00050
 Ionic relaxation
   EDIFFG = 0.1E-02   stopping-criterion for IOM
   NSW    =      0    number of steps for IOM
   NBLOCK =      1;   KBLOCK =      1    inner block; outer block 
   IBRION =     -1    ionic relax: 0-MD 1-quasi-New 2-CG
   NFREE  =      0    steps in history (QN), initial steepest desc. (CG)
   ISIF   =      2    stress and relaxation
   IWAVPR =     10    prediction:  0-non 1-charg 2-wave 3-comb
   ISYM   =      0    0-nonsym 1-usesym 2-fastsym
   LCORR  =      T    Harris-Foulkes like correction to forces

   POTIM  = 0.5000    time-step for ionic-motion
   TEIN   =    0.0    initial temperature
   TEBEG  =    0.0;   TEEND  =   0.0 temperature during run
   SMASS  =  -3.00    Nose mass-parameter (am)
   estimated Nose-frequenzy (Omega)   =  0.10E-29 period in steps = 0.13E+47 mass=  -0.745E-26a.u.
   SCALEE = 1.0000    scale energy and forces
   NPACO  =    256;   APACO  = 16.0  distance and # of slots for P.C.
   PSTRESS=    0.0 pullay stress

  Mass of Ions in am
   POMASS =   1.00 12.01 14.00126.90207.20
  Ionic Valenz
   ZVAL   =   1.00  4.00  5.00  7.00  4.00
  Atomic Wigner-Seitz radii
   RWIGS  =  -1.00 -1.00 -1.00 -1.00 -1.00
  virtual crystal weights 
   VCA    =   1.00  1.00  1.00  1.00  1.00
   NELECT =    1134.0000    total number of electrons
   NUPDOWN=      -1.0000    fix difference up-down

 DOS related values:
   EMIN   =  10.00;   EMAX   =-10.00  energy-range for DOS
   EFERMI =   0.00
   ISMEAR =     0;   SIGMA  =   0.05  broadening in eV -4-tet -1-fermi 0-gaus

 Electronic relaxation 2 (details)
   IALGO  =     38    algorithm
   LDIAG  =      T    sub-space diagonalisation (order eigenvalues)
   LSUBROT=      F    optimize rotation matrix (better conditioning)
   TURBO    =      0    0=normal 1=particle mesh
   IRESTART =      0    0=no restart 2=restart with 2 vectors
   NREBOOT  =      0    no. of reboots
   NMIN     =      0    reboot dimension
   EREF     =   0.00    reference energy to select bands
   IMIX   =      4    mixing-type and parameters
     AMIX     =   0.40;   BMIX     =  0.01
     AMIX_MAG =   1.60;   BMIX_MAG =  0.01
     AMIN     =   0.01
     WC   =   100.;   INIMIX=   1;  MIXPRE=   1;  MAXMIX= -45

 Intra band minimization:
   WEIMIN = 0.0000     energy-eigenvalue tresh-hold
   EBREAK =  0.34E-07  absolut break condition
   DEPER  =   0.30     relativ break condition  

   TIME   =   0.40     timestep for ELM

  volume/ion in A,a.u.               =      62.72       423.28
  Fermi-wavevector in a.u.,A,eV,Ry     =   0.624944  1.180972  5.313816  0.390554
  Thomas-Fermi vector in A             =   1.685677
 
 Write flags
   LWAVE        =      F    write WAVECAR
   LDOWNSAMPLE  =      F    k-point downsampling of WAVECAR
   LCHARG       =      T    write CHGCAR
   LVTOT        =      T    write LOCPOT, total local potential
   LVHAR        =      F    write LOCPOT, Hartree potential only
   LELF         =      F    write electronic localiz. function (ELF)
   LORBIT       =      0    0 simple, 1 ext, 2 COOP (PROOUT), +10 PAW based schemes


 Dipole corrections
   LMONO  =      F    monopole corrections only (constant potential shift)
   LDIPOL =      T    correct potential (dipole corrections)
   IDIPOL =      3    1-x, 2-y, 3-z, 4-all directions 
   EPSILON=  1.0000000 bulk dielectric constant

 Exchange correlation treatment:
   GGA     =    --    GGA type
   LEXCH   =     8    internal setting for exchange type
   VOSKOWN=      0    Vosko Wilk Nusair interpolation
   LHFCALC =     F    Hartree Fock is set to
   LHFONE  =     F    Hartree Fock one center treatment
   AEXX    =    0.0000 exact exchange contribution

 Linear response parameters
   LEPSILON=     F    determine dielectric tensor
   LRPA    =     F    only Hartree local field effects (RPA)
   LNABLA  =     F    use nabla operator in PAW spheres
   LVEL    =     F    velocity operator in full k-point grid
   LINTERFAST=   F  fast interpolation
   KINTER  =     0    interpolate to denser k-point grid
   CSHIFT  =0.1000    complex shift for real part using Kramers Kronig
   OMEGAMAX=  -1.0    maximum frequency
   DEG_THRESHOLD= 0.2000000E-02 threshold for treating states as degnerate
   RTIME   =   -0.100 relaxation time in fs
  (WPLASMAI=    0.000 imaginary part of plasma frequency in eV, 0.658/RTIME)
   DFIELD  = 0.0000000 0.0000000 0.0000000 field for delta impulse in time
 
 Orbital magnetization related:
   ORBITALMAG=     F  switch on orbital magnetization
   LCHIMAG   =     F  perturbation theory with respect to B field
   DQ        =  0.001000  dq finite difference perturbation B field
   LLRAUG    =     F  two centre corrections for induced B field



--------------------------------------------------------------------------------------------------------


 Static calculation
 charge density and potential will be updated during run
 non-spin polarized calculation
 Variant of blocked Davidson
 Davidson routine will perform the subspace rotation
 perform sub-space diagonalisation
    after iterative eigenvector-optimisation
 modified Broyden-mixing scheme, WC =      100.0
 initial mixing is a Kerker type mixing with AMIX =  0.4000 and BMIX =      0.0100
 Hartree-type preconditioning will be used
 using additional bands           165
 real space projection scheme for non local part
[...]
     13.54561      0.00000     45.35368         0.003102     -0.008561      0.010417
     13.54315      9.03140     45.35368        -0.007694      0.003808      0.003023
     14.43893      9.20684     32.17986        -0.043054      0.028889      0.008555
     15.87944      9.04016     33.21694        -0.169782      0.080660     -0.002818
     13.79922     11.27613     33.30410        -0.157718     -0.008778     -0.110235
     13.79839     11.35503     35.05234         0.016891     -0.124378      0.024172
     12.38007      8.14240     34.43019         0.103566     -0.213050      0.145986
     12.12101      9.80148     34.93764         0.019924      0.046092      0.013353
     14.43275      7.74984     35.48209        -0.083911     -0.268062     -0.079338
     15.66852      8.98854     35.54063         0.028577      0.082939      0.085431
     15.51110      6.79955     33.70682         0.038552     -0.020095      0.108147
     13.78764      6.84692     33.36768        -0.063507     -0.098667      0.014364
     14.11144      6.88663     31.00509        -0.126214      0.019062     -0.042357
     15.78601      7.40322     31.11601        -0.225775     -0.257898      0.161098
     16.22410     11.17707     33.15913         0.026636     -0.016212     -0.084193
     16.41319     10.94839     34.89808        -0.094626      0.005045      0.078972
     15.73971     12.46991     34.26357        -0.014290     -0.071705      0.006170
     10.85042      9.32404     32.95709        -0.123487      0.010883     -0.002407
     12.25783      8.81576     32.01321         0.048396     -0.051065     -0.006752
     12.07017     10.51552     32.50955        -0.019142      0.226542     -0.125476
     12.82302      9.13599     36.80394         0.388917      0.019625      0.018925
     14.06497     10.42029     36.93477         0.034830      0.101579      0.060959
     14.35337      8.82418     37.64179         0.003256      0.042856     -0.010192
     14.87263      4.62430     32.09337        -0.133657      0.052655      0.052460
     15.24548      4.97274     30.42039        -0.014697     -0.085248     -0.093325
     16.69326      2.90303     31.13462         0.203497      0.162859      0.130170
     17.55889      6.96126     32.33601        -0.133661      0.146023      0.025003
      1.02400      2.32803     31.45425         0.007549      0.052278      0.026397
      1.83246      6.40574     32.65127        -0.001897     -0.039805     -0.055750
      2.65792      4.08167     32.17416         0.032095      0.002339      0.036644
     18.01447      4.23773     35.01001         0.134351     -0.038464      0.106951
      0.52872     13.99012     35.04671         0.003589      0.056731      0.213676
      9.41877      4.94186     35.01796         0.475285      0.098284     -0.091739
      8.86484     13.74167     34.78886         0.689332     -0.036327     -0.215368
      4.31754      9.23221     34.74922         0.002081     -0.069949     -0.118678
      4.82563     18.05804     34.73247         0.045400     -0.113947      0.004327
     13.98930     17.90540     35.01634         0.126585     -0.059752     -0.138242
      0.11986      4.43391     40.63195         0.278875     -0.258590      0.470616
      0.27881     13.81015     40.83735         0.584428     -0.967170      0.368439
      9.16458      4.59197     40.45818         0.301003     -0.589535      0.612622
      8.92495     13.63204     40.49518        -0.007681     -0.011656      0.228540
      4.57752      9.04443     40.56355        -0.683990     -0.844000      0.220638
      4.55543     17.99759     40.47353        -0.241832     -0.020333      0.367726
     13.34891      9.26416     40.57717         0.393366      0.264148      0.008866
     13.58104     18.02490     40.55996        -0.736473     -0.775572      0.137061
      9.02897      4.51561     46.44552         0.013650      0.000103      0.031676
      9.02651     13.54701     46.44552         0.024266     -0.008305      0.044804
     18.05937      4.51561     46.44552         0.012204      0.005039      0.046882
     18.05691     13.54701     46.44552         0.019008     -0.000547      0.009080
      4.51521      0.00002     46.44421        -0.003021     -0.005560      0.058773
      4.51275      9.03142     46.44421        -0.007959     -0.006124      0.035589
     13.54561      0.00002     46.44421        -0.006143     -0.008446      0.034326
     13.54315      9.03142     46.44421        -0.011598     -0.007789      0.028940
     16.93093      4.99038     31.69743         0.275555     -0.622771     -0.054807
     17.40668      3.67087     31.47444        -0.529613      0.241659     -0.112949
     17.85707      5.93940     32.12125         0.261764      0.260286      0.038896
      0.68736      3.35040     31.64128         0.229344      0.005101      0.041981
      1.15323      5.63043     32.29055        -0.088673     -0.213321      0.050033
      1.60555      4.33412     32.04927        -0.074666     -0.098319     -0.156904
     14.82223      8.74882     33.09996         0.245371      0.067198      0.051562
     14.31868     10.91559     34.19325        -0.038121      0.025062     -0.006854
     12.57293      9.18089     34.15602        -0.181164     -0.003990     -0.075981
     14.58253      8.82667     35.54988         0.108036     -0.060291      0.073932
     14.75963      7.22890     33.03426        -0.066914     -0.151659     -0.146050
     15.02517      6.74031     31.59478         0.300227      0.499348     -0.090778
     15.76044     11.37693     34.12975         0.068862      0.060902      0.058235
     11.92603      9.48048     32.81891         0.117360     -0.068583      0.029434
     13.90799      9.35174     36.78817        -0.399594     -0.108300     -0.010200
     15.47357      5.28527     31.44905        -0.090785      0.086662     -0.015819
      1.08473      4.57412     35.58051         0.331481     -0.205118     -0.346853
      0.62346     12.82430     35.63274         0.188695     -0.250440      0.038989
      9.74384      3.71610     35.34400        -0.110473     -0.365767      0.149841
      9.92632     13.08303     35.21087        -0.295465      0.056886      0.069245
      8.22034      5.45103     35.08628        -0.344297      0.314849      0.081756
      7.63569     13.47375     35.13266        -0.401252     -0.100205      0.140072
     16.84429      4.61869     35.45820        -0.013686      0.099233      0.233676
     17.56389     14.80400     35.15399        -0.215031      0.265466      0.078893
      4.70515      8.06816     35.21546        -0.212015      0.014108     -0.090191
      3.60254      0.33853     35.06572         0.588320     -0.343843     -0.313644
     12.70357     17.87577     35.28046         0.463843     -0.004509     -0.070402
      5.89710      0.72784     34.95289        -0.263307     -0.421568     -0.238727
      4.93027     10.36715     34.97602        -0.049231      0.038643     -0.032111
     14.79609      0.85755     35.23340        -0.242383     -0.478226     -0.138399
      1.02067      3.57585     41.07896        -0.179405      0.171870     -0.258201
      0.91348     12.67406     41.08300        -0.469833      0.399302     -0.026154
      9.82720      3.55740     40.93741        -0.076571      0.268382     -0.277989
      9.72304     12.87601     41.20263         0.233361     -0.226002      0.759164
      3.89492      8.10680     41.19542         0.411754      0.428606      0.315006
      3.55168     17.31047     40.97924         0.329353      0.202598      0.139572
     12.54554      8.38795     41.11656        -0.561231     -0.338732     -0.176556
     12.73644     17.17356     41.11174         0.312627      0.314154      0.274960
      8.39572      5.37731     41.16310        -0.348847      0.202081      0.659137
      8.05891     14.48280     40.97570        -0.312406      0.276481      0.166900
     17.37057      5.14086     41.39446         0.439510     -0.380806     -0.252122
     17.15243     14.10811     41.28905        -0.210333      0.175033     -0.053454
      5.42512      0.64911     41.15982        -0.351782     -0.203436      0.126107
      5.34973      9.92502     41.12140         0.500917      0.509628      0.675056
     14.30657      0.83694     41.19390         0.439517      0.579421      0.592052
     14.51993      9.62459     41.06291        -0.334542     -0.121057     -0.031799
      0.82731      3.68697     47.03596         0.019783     -0.025922     -0.097194
      0.82485     12.71837     47.03596         0.019046     -0.019441     -0.063994
      9.85771      3.68697     47.03596         0.020380     -0.022059     -0.084991
      9.85525     12.71837     47.03596         0.009518     -0.012955     -0.083099
      3.68432      8.20234     47.03465        -0.006742     -0.012112     -0.069763
      3.68186     17.23373     47.03465        -0.007188     -0.004872     -0.067580
     12.71472      8.20234     47.03465        -0.004978     -0.009042     -0.063012
     12.71226     17.23373     47.03465        -0.011634     -0.007884     -0.068633
      8.20068      5.34457     47.03603        -0.023146      0.020801     -0.089325
      8.19822     14.37597     47.03603        -0.028005      0.024014     -0.087398
     17.23108      5.34457     47.03603        -0.022599      0.017152     -0.104626
     17.22862     14.37597     47.03603        -0.024213      0.023899     -0.067442
      5.34365      0.82909     47.03465         0.009677      0.012017     -0.073522
      5.34119      9.86049     47.03465         0.018737      0.015325     -0.063962
     14.37405      0.82909     47.03465         0.016644      0.018446     -0.067582
     14.37159      9.86049     47.03465         0.021975      0.020279     -0.072407
     14.07236      9.40913     34.25135         0.141245      0.093489     -0.367601
      9.18847     17.63293     34.54243         0.003072      0.021432      0.046510
      8.38769      9.00554     34.63834         0.089238      0.031971     -0.039441
      0.09533      0.22384     34.47221         0.043587     -0.008014     -0.018946
      0.62436      8.93239     34.65973        -0.089892     -0.058935      0.004622
      4.58236      4.39028     34.66651         0.024113      0.004847      0.014445
      4.21043     13.91802     34.44655        -0.005399     -0.006644     -0.013809
     13.32166      4.01614     34.70282        -0.013108      0.098383     -0.035873
     13.05038     14.38949     34.61898         0.200417     -0.096886     -0.175688
     17.95969     17.79937     40.87808         0.004297     -0.012510      0.010325
      0.07141      9.06236     40.95354         0.014305      0.005766      0.010578
      8.97681      0.04148     40.90118         0.006787      0.003580      0.002882
      8.99542      9.05421     40.89735        -0.019100     -0.000954      0.017022
      4.75202      4.33530     40.95776        -0.005481     -0.017422      0.015013
      4.43894     13.62781     40.85994         0.010253     -0.017073     -0.023055
     13.42030      4.70614     40.96581        -0.002720     -0.018806     -0.039750
     13.56740     13.38037     40.86145        -0.003555      0.010592      0.075134
      2.51581      2.05049     38.04106        -0.015431      0.052411      0.025691
      2.62703     11.00770     37.98429        -0.011789      0.001487     -0.024847
     11.58765      1.94762     38.05650         0.007525      0.046401     -0.005330
     11.11560     11.40854     38.10100         0.075464      0.030832     -0.084650
      6.63455      6.93479     38.14680         0.018013      0.036626     -0.028689
      6.56804     15.99495     37.87243         0.043943      0.029667      0.009553
     16.04583      6.54767     38.33101        -0.025432      0.157444     -0.153416
     15.58342     16.05741     37.85467         0.042901      0.027181      0.014084
      2.27933      6.68242     38.26163        -0.049849     -0.042674     -0.047074
      2.12912     15.78301     37.92064        -0.025653     -0.009000     -0.047155
     11.21048      6.72774     37.64716        -0.032514     -0.007417      0.007623
     11.16102     15.66630     38.28734        -0.028059     -0.074492     -0.063218
      7.21128      2.58977     37.76442         0.001157     -0.027065     -0.006494
      6.81335     11.41729     37.96401         0.012592      0.022357     -0.002355
     15.94201      2.40194     38.28199         0.003287      0.032302      0.022695
     16.32635     11.76189     38.21189         0.056198      0.033517     -0.147474
      0.00000      0.00000     47.17356         0.001073      0.004754      0.366374
     -0.00246      9.03140     47.17356        -0.003881     -0.003608      0.476390
      9.03040      0.00000     47.17356        -0.000875     -0.002130      0.439835
      9.02794      9.03140     47.17356        -0.003793     -0.000228      0.420226
      4.51398      4.51570     47.17425        -0.000487     -0.005032      0.447715
      4.51152     13.54710     47.17425         0.003725      0.002005      0.363756
     13.54438      4.51570     47.17425         0.003251      0.000318      0.444852
     13.54192     13.54710     47.17425         0.000485     -0.002922      0.389863
      2.45192      2.06295     44.04013         0.007508     -0.034255     -0.026227
      2.44946     11.09435     44.04013         0.045096     -0.021917      0.003799
     11.48232      2.06295     44.04013        -0.011846      0.000260     -0.074293
     11.47986     11.09435     44.04013        -0.048870      0.023195     -0.022713
      6.57602      6.96845     44.04013        -0.013661     -0.009804     -0.045119
      6.57356     15.99985     44.04013         0.015710     -0.010799     -0.043571
     15.60642      6.96845     44.04013        -0.043265      0.054189     -0.053674
     15.60396     15.99985     44.04013        -0.049339      0.035024     -0.000387
      2.06108      6.57881     44.04000         0.024006     -0.045676     -0.034852
      2.05862     15.61021     44.04000         0.053263      0.074850     -0.033479
     11.09148      6.57881     44.04000         0.002416      0.017461     -0.013749
     11.08902     15.61021     44.04000        -0.006731     -0.003846     -0.045741
      6.96686      2.45259     44.04007         0.030889     -0.015152      0.000114
      6.96440     11.48399     44.04007        -0.004032      0.007686     -0.045868
     15.99726      2.45259     44.04007         0.014030      0.017345     -0.046533
     15.99481     11.48399     44.04007         0.028575      0.016197     -0.086915
      2.43163      2.08322     50.06849         0.003671     -0.016105      0.022289
      2.42917     11.11462     50.06849         0.018481     -0.003117      0.026025
     11.46203      2.08322     50.06849         0.009087     -0.011606      0.023859
     11.45957     11.11462     50.06849         0.011202     -0.008647      0.025009
      6.59631      6.94818     50.06849        -0.009993      0.009611      0.024240
      6.59385     15.97958     50.06849        -0.013946      0.006257      0.023696
     15.62671      6.94818     50.06849        -0.012088      0.005493      0.022927
     15.62425     15.97958     50.06849        -0.007391      0.014588      0.025858
      2.08113      6.59901     50.06905        -0.007748     -0.013899      0.023939
      2.07867     15.63041     50.06905        -0.010172     -0.008035      0.024656
     11.11153      6.59901     50.06905        -0.011022     -0.009583      0.024898
     11.10907     15.63041     50.06905        -0.008031     -0.012433      0.024513
      6.94681      2.43239     50.06905         0.010586      0.007313      0.023628
      6.94435     11.46379     50.06905         0.005658      0.014724      0.025106
     15.97721      2.43239     50.06905         0.016481      0.004048      0.024103
     15.97475     11.46379     50.06905         0.004150      0.014217      0.024641
     18.05866      0.11955     37.75660        -0.014495      0.009633      0.033117
      0.13573      9.11304     37.77589         0.038661     -0.049031     -0.000941
      9.08082     17.97095     37.69924        -0.057532     -0.034563      0.018109
      9.00212      9.04430     37.72075        -0.013741     -0.031151     -0.040137
      4.61661      4.53013     37.86130        -0.057705     -0.012328     -0.000532
      4.41915     13.66540     37.69615        -0.019980      0.012514      0.046508
     13.52264      4.53890     37.87498         0.017240      0.000272      0.000830
     13.54796     13.72788     37.70831        -0.024479     -0.078302      0.112945
      0.00001      0.00001     44.04300        -0.046933     -0.117285      0.105593
     -0.00245      9.03141     44.04300         0.117231      0.021185      0.180785
      9.03041      0.00001     44.04300         0.004460     -0.001849      0.056190
      9.02795      9.03141     44.04300         0.080091      0.011009      0.130854
      4.51397      4.51569     44.04275         0.015304      0.036589      0.168268
      4.51151     13.54709     44.04275        -0.111610     -0.018421      0.096668
     13.54437      4.51569     44.04275        -0.057510     -0.015593      0.213945
     13.54191     13.54709     44.04275        -0.027511      0.010946      0.044364
      0.00000      0.00000     50.44728        -0.002152      0.001176     -0.617838
     -0.00246      9.03140     50.44728        -0.001241     -0.001899     -0.646983
      9.03040      0.00000     50.44728         0.001854      0.003533     -0.636340
      9.02794      9.03140     50.44728         0.001231     -0.004167     -0.633100
      4.51397      4.51570     50.44728         0.001836      0.005658     -0.637240
      4.51151     13.54710     50.44728         0.000015     -0.006686     -0.619321
     13.54437      4.51570     50.44728        -0.002367      0.004943     -0.636060
     13.54191     13.54710     50.44728         0.000389     -0.005671     -0.627398
 -----------------------------------------------------------------------------------
    total drift:                                0.011582      0.109499      0.830612


--------------------------------------------------------------------------------------------------------



  FREE ENERGIE OF THE ION-ELECTRON SYSTEM (eV)
  ---------------------------------------------------
  free  energy   TOTEN  =     -1575.92035632 eV

  energy  without entropy=    -1575.92035632  energy(sigma->0) =    -1575.92035632
 


--------------------------------------------------------------------------------------------------------


    POTLOK:  cpu time    0.5012: real time    0.5011


--------------------------------------------------------------------------------------------------------


     LOOP+:  cpu time  266.7388: real time  267.3008
 vacuum level on the upper side and lower side of the slab         2.314         1.529
    4ORBIT:  cpu time    0.0000: real time    0.0000

 total amount of memory used by VASP MPI-rank0  8653584. kBytes
=======================================================================

   base      :      30000. kBytes
   nonlr-proj:      53622. kBytes
   fftplans  :     249280. kBytes
   grid      :     701440. kBytes
   one-center:       2636. kBytes
   wavefun   :    7616606. kBytes
 
  
  
 General timing and accounting informations for this job:
 ========================================================
  
                  Total CPU time used (sec):      479.307
                            User time (sec):      390.995
                          System time (sec):       88.313
                         Elapsed time (sec):      480.974
  
                   Maximum memory used (kb):    10306808.
                   Average memory used (kb):          N/A
  
                          Minor page faults:      3542801
                          Major page faults:           12
                 Voluntary context switches:        10848
