<?xml version="1.0" encoding="ISO-8859-1"?>
<modeling>
 <generator>
  <i name="program" type="string">vasp </i>
  <i name="version" type="string">6.2.1  </i>
  <i name="subversion" type="string">16May21 (build Nov 15 2021 14:57:28) complex                          parallel </i>
  <i name="platform" type="string">LinuxPGI </i>
  <i name="date" type="string">2023 07 30 </i>
  <i name="time" type="string">13:13:48 </i>
 </generator>
 <incar>
  <i type="string" name="SYSTEM">PSC</i>
  <i type="int" name="ISTART">     1</i>
  <i type="string" name="PREC">Normal</i>
  <i name="BMIX">      0.01000000</i>
  <i name="AMIN">      0.01000000</i>
  <i type="int" name="ICHARG">     1</i>
  <i type="int" name="NELM">   600</i>
  <i type="int" name="ISYM">     0</i>
  <i name="ENCUT">    500.00000000</i>
  <i type="string" name="LREAL">Auto</i>
  <i type="int" name="ISMEAR">     0</i>
  <i name="SIGMA">      0.05000000</i>
  <i type="logical" name="LWAVE"> F  </i>
  <i type="logical" name="LVTOT"> T  </i>
  <i type="logical" name="GGA_COMPAT"> F  </i>
  <i type="logical" name="LDIPOL"> T  </i>
  <i type="int" name="IDIPOL">     3</i>
  <i type="int" name="IVDW">    12</i>
 </incar>
 <primitive_cell>
  <structure name="primitive_cell" >
   <crystal>
    <varray name="basis" >
     <v>      18.06080055       0.00000000       0.00000000 </v>
     <v>      -0.00491865      18.06279945       0.00000000 </v>
     <v>       0.00000000       0.00000000      62.48749924 </v>
    </varray>
    <i name="volume">  20385.21054034 </i>
    <varray name="rec_basis" >
     <v>       0.05536853       0.00001508      -0.00000000 </v>
     <v>       0.00000000       0.05536240       0.00000000 </v>
     <v>       0.00000000      -0.00000000       0.01600320 </v>
    </varray>
   </crystal>
   <varray name="positions" >
    <v>       0.41201521       0.27429951       0.56823951 </v>
    <v>       0.41071436       0.70647751       0.57350716 </v>
    <v>       0.92870975       0.28628240       0.58136463 </v>
    <v>       0.93243677       0.81263695       0.57404408 </v>
    <v>       0.32354414       0.08937653       0.56709194 </v>
    <v>       0.31651119       0.57749119       0.57007136 </v>
    <v>       0.80118215       0.09448206       0.57089812 </v>
    <v>       0.11036706       0.23941876       0.56257639 </v>
    <v>       0.08250557       0.67986884       0.56900187 </v>
    <v>       0.59398724       0.19035817       0.56549250 </v>
    <v>       0.60246367       0.74230788       0.55937470 </v>
    <v>       0.37842872       0.01982269       0.55589732 </v>
    <v>       0.25320854       0.62301141       0.55399337 </v>
    <v>       0.87402433       0.04254329       0.55993853 </v>
    <v>       0.06238286       0.28545841       0.58281243 </v>
    <v>       0.99701622       0.69234087       0.58150571 </v>
    <v>       0.50241611       0.17170675       0.57325895 </v>
    <v>       0.54669770       0.68632737       0.57569864 </v>
    <v>       0.30416664       0.44090878       0.57378756 </v>
    <v>       0.18972022       0.06434719       0.57011824 </v>
    <v>       0.67839509       0.03119703       0.57265049 </v>
    <v>       0.44903427       0.35768361       0.55891294 </v>
    <v>       0.37849414       0.77492561       0.55654882 </v>
    <v>       0.88466965       0.23590655       0.56107688 </v>
    <v>       0.97841325       0.87319761       0.55707169 </v>
    <v>       0.23235946       0.39957827       0.55980429 </v>
    <v>       0.15526009       0.98617983       0.55769767 </v>
    <v>       0.67564107       0.94163313       0.56237261 </v>
    <v>       0.56546234       0.30959277       0.55440160 </v>
    <v>       0.50053934       0.80638544       0.54559698 </v>
    <v>       0.99933949       0.19877398       0.54631996 </v>
    <v>       0.07663413       0.79232631       0.55132341 </v>
    <v>       0.18922002       0.51212283       0.54633620 </v>
    <v>       0.27595387       0.94599730       0.54806854 </v>
    <v>       0.79852857       0.94173710       0.55301503 </v>
    <v>       0.45430715       0.29144752       0.67483407 </v>
    <v>       0.43816209       0.81204915       0.67168964 </v>
    <v>       0.96198987       0.28134080       0.67865613 </v>
    <v>       0.91903360       0.74580562       0.66983991 </v>
    <v>       0.29953486       0.04173092       0.67498175 </v>
    <v>       0.30708671       0.55338011       0.67419002 </v>
    <v>       0.79251901       0.05343727       0.67550462 </v>
    <v>       0.82418631       0.51241480       0.67121354 </v>
    <v>       0.08906983       0.17057660       0.64652854 </v>
    <v>       0.10289298       0.69456492       0.65163894 </v>
    <v>       0.57601651       0.16616088       0.64500999 </v>
    <v>       0.57365531       0.67767995       0.65178906 </v>
    <v>       0.18416221       0.41363056       0.65059137 </v>
    <v>       0.16358538       0.93075839       0.64542737 </v>
    <v>       0.64518697       0.45282620       0.65060981 </v>
    <v>       0.67643898       0.91604517       0.64819013 </v>
    <v>       0.06659555       0.18628427       0.67324562 </v>
    <v>       0.02902843       0.65972160       0.66656734 </v>
    <v>       0.54511966       0.18199556       0.67084554 </v>
    <v>       0.54080180       0.71205828       0.67582475 </v>
    <v>       0.21595797       0.44160310       0.67554851 </v>
    <v>       0.18553716       0.95268000       0.67179324 </v>
    <v>       0.70375106       0.43692142       0.67202766 </v>
    <v>       0.69553978       0.94672413       0.67407843 </v>
    <v>       0.43907901       0.34110658       0.65160219 </v>
    <v>       0.41382003       0.83106831       0.64543952 </v>
    <v>       0.92570718       0.31961330       0.65532529 </v>
    <v>       0.92886658       0.83179338       0.65728515 </v>
    <v>       0.34164217       0.06227036       0.65087542 </v>
    <v>       0.32202822       0.58762877       0.64877539 </v>
    <v>       0.82650430       0.08011653       0.65074466 </v>
    <v>       0.83429096       0.57198724       0.64936212 </v>
    <v>       0.00209246       0.25287357       0.63291675 </v>
    <v>       0.04418337       0.80514168       0.64371695 </v>
    <v>       0.51331324       0.26653738       0.63067131 </v>
    <v>       0.49838580       0.74919523       0.63089578 </v>
    <v>       0.25851280       0.99486053       0.63036223 </v>
    <v>       0.24738851       0.50320466       0.63191625 </v>
    <v>       0.75763340       0.99531810       0.63180606 </v>
    <v>       0.72064462       0.53934142       0.63450887 </v>
    <v>       0.44874502       0.30128397       0.76888902 </v>
    <v>       0.44874501       0.80128391       0.76888902 </v>
    <v>       0.94874497       0.30128397       0.76888902 </v>
    <v>       0.94874501       0.80128391       0.76888902 </v>
    <v>       0.30127600       0.05129450       0.76887296 </v>
    <v>       0.30127601       0.55129450       0.76887296 </v>
    <v>       0.80127594       0.05129450       0.76887296 </v>
    <v>       0.80127598       0.55129450       0.76887296 </v>
    <v>       0.07877100       0.17118050       0.74344197 </v>
    <v>       0.07877101       0.67118045       0.74344197 </v>
    <v>       0.57877100       0.17118050       0.74344197 </v>
    <v>       0.57877099       0.67118045       0.74344197 </v>
    <v>       0.17119950       0.42117448       0.74342103 </v>
    <v>       0.17119950       0.92117451       0.74342103 </v>
    <v>       0.67119951       0.42117448       0.74342103 </v>
    <v>       0.67119950       0.92117451       0.74342103 </v>
    <v>       0.05125600       0.19871499       0.76888902 </v>
    <v>       0.05125600       0.69871493       0.76888902 </v>
    <v>       0.55125603       0.19871499       0.76888902 </v>
    <v>       0.55125602       0.69871493       0.76888902 </v>
    <v>       0.19872349       0.44870397       0.76887205 </v>
    <v>       0.19872349       0.94870397       0.76887205 </v>
    <v>       0.69872352       0.44870397       0.76887205 </v>
    <v>       0.69872351       0.94870397       0.76887205 </v>
    <v>       0.42123152       0.32881747       0.74344197 </v>
    <v>       0.42123151       0.82881744       0.74344197 </v>
    <v>       0.92123147       0.32881747       0.74344197 </v>
    <v>       0.92123151       0.82881744       0.74344197 </v>
    <v>       0.32880050       0.07882500       0.74342103 </v>
    <v>       0.32880049       0.57882496       0.74342103 </v>
    <v>       0.82880048       0.07882500       0.74342103 </v>
    <v>       0.82880052       0.57882496       0.74342103 </v>
    <v>       0.00000350       0.25000148       0.72582199 </v>
    <v>       0.00000350       0.75000145       0.72582199 </v>
    <v>       0.50000351       0.25000148       0.72582199 </v>
    <v>       0.50000350       0.75000145       0.72582199 </v>
    <v>       0.25000050       0.00000000       0.72580398 </v>
    <v>       0.25000052       0.50000000       0.72580398 </v>
    <v>       0.75000050       0.00000000       0.72580398 </v>
    <v>       0.75000049       0.50000000       0.72580398 </v>
    <v>       0.79960130       0.50971272       0.51498081 </v>
    <v>       0.87935769       0.50048500       0.53157739 </v>
    <v>       0.76421283       0.62427360       0.53297220 </v>
    <v>       0.76416755       0.62864187       0.56094960 </v>
    <v>       0.68558894       0.45078262       0.55099326 </v>
    <v>       0.67127019       0.54263351       0.55911403 </v>
    <v>       0.79923700       0.42904997       0.56782701 </v>
    <v>       0.86767867       0.49762695       0.56876385 </v>
    <v>       0.85892939       0.37643917       0.53941697 </v>
    <v>       0.76350475       0.37906203       0.53398962 </v>
    <v>       0.78143352       0.38126042       0.49618075 </v>
    <v>       0.87415953       0.40985991       0.49795580 </v>
    <v>       0.89847290       0.61878960       0.53065222 </v>
    <v>       0.90893945       0.60612924       0.55848103 </v>
    <v>       0.87167289       0.69036418       0.54832684 </v>
    <v>       0.60091261       0.51620124       0.52741897 </v>
    <v>       0.67883105       0.48806149       0.51231383 </v>
    <v>       0.66846589       0.58216468       0.52025683 </v>
    <v>       0.71012979       0.50579043       0.58898078 </v>
    <v>       0.77891411       0.57689209       0.59107458 </v>
    <v>       0.79485804       0.48852785       0.60238910 </v>
    <v>       0.82354520       0.25601210       0.51359662 </v>
    <v>       0.84419500       0.27530274       0.48682360 </v>
    <v>       0.92432507       0.16071894       0.49825353 </v>
    <v>       0.97231498       0.38539203       0.51747960 </v>
    <v>       0.05673238       0.12888554       0.50336862 </v>
    <v>       0.10155712       0.35463742       0.52252480 </v>
    <v>       0.14722650       0.22597129       0.51488954 </v>
    <v>       0.99749880       0.23461074       0.56027222 </v>
    <v>       0.02948564       0.77452678       0.56085962 </v>
    <v>       0.52157786       0.27359318       0.56039944 </v>
    <v>       0.49104044       0.76077166       0.55673312 </v>
    <v>       0.23919532       0.51111761       0.55609871 </v>
    <v>       0.26746034       0.99973647       0.55583072 </v>
    <v>       0.77483718       0.99128618       0.56037350 </v>
    <v>       0.00670324       0.24547181       0.65024120 </v>
    <v>       0.01564537       0.76456327       0.65352836 </v>
    <v>       0.50749848       0.25422231       0.64746031 </v>
    <v>       0.49436684       0.75470266       0.64805253 </v>
    <v>       0.25358679       0.50072111       0.64914656 </v>
    <v>       0.25249871       0.99638960       0.64770609 </v>
    <v>       0.73924903       0.51288634       0.64936462 </v>
    <v>       0.75223384       0.99790189       0.64908924 </v>
    <v>       0.49998898       0.24999498       0.74327702 </v>
    <v>       0.49998903       0.74999496       0.74327702 </v>
    <v>       0.99998898       0.24999498       0.74327702 </v>
    <v>       0.99998903       0.74999496       0.74327702 </v>
    <v>       0.25000050       0.00000100       0.74325596 </v>
    <v>       0.25000052       0.50000100       0.74325596 </v>
    <v>       0.75000050       0.00000100       0.74325596 </v>
    <v>       0.75000049       0.50000100       0.74325596 </v>
    <v>       0.93751603       0.27627945       0.50726039 </v>
    <v>       0.96383739       0.20322803       0.50369184 </v>
    <v>       0.98880934       0.32881931       0.51404288 </v>
    <v>       0.03810846       0.18548613       0.50636184 </v>
    <v>       0.06393769       0.31171405       0.51675216 </v>
    <v>       0.08896244       0.23994719       0.51289098 </v>
    <v>       0.82081724       0.48435567       0.52970537 </v>
    <v>       0.79296858       0.60431332       0.54720149 </v>
    <v>       0.69628316       0.50827588       0.54660573 </v>
    <v>       0.80754619       0.48866592       0.56891189 </v>
    <v>       0.81732820       0.40020902       0.52865389 </v>
    <v>       0.83202345       0.37315985       0.50561761 </v>
    <v>       0.87280373       0.62985431       0.54618517 </v>
    <v>       0.66046961       0.52486228       0.52520765 </v>
    <v>       0.77020606       0.51773480       0.58872841 </v>
    <v>       0.85682826       0.29260550       0.50328554 </v>
    <v>       0.06012888       0.25323428       0.56940210 </v>
    <v>       0.03471315       0.70998423       0.57023796 </v>
    <v>       0.53955831       0.20573216       0.56561710 </v>
    <v>       0.54980318       0.72430782       0.56348654 </v>
    <v>       0.45523054       0.30178198       0.56149274 </v>
    <v>       0.42298005       0.74593941       0.56223495 </v>
    <v>       0.93271301       0.25570197       0.56744467 </v>
    <v>       0.97271002       0.81958502       0.56257639 </v>
    <v>       0.26063903       0.44667284       0.56356011 </v>
    <v>       0.19947257       0.01874210       0.56116381 </v>
    <v>       0.70364763       0.98964564       0.56460023 </v>
    <v>       0.32652482       0.04029484       0.55935809 </v>
    <v>       0.27313834       0.57395015       0.55972822 </v>
    <v>       0.81925076       0.04747582       0.56384721 </v>
    <v>       0.05656701       0.19796764       0.65739479 </v>
    <v>       0.05076940       0.70166669       0.65745956 </v>
    <v>       0.54417110       0.19694614       0.65512963 </v>
    <v>       0.53854456       0.71284671       0.65937401 </v>
    <v>       0.21577847       0.44881184       0.65925863 </v>
    <v>       0.19691230       0.95834938       0.65579895 </v>
    <v>       0.69475469       0.46437723       0.65799654 </v>
    <v>       0.70545675       0.95076963       0.65791949 </v>
    <v>       0.46493958       0.29770098       0.65874131 </v>
    <v>       0.44642845       0.80180265       0.65574236 </v>
    <v>       0.96186068       0.28461029       0.66244390 </v>
    <v>       0.94991759       0.78105912       0.66075698 </v>
    <v>       0.30039047       0.03593652       0.65868894 </v>
    <v>       0.29635655       0.54947293       0.65807394 </v>
    <v>       0.79214618       0.04633497       0.65923427 </v>
    <v>       0.80409209       0.53284022       0.65713803 </v>
    <v>       0.04586250       0.20411950       0.75272599 </v>
    <v>       0.04586250       0.70411946       0.75272599 </v>
    <v>       0.54586251       0.20411950       0.75272599 </v>
    <v>       0.54586250       0.70411946       0.75272599 </v>
    <v>       0.20411900       0.45410100       0.75270499 </v>
    <v>       0.20411899       0.95410095       0.75270499 </v>
    <v>       0.70411898       0.45410100       0.75270499 </v>
    <v>       0.70411896       0.95410095       0.75270499 </v>
    <v>       0.45414002       0.29588849       0.75272697 </v>
    <v>       0.45414001       0.79588852       0.75272697 </v>
    <v>       0.95414002       0.29588849       0.75272697 </v>
    <v>       0.95414006       0.79588852       0.75272697 </v>
    <v>       0.29588249       0.04590050       0.75270499 </v>
    <v>       0.29588248       0.54590053       0.75270499 </v>
    <v>       0.79588244       0.04590050       0.75270499 </v>
    <v>       0.79588248       0.54590053       0.75270499 </v>
    <v>       0.77930772       0.52091196       0.54813130 </v>
    <v>       0.50901796       0.97620161       0.55278940 </v>
    <v>       0.46454983       0.49856818       0.55432425 </v>
    <v>       0.00528143       0.01239226       0.55166570 </v>
    <v>       0.03470446       0.49451881       0.55466654 </v>
    <v>       0.25378454       0.24305620       0.55477509 </v>
    <v>       0.23333539       0.77053511       0.55125503 </v>
    <v>       0.73766130       0.22234308       0.55535626 </v>
    <v>       0.72279726       0.79663650       0.55401456 </v>
    <v>       0.99467024       0.98541591       0.65418016 </v>
    <v>       0.00409078       0.50171402       0.65538768 </v>
    <v>       0.49703317       0.00229619       0.65454986 </v>
    <v>       0.49819957       0.50126282       0.65448845 </v>
    <v>       0.26317796       0.24001239       0.65545532 </v>
    <v>       0.24598330       0.75446808       0.65388976 </v>
    <v>       0.74313312       0.26054299       0.65558413 </v>
    <v>       0.75140886       0.74076930       0.65391393 </v>
    <v>       0.13932749       0.11352010       0.60877875 </v>
    <v>       0.14562053       0.60941268       0.60787024 </v>
    <v>       0.64162049       0.10782483       0.60902580 </v>
    <v>       0.61562670       0.63160429       0.60973792 </v>
    <v>       0.36744980       0.38392676       0.61047086 </v>
    <v>       0.36390378       0.88551864       0.60608009 </v>
    <v>       0.88853254       0.36249464       0.61341883 </v>
    <v>       0.86307343       0.88897689       0.60579585 </v>
    <v>       0.12630383       0.36995472       0.61230850 </v>
    <v>       0.11812439       0.87378545       0.60685154 </v>
    <v>       0.62080945       0.37246372       0.60247512 </v>
    <v>       0.61820524       0.86732418       0.61271996 </v>
    <v>       0.39931710       0.14337598       0.60435153 </v>
    <v>       0.37741720       0.63208845       0.60754565 </v>
    <v>       0.88272205       0.13297732       0.61263431 </v>
    <v>       0.90414353       0.65116663       0.61151257 </v>
    <v>       0.00000000       0.00000000       0.75492797 </v>
    <v>       0.00000000       0.50000000       0.75492797 </v>
    <v>       0.50000000       0.00000000       0.75492797 </v>
    <v>       0.49999999       0.50000000       0.75492797 </v>
    <v>       0.25000050       0.25000000       0.75493902 </v>
    <v>       0.25000051       0.74999997       0.75493902 </v>
    <v>       0.75000047       0.25000000       0.75493902 </v>
    <v>       0.75000046       0.74999997       0.75493902 </v>
    <v>       0.13579050       0.11421000       0.70478299 </v>
    <v>       0.13579050       0.61420998       0.70478299 </v>
    <v>       0.63579045       0.11421000       0.70478299 </v>
    <v>       0.63579049       0.61420998       0.70478299 </v>
    <v>       0.36420952       0.38578999       0.70478299 </v>
    <v>       0.36420950       0.88578996       0.70478299 </v>
    <v>       0.86420954       0.38578999       0.70478299 </v>
    <v>       0.86420953       0.88578996       0.70478299 </v>
    <v>       0.11421799       0.36421899       0.70478098 </v>
    <v>       0.11421799       0.86421899       0.70478098 </v>
    <v>       0.61421800       0.36421899       0.70478098 </v>
    <v>       0.61421799       0.86421899       0.70478098 </v>
    <v>       0.38578201       0.13578149       0.70478202 </v>
    <v>       0.38578200       0.63578149       0.70478202 </v>
    <v>       0.88578199       0.13578149       0.70478202 </v>
    <v>       0.88578203       0.63578149       0.70478202 </v>
    <v>       0.13466700       0.11533200       0.80125603 </v>
    <v>       0.13466699       0.61533199       0.80125603 </v>
    <v>       0.63466699       0.11533200       0.80125603 </v>
    <v>       0.63466698       0.61533199       0.80125603 </v>
    <v>       0.36533300       0.38466799       0.80125603 </v>
    <v>       0.36533299       0.88466796       0.80125603 </v>
    <v>       0.86533295       0.38466799       0.80125603 </v>
    <v>       0.86533294       0.88466796       0.80125603 </v>
    <v>       0.11532850       0.36533700       0.80126500 </v>
    <v>       0.11532850       0.86533698       0.80126500 </v>
    <v>       0.61532850       0.36533700       0.80126500 </v>
    <v>       0.61532849       0.86533698       0.80126500 </v>
    <v>       0.38467151       0.13466300       0.80126500 </v>
    <v>       0.38467150       0.63466297       0.80126500 </v>
    <v>       0.88467149       0.13466300       0.80126500 </v>
    <v>       0.88467153       0.63466297       0.80126500 </v>
    <v>       0.99988333       0.00661881       0.60422650 </v>
    <v>       0.00765248       0.50451996       0.60453510 </v>
    <v>       0.50306265       0.99491512       0.60330847 </v>
    <v>       0.49857063       0.50071419       0.60365266 </v>
    <v>       0.25568346       0.25079891       0.60590201 </v>
    <v>       0.24488803       0.75654921       0.60325909 </v>
    <v>       0.74879695       0.25128428       0.60612087 </v>
    <v>       0.75033764       0.76000868       0.60345364 </v>
    <v>       0.00000050       0.00000050       0.70482896 </v>
    <v>       0.00000050       0.50000048       0.70482896 </v>
    <v>       0.50000048       0.00000050       0.70482896 </v>
    <v>       0.50000046       0.50000048       0.70482896 </v>
    <v>       0.24999999       0.24999947       0.70482499 </v>
    <v>       0.25000001       0.74999950       0.70482499 </v>
    <v>       0.74999999       0.24999947       0.70482499 </v>
    <v>       0.74999998       0.74999950       0.70482499 </v>
    <v>       0.00000000       0.00000000       0.80731797 </v>
    <v>       0.00000000       0.50000000       0.80731797 </v>
    <v>       0.50000000       0.00000000       0.80731797 </v>
    <v>       0.49999999       0.50000000       0.80731797 </v>
    <v>       0.24999999       0.25000000       0.80731797 </v>
    <v>       0.25000001       0.74999997       0.80731797 </v>
    <v>       0.74999999       0.25000000       0.80731797 </v>
    <v>       0.74999998       0.74999997       0.80731797 </v>
   </varray>
  </structure>
  <varray name="primitive_index" >
   <v type="int" >        1 </v>
   <v type="int" >        2 </v>
   <v type="int" >        3 </v>
   <v type="int" >        4 </v>
   <v type="int" >        5 </v>
   <v type="int" >        6 </v>
   <v type="int" >        7 </v>
   <v type="int" >        8 </v>
   <v type="int" >        9 </v>
   <v type="int" >       10 </v>
   <v type="int" >       11 </v>
   <v type="int" >       12 </v>
   <v type="int" >       13 </v>
   <v type="int" >       14 </v>
   <v type="int" >       15 </v>
   <v type="int" >       16 </v>
   <v type="int" >       17 </v>
   <v type="int" >       18 </v>
   <v type="int" >       19 </v>
   <v type="int" >       20 </v>
   <v type="int" >       21 </v>
   <v type="int" >       22 </v>
   <v type="int" >       23 </v>
   <v type="int" >       24 </v>
   <v type="int" >       25 </v>
   <v type="int" >       26 </v>
   <v type="int" >       27 </v>
   <v type="int" >       28 </v>
   <v type="int" >       29 </v>
   <v type="int" >       30 </v>
   <v type="int" >       31 </v>
   <v type="int" >       32 </v>
   <v type="int" >       33 </v>
   <v type="int" >       34 </v>
   <v type="int" >       35 </v>
   <v type="int" >       36 </v>
   <v type="int" >       37 </v>
   <v type="int" >       38 </v>
   <v type="int" >       39 </v>
   <v type="int" >       40 </v>
   <v type="int" >       41 </v>
   <v type="int" >       42 </v>
   <v type="int" >       43 </v>
   <v type="int" >       44 </v>
   <v type="int" >       45 </v>
   <v type="int" >       46 </v>
   <v type="int" >       47 </v>
   <v type="int" >       48 </v>
   <v type="int" >       49 </v>
   <v type="int" >       50 </v>
   <v type="int" >       51 </v>
   <v type="int" >       52 </v>
   <v type="int" >       53 </v>
   <v type="int" >       54 </v>
   <v type="int" >       55 </v>
   <v type="int" >       56 </v>
   <v type="int" >       57 </v>
   <v type="int" >       58 </v>
   <v type="int" >       59 </v>
   <v type="int" >       60 </v>
   <v type="int" >       61 </v>
   <v type="int" >       62 </v>
   <v type="int" >       63 </v>
   <v type="int" >       64 </v>
   <v type="int" >       65 </v>
   <v type="int" >       66 </v>
   <v type="int" >       67 </v>
   <v type="int" >       68 </v>
   <v type="int" >       69 </v>
   <v type="int" >       70 </v>
   <v type="int" >       71 </v>
   <v type="int" >       72 </v>
   <v type="int" >       73 </v>
   <v type="int" >       74 </v>
   <v type="int" >       75 </v>
   <v type="int" >       76 </v>
   <v type="int" >       77 </v>
   <v type="int" >       78 </v>
   <v type="int" >       79 </v>
   <v type="int" >       80 </v>
   <v type="int" >       81 </v>
   <v type="int" >       82 </v>
   <v type="int" >       83 </v>
   <v type="int" >       84 </v>
   <v type="int" >       85 </v>
   <v type="int" >       86 </v>
   <v type="int" >       87 </v>
   <v type="int" >       88 </v>
   <v type="int" >       89 </v>
   <v type="int" >       90 </v>
   <v type="int" >       91 </v>
   <v type="int" >       92 </v>
   <v type="int" >       93 </v>
   <v type="int" >       94 </v>
   <v type="int" >       95 </v>
   <v type="int" >       96 </v>
   <v type="int" >       97 </v>
   <v type="int" >       98 </v>
   <v type="int" >       99 </v>
   <v type="int" >      100 </v>
   <v type="int" >      101 </v>
   <v type="int" >      102 </v>
   <v type="int" >      103 </v>
   <v type="int" >      104 </v>
   <v type="int" >      105 </v>
   <v type="int" >      106 </v>
   <v type="int" >      107 </v>
   <v type="int" >      108 </v>
   <v type="int" >      109 </v>
   <v type="int" >      110 </v>
   <v type="int" >      111 </v>
   <v type="int" >      112 </v>
   <v type="int" >      113 </v>
   <v type="int" >      114 </v>
   <v type="int" >      115 </v>
   <v type="int" >      116 </v>
   <v type="int" >      117 </v>
   <v type="int" >      118 </v>
   <v type="int" >      119 </v>
   <v type="int" >      120 </v>
   <v type="int" >      121 </v>
   <v type="int" >      122 </v>
   <v type="int" >      123 </v>
   <v type="int" >      124 </v>
   <v type="int" >      125 </v>
   <v type="int" >      126 </v>
   <v type="int" >      127 </v>
   <v type="int" >      128 </v>
   <v type="int" >      129 </v>
   <v type="int" >      130 </v>
   <v type="int" >      131 </v>
   <v type="int" >      132 </v>
   <v type="int" >      133 </v>
   <v type="int" >      134 </v>
   <v type="int" >      135 </v>
   <v type="int" >      136 </v>
   <v type="int" >      137 </v>
   <v type="int" >      138 </v>
   <v type="int" >      139 </v>
   <v type="int" >      140 </v>
   <v type="int" >      141 </v>
   <v type="int" >      142 </v>
   <v type="int" >      143 </v>
   <v type="int" >      144 </v>
   <v type="int" >      145 </v>
   <v type="int" >      146 </v>
   <v type="int" >      147 </v>
   <v type="int" >      148 </v>
   <v type="int" >      149 </v>
   <v type="int" >      150 </v>
   <v type="int" >      151 </v>
   <v type="int" >      152 </v>
   <v type="int" >      153 </v>
   <v type="int" >      154 </v>
   <v type="int" >      155 </v>
   <v type="int" >      156 </v>
   <v type="int" >      157 </v>
   <v type="int" >      158 </v>
   <v type="int" >      159 </v>
   <v type="int" >      160 </v>
   <v type="int" >      161 </v>
   <v type="int" >      162 </v>
   <v type="int" >      163 </v>
   <v type="int" >      164 </v>
   <v type="int" >      165 </v>
   <v type="int" >      166 </v>
   <v type="int" >      167 </v>
   <v type="int" >      168 </v>
   <v type="int" >      169 </v>
   <v type="int" >      170 </v>
   <v type="int" >      171 </v>
   <v type="int" >      172 </v>
   <v type="int" >      173 </v>
   <v type="int" >      174 </v>
   <v type="int" >      175 </v>
   <v type="int" >      176 </v>
   <v type="int" >      177 </v>
   <v type="int" >      178 </v>
   <v type="int" >      179 </v>
   <v type="int" >      180 </v>
   <v type="int" >      181 </v>
   <v type="int" >      182 </v>
   <v type="int" >      183 </v>
   <v type="int" >      184 </v>
   <v type="int" >      185 </v>
   <v type="int" >      186 </v>
   <v type="int" >      187 </v>
   <v type="int" >      188 </v>
   <v type="int" >      189 </v>
   <v type="int" >      190 </v>
   <v type="int" >      191 </v>
   <v type="int" >      192 </v>
   <v type="int" >      193 </v>
   <v type="int" >      194 </v>
   <v type="int" >      195 </v>
   <v type="int" >      196 </v>
   <v type="int" >      197 </v>
   <v type="int" >      198 </v>
   <v type="int" >      199 </v>
   <v type="int" >      200 </v>
   <v type="int" >      201 </v>
   <v type="int" >      202 </v>
   <v type="int" >      203 </v>
   <v type="int" >      204 </v>
   <v type="int" >      205 </v>
   <v type="int" >      206 </v>
   <v type="int" >      207 </v>
   <v type="int" >      208 </v>
   <v type="int" >      209 </v>
   <v type="int" >      210 </v>
   <v type="int" >      211 </v>
   <v type="int" >      212 </v>
   <v type="int" >      213 </v>
   <v type="int" >      214 </v>
   <v type="int" >      215 </v>
   <v type="int" >      216 </v>
   <v type="int" >      217 </v>
   <v type="int" >      218 </v>
   <v type="int" >      219 </v>
   <v type="int" >      220 </v>
   <v type="int" >      221 </v>
   <v type="int" >      222 </v>
   <v type="int" >      223 </v>
   <v type="int" >      224 </v>
   <v type="int" >      225 </v>
   <v type="int" >      226 </v>
   <v type="int" >      227 </v>
   <v type="int" >      228 </v>
   <v type="int" >      229 </v>
   <v type="int" >      230 </v>
   <v type="int" >      231 </v>
   <v type="int" >      232 </v>
   <v type="int" >      233 </v>
   <v type="int" >      234 </v>
   <v type="int" >      235 </v>
   <v type="int" >      236 </v>
   <v type="int" >      237 </v>
   <v type="int" >      238 </v>
   <v type="int" >      239 </v>
   <v type="int" >      240 </v>
   <v type="int" >      241 </v>
   <v type="int" >      242 </v>
   <v type="int" >      243 </v>
   <v type="int" >      244 </v>
   <v type="int" >      245 </v>
   <v type="int" >      246 </v>
   <v type="int" >      247 </v>
   <v type="int" >      248 </v>
   <v type="int" >      249 </v>
   <v type="int" >      250 </v>
   <v type="int" >      251 </v>
   <v type="int" >      252 </v>
   <v type="int" >      253 </v>
   <v type="int" >      254 </v>
   <v type="int" >      255 </v>
   <v type="int" >      256 </v>
   <v type="int" >      257 </v>
   <v type="int" >      258 </v>
   <v type="int" >      259 </v>
   <v type="int" >      260 </v>
   <v type="int" >      261 </v>
   <v type="int" >      262 </v>
   <v type="int" >      263 </v>
   <v type="int" >      264 </v>
   <v type="int" >      265 </v>
   <v type="int" >      266 </v>
   <v type="int" >      267 </v>
   <v type="int" >      268 </v>
   <v type="int" >      269 </v>
   <v type="int" >      270 </v>
   <v type="int" >      271 </v>
   <v type="int" >      272 </v>
   <v type="int" >      273 </v>
   <v type="int" >      274 </v>
   <v type="int" >      275 </v>
   <v type="int" >      276 </v>
   <v type="int" >      277 </v>
   <v type="int" >      278 </v>
   <v type="int" >      279 </v>
   <v type="int" >      280 </v>
   <v type="int" >      281 </v>
   <v type="int" >      282 </v>
   <v type="int" >      283 </v>
   <v type="int" >      284 </v>
   <v type="int" >      285 </v>
   <v type="int" >      286 </v>
   <v type="int" >      287 </v>
   <v type="int" >      288 </v>
   <v type="int" >      289 </v>
   <v type="int" >      290 </v>
   <v type="int" >      291 </v>
   <v type="int" >      292 </v>
   <v type="int" >      293 </v>
   <v type="int" >      294 </v>
   <v type="int" >      295 </v>
   <v type="int" >      296 </v>
   <v type="int" >      297 </v>
   <v type="int" >      298 </v>
   <v type="int" >      299 </v>
   <v type="int" >      300 </v>
   <v type="int" >      301 </v>
   <v type="int" >      302 </v>
   <v type="int" >      303 </v>
   <v type="int" >      304 </v>
   <v type="int" >      305 </v>
   <v type="int" >      306 </v>
   <v type="int" >      307 </v>
   <v type="int" >      308 </v>
   <v type="int" >      309 </v>
   <v type="int" >      310 </v>
   <v type="int" >      311 </v>
   <v type="int" >      312 </v>
   <v type="int" >      313 </v>
   <v type="int" >      314 </v>
   <v type="int" >      315 </v>
   <v type="int" >      316 </v>
   <v type="int" >      317 </v>
   <v type="int" >      318 </v>
   <v type="int" >      319 </v>
   <v type="int" >      320 </v>
   <v type="int" >      321 </v>
   <v type="int" >      322 </v>
   <v type="int" >      323 </v>
   <v type="int" >      324 </v>
   <v type="int" >      325 </v>
  </varray>
 </primitive_cell>
 <kpoints>
  <generation param="Gamma">
   <v type="int" name="divisions">       3        3        1 </v>
   <v name="usershift">      0.00000000       0.00000000       0.00000000 </v>
   <v name="genvec1">      0.33333333       0.00000000       0.00000000 </v>
   <v name="genvec2">      0.00000000       0.33333333       0.00000000 </v>
   <v name="genvec3">      0.00000000       0.00000000       1.00000000 </v>
   <v name="shift">      0.00000000       0.00000000       0.00000000 </v>
  </generation>
  <varray name="kpointlist" >
   <v>       0.00000000       0.00000000       0.00000000 </v>
   <v>       0.33333333       0.00000000       0.00000000 </v>
   <v>       0.00000000       0.33333333       0.00000000 </v>
   <v>       0.33333333       0.33333333       0.00000000 </v>
   <v>      -0.33333333       0.33333333       0.00000000 </v>
  </varray>
  <varray name="weights" >
   <v>       0.11111111 </v>
   <v>       0.22222222 </v>
   <v>       0.22222222 </v>
   <v>       0.22222222 </v>
   <v>       0.22222222 </v>
  </varray>
 </kpoints>
 <parameters>
  <separator name="general" >
   <i type="string" name="SYSTEM">PSC</i>
   <i type="logical" name="LCOMPAT"> F  </i>
  </separator>
  <separator name="electronic" >
   <i type="string" name="PREC">normal</i>
   <i name="ENMAX">    500.00000000</i>
   <i name="ENAUG">    644.87300000</i>
   <i name="EDIFF">      0.00010000</i>
   <i type="int" name="IALGO">    38</i>
   <i type="int" name="IWAVPR">    10</i>
   <i type="int" name="NBANDS">   732</i>
   <i type="int" name="NBANDSLOW">    -1</i>
   <i type="int" name="NBANDSHIGH">    -1</i>
   <i name="NELECT">   1134.00000000</i>
   <i type="int" name="TURBO">     0</i>
   <i type="int" name="IRESTART">     0</i>
   <i type="int" name="NREBOOT">     0</i>
   <i type="int" name="NMIN">     0</i>
   <i name="EREF">      0.00000000</i>
   <separator name="electronic smearing" >
    <i type="int" name="ISMEAR">     0</i>
    <i name="SIGMA">      0.05000000</i>
    <i name="KSPACING">      0.50000000</i>
    <i type="logical" name="KGAMMA"> T  </i>
    <i type="logical" name="KBLOWUP"> T  </i>
   </separator>
   <separator name="electronic projectors" >
    <i type="logical" name="LREAL"> T  </i>
    <v name="ROPT">     -0.00050000     -0.00050000     -0.00050000     -0.00050000     -0.00050000</v>
    <i type="int" name="LMAXPAW">  -100</i>
    <i type="int" name="LMAXMIX">     2</i>
    <i type="logical" name="NLSPLINE"> F  </i>
   </separator>
   <separator name="electronic startup" >
    <i type="int" name="ISTART">     0</i>
    <i type="int" name="ICHARG">     1</i>
    <i type="int" name="INIWAV">     1</i>
   </separator>
   <separator name="electronic spin" >
    <i type="int" name="ISPIN">     1</i>
    <i type="logical" name="LNONCOLLINEAR"> F  </i>
    <v name="MAGMOM">      1.00000000      1.00000000      1.00000000      1.00000000      1.00000000      1.00000000      1.00000000      1.00000000      1.00000000      1.00000000      1.00000000      1.00000000      1.00000000      1.00000000      1.00000000      1.00000000      1.00000000      1.00000000      1.00000000      1.00000000
      1.00000000      1.00000000      1.00000000      1.00000000      1.00000000      1.00000000      1.00000000      1.00000000      1.00000000      1.00000000      1.00000000      1.00000000      1.00000000      1.00000000      1.00000000      1.00000000      1.00000000      1.00000000      1.00000000      1.00000000
      1.00000000      1.00000000      1.00000000      1.00000000      1.00000000      1.00000000      1.00000000      1.00000000      1.00000000      1.00000000      1.00000000      1.00000000      1.00000000      1.00000000      1.00000000      1.00000000      1.00000000      1.00000000      1.00000000      1.00000000
      1.00000000      1.00000000      1.00000000      1.00000000      1.00000000      1.00000000      1.00000000      1.00000000      1.00000000      1.00000000      1.00000000      1.00000000      1.00000000      1.00000000      1.00000000      1.00000000      1.00000000      1.00000000      1.00000000      1.00000000
      1.00000000      1.00000000      1.00000000      1.00000000      1.00000000      1.00000000      1.00000000      1.00000000      1.00000000      1.00000000      1.00000000      1.00000000      1.00000000      1.00000000      1.00000000      1.00000000      1.00000000      1.00000000      1.00000000      1.00000000
      1.00000000      1.00000000      1.00000000      1.00000000      1.00000000      1.00000000      1.00000000      1.00000000      1.00000000      1.00000000      1.00000000      1.00000000      1.00000000      1.00000000      1.00000000      1.00000000      1.00000000      1.00000000      1.00000000      1.00000000
      1.00000000      1.00000000      1.00000000      1.00000000      1.00000000      1.00000000      1.00000000      1.00000000      1.00000000      1.00000000      1.00000000      1.00000000      1.00000000      1.00000000      1.00000000      1.00000000      1.00000000      1.00000000      1.00000000      1.00000000
      1.00000000      1.00000000      1.00000000      1.00000000      1.00000000      1.00000000      1.00000000      1.00000000      1.00000000      1.00000000      1.00000000      1.00000000      1.00000000      1.00000000      1.00000000      1.00000000      1.00000000      1.00000000      1.00000000      1.00000000
      1.00000000      1.00000000      1.00000000      1.00000000      1.00000000      1.00000000      1.00000000      1.00000000      1.00000000      1.00000000      1.00000000      1.00000000      1.00000000      1.00000000      1.00000000      1.00000000      1.00000000      1.00000000      1.00000000      1.00000000
      1.00000000      1.00000000      1.00000000      1.00000000      1.00000000      1.00000000      1.00000000      1.00000000      1.00000000      1.00000000      1.00000000      1.00000000      1.00000000      1.00000000      1.00000000      1.00000000      1.00000000      1.00000000      1.00000000      1.00000000
      1.00000000      1.00000000      1.00000000      1.00000000      1.00000000      1.00000000      1.00000000      1.00000000      1.00000000      1.00000000      1.00000000      1.00000000      1.00000000      1.00000000      1.00000000      1.00000000      1.00000000      1.00000000      1.00000000      1.00000000
      1.00000000      1.00000000      1.00000000      1.00000000      1.00000000      1.00000000      1.00000000      1.00000000      1.00000000      1.00000000      1.00000000      1.00000000      1.00000000      1.00000000      1.00000000      1.00000000      1.00000000      1.00000000      1.00000000      1.00000000
      1.00000000      1.00000000      1.00000000      1.00000000      1.00000000      1.00000000      1.00000000      1.00000000      1.00000000      1.00000000      1.00000000      1.00000000      1.00000000      1.00000000      1.00000000      1.00000000      1.00000000      1.00000000      1.00000000      1.00000000
      1.00000000      1.00000000      1.00000000      1.00000000      1.00000000      1.00000000      1.00000000      1.00000000      1.00000000      1.00000000      1.00000000      1.00000000      1.00000000      1.00000000      1.00000000      1.00000000      1.00000000      1.00000000      1.00000000      1.00000000
      1.00000000      1.00000000      1.00000000      1.00000000      1.00000000      1.00000000      1.00000000      1.00000000      1.00000000      1.00000000      1.00000000      1.00000000      1.00000000      1.00000000      1.00000000      1.00000000      1.00000000      1.00000000      1.00000000      1.00000000
      1.00000000      1.00000000      1.00000000      1.00000000      1.00000000      1.00000000      1.00000000      1.00000000      1.00000000      1.00000000      1.00000000      1.00000000      1.00000000      1.00000000      1.00000000      1.00000000      1.00000000      1.00000000      1.00000000      1.00000000
      1.00000000      1.00000000      1.00000000      1.00000000      1.00000000</v>
    <i name="NUPDOWN">     -1.00000000</i>
    <i type="logical" name="LSORBIT"> F  </i>
    <v name="SAXIS">      0.00000000      0.00000000      1.00000000</v>
    <i type="logical" name="LSPIRAL"> F  </i>
    <v name="QSPIRAL">      0.00000000      0.00000000      0.00000000</v>
    <i type="logical" name="LZEROZ"> F  </i>
   </separator>
   <separator name="electronic exchange-correlation" >
    <i type="logical" name="LASPH"> F  </i>
    <i type="logical" name="LMETAGGA"> F  </i>
   </separator>
   <separator name="electronic convergence" >
    <i type="int" name="NELM">   600</i>
    <i type="int" name="NELMDL">     0</i>
    <i type="int" name="NELMIN">     2</i>
    <i name="ENINI">    500.00000000</i>
    <separator name="electronic convergence detail" >
     <i type="logical" name="LDIAG"> T  </i>
     <i type="logical" name="LSUBROT"> F  </i>
     <i name="WEIMIN">      0.00000000</i>
     <i name="EBREAK">      0.00000003</i>
     <i name="DEPER">      0.30000000</i>
     <i type="int" name="NRMM">     4</i>
     <i name="TIME">      0.40000000</i>
    </separator>
   </separator>
   <separator name="electronic mixer" >
    <i name="AMIX">      0.40000000</i>
    <i name="BMIX">      0.01000000</i>
    <i name="AMIN">      0.01000000</i>
    <i name="AMIX_MAG">      1.60000000</i>
    <i name="BMIX_MAG">      0.01000000</i>
    <separator name="electronic mixer details" >
     <i type="int" name="IMIX">     4</i>
     <i type="logical" name="MIXFIRST"> F  </i>
     <i type="int" name="MAXMIX">   -45</i>
     <i name="WC">    100.00000000</i>
     <i type="int" name="INIMIX">     1</i>
     <i type="int" name="MIXPRE">     1</i>
     <i type="int" name="MREMOVE">     5</i>
    </separator>
   </separator>
   <separator name="electronic dipolcorrection" >
    <i type="logical" name="LDIPOL"> T  </i>
    <i type="logical" name="LMONO"> F  </i>
    <i type="int" name="IDIPOL">     3</i>
    <i name="EPSILON">      1.00000000</i>
    <v name="DIPOL">   -100.00000000   -100.00000000   -100.00000000</v>
    <i name="EFIELD">      0.00000000</i>
   </separator>
  </separator>
  <separator name="grids" >
   <i type="int" name="NGX">   100</i>
   <i type="int" name="NGY">   100</i>
   <i type="int" name="NGZ">   350</i>
   <i type="int" name="NGXF">   200</i>
   <i type="int" name="NGYF">   200</i>
   <i type="int" name="NGZF">   700</i>
   <i type="logical" name="ADDGRID"> F  </i>
  </separator>
  <separator name="ionic" >
   <i type="int" name="NSW">     0</i>
   <i type="int" name="IBRION">    -1</i>
   <i type="int" name="MDALGO">     0</i>
   <i type="int" name="ISIF">     2</i>
   <i name="PSTRESS">      0.00000000</i>
   <i name="EDIFFG">      0.00100000</i>
   <i type="int" name="NFREE">     0</i>
   <i name="POTIM">      0.50000000</i>
   <i name="SMASS">     -3.00000000</i>
   <i name="SCALEE">      1.00000000</i>
  </separator>
  <separator name="ionic md" >
   <i name="TEBEG">      0.00010000</i>
   <i name="TEEND">      0.00010000</i>
   <i type="int" name="NBLOCK">     1</i>
   <i type="int" name="KBLOCK">     1</i>
   <i type="int" name="NPACO">   256</i>
   <i name="APACO">     16.00000000</i>
  </separator>
  <separator name="symmetry" >
   <i type="int" name="ISYM">     0</i>
   <i name="SYMPREC">      0.00001000</i>
  </separator>
  <separator name="dos" >
   <i type="int" name="LORBIT">     0</i>
   <v name="RWIGS">     -1.00000000     -1.00000000     -1.00000000     -1.00000000     -1.00000000</v>
   <i type="int" name="NEDOS">   301</i>
   <i name="EMIN">     10.00000000</i>
   <i name="EMAX">    -10.00000000</i>
   <i name="EFERMI">      0.00000000</i>
  </separator>
  <separator name="writing" >
   <i type="int" name="NWRITE">     2</i>
   <i type="logical" name="LWAVE"> F  </i>
   <i type="logical" name="LDOWNSAMPLE"> F  </i>
   <i type="logical" name="LCHARG"> T  </i>
   <i type="logical" name="LPARD"> F  </i>
   <i type="logical" name="LVTOT"> T  </i>
   <i type="logical" name="LVHAR"> F  </i>
   <i type="logical" name="LELF"> F  </i>
   <i type="logical" name="LOPTICS"> F  </i>
   <v name="STM">      0.00000000      0.00000000      0.00000000      0.00000000      0.00000000      0.00000000      0.00000000</v>
  </separator>
  <separator name="performance" >
   <i type="int" name="NPAR">     4</i>
   <i type="int" name="NSIM">     4</i>
   <i type="int" name="NBLK">    -1</i>
   <i type="logical" name="LPLANE"> T  </i>
   <i type="logical" name="LSCALAPACK"> T  </i>
   <i type="logical" name="LSCAAWARE"> F  </i>
   <i type="logical" name="LSCALU"> F  </i>
   <i type="logical" name="LASYNC"> F  </i>
   <i type="logical" name="LORBITALREAL"> F  </i>
  </separator>
  <separator name="miscellaneous" >
   <i type="int" name="IDIOT">     3</i>
   <i type="int" name="PHON_NSTRUCT">    -1</i>
   <i type="logical" name="LMUSIC"> F  </i>
   <v name="POMASS">      1.00000000     12.01100000     14.00100000    126.90400000    207.20000000</v>
   <v name="DARWINR">      0.00000000      0.00000000      0.00000000      0.00000000      0.00000000</v>
   <v name="DARWINV">      1.00000000      1.00000000      1.00000000      1.00000000      1.00000000</v>
   <i type="logical" name="LCORR"> T  </i>
  </separator>
  <i type="logical" name="GGA_COMPAT"> F  </i>
  <i type="logical" name="LBERRY"> F  </i>
  <i type="int" name="ICORELEVEL">     0</i>
  <i type="logical" name="LDAU"> F  </i>
  <i type="int" name="I_CONSTRAINED_M">     0</i>
  <separator name="electronic exchange-correlation" >
   <i type="string" name="GGA">--</i>
   <i type="int" name="VOSKOWN">     0</i>
   <i type="logical" name="LHFCALC"> F  </i>
   <i type="string" name="PRECFOCK"></i>
   <i type="logical" name="LSYMGRAD"> F  </i>
   <i type="logical" name="LHFONE"> F  </i>
   <i type="logical" name="LRHFCALC"> F  </i>
   <i type="logical" name="LTHOMAS"> F  </i>
   <i type="logical" name="LMODELHF"> F  </i>
   <i type="logical" name="LFOCKACE"> F  </i>
   <i name="ENCUT4O">     -1.00000000</i>
   <i type="int" name="EXXOEP">     0</i>
   <i type="int" name="FOURORBIT">     0</i>
   <i name="AEXX">      0.00000000</i>
   <i name="HFALPHA">      0.00000000</i>
   <i name="MCALPHA">      0.00000000</i>
   <i name="ALDAX">      1.00000000</i>
   <i name="AGGAX">      1.00000000</i>
   <i name="ALDAC">      1.00000000</i>
   <i name="AGGAC">      1.00000000</i>
   <i type="int" name="NKREDX">     1</i>
   <i type="int" name="NKREDY">     1</i>
   <i type="int" name="NKREDZ">     1</i>
   <i type="logical" name="SHIFTRED"> F  </i>
   <i type="logical" name="ODDONLY"> F  </i>
   <i type="logical" name="EVENONLY"> F  </i>
   <i type="int" name="LMAXFOCK">     0</i>
   <i type="int" name="NMAXFOCKAE">     0</i>
   <i type="logical" name="LFOCKAEDFT"> F  </i>
   <i name="HFSCREEN">      0.00000000</i>
   <i name="HFSCREENC">      0.00000000</i>
   <i type="int" name="NBANDSGWLOW">     0</i>
  </separator>
  <separator name="vdW DFT" >
   <i type="logical" name="LUSE_VDW"> F  </i>
   <i name="Zab_VDW">     -0.84910000</i>
   <i name="PARAM1">      0.12340000</i>
   <i name="PARAM2">      1.00000000</i>
   <i name="PARAM3">      0.00000000</i>
  </separator>
  <separator name="model GW" >
   <i type="int" name="MODEL_GW">     0</i>
   <i name="MODEL_EPS0">     37.63423484</i>
   <i name="MODEL_ALPHA">      1.00000000</i>
  </separator>
  <separator name="linear response parameters" >
   <i type="logical" name="LEPSILON"> F  </i>
   <i type="logical" name="LRPA"> F  </i>
   <i type="logical" name="LNABLA"> F  </i>
   <i type="logical" name="LVEL"> F  </i>
   <i type="int" name="KINTER">     0</i>
   <i name="CSHIFT">      0.10000000</i>
   <i name="OMEGAMAX">     -1.00000000</i>
   <i name="DEG_THRESHOLD">      0.00200000</i>
   <i name="RTIME">     -0.10000000</i>
   <i name="WPLASMAI">      0.00000000</i>
   <v name="DFIELD">      0.00000000      0.00000000      0.00000000</v>
   <v name="WPLASMA">      0.00000000      0.00000000      0.00000000      0.00000000      0.00000000      0.00000000      0.00000000      0.00000000      0.00000000</v>
  </separator>
  <separator name="orbital magnetization" >
   <i type="logical" name="NUCIND"> F  </i>
   <v name="MAGPOS">      0.00000000      0.00000000      0.00000000</v>
   <i type="logical" name="LNICSALL"> T  </i>
   <i type="logical" name="ORBITALMAG"> F  </i>
   <i type="logical" name="LMAGBLOCH"> F  </i>
   <i type="logical" name="LCHIMAG"> F  </i>
   <i type="logical" name="LGAUGE"> T  </i>
   <i type="int" name="MAGATOM">     0</i>
   <v name="MAGDIPOL">      0.00000000      0.00000000      0.00000000</v>
   <v name="AVECCONST">      0.00000000      0.00000000      0.00000000</v>
  </separator>
  <separator name="response functions" >
   <i type="logical" name="LFINITE_TEMPERATURE"> F  </i>
   <i type="logical" name="LADDER"> F  </i>
   <i type="logical" name="LRPAFORCE"> F  </i>
   <i type="logical" name="LFXC"> F  </i>
   <i type="logical" name="LHARTREE"> T  </i>
   <i type="int" name="IBSE">     0</i>
   <v type="int" name="KPOINT">    -1     0     0     0</v>
   <i type="logical" name="LTCTC"> F  </i>
   <i type="logical" name="LTCTE"> F  </i>
   <i type="logical" name="LTETE"> F  </i>
   <i type="logical" name="LTRIPLET"> F  </i>
   <i type="logical" name="LFXCEPS"> F  </i>
   <i type="logical" name="LFXHEG"> F  </i>
   <i type="int" name="NATURALO">     2</i>
   <i type="logical" name="LHOLEGF"> F  </i>
   <i type="logical" name="L2ORDER"> F  </i>
   <i type="logical" name="LDMP1"> F  </i>
   <i type="logical" name="LMP2LT"> F  </i>
   <i type="logical" name="LSMP2LT"> F  </i>
   <i type="logical" name="LGWLF"> F  </i>
   <i name="ENCUTGW">     -2.00000000</i>
   <i name="ENCUTGWSOFT">     -2.00000000</i>
   <i name="ENCUTLF">     -1.00000000</i>
   <i type="logical" name="LESF_SPLINES"> F  </i>
   <i type="int" name="LMAXMP2">    -1</i>
   <i name="SCISSOR">      0.00000000</i>
   <i type="int" name="NOMEGA">     0</i>
   <i type="int" name="NOMEGAR">     0</i>
   <i type="int" name="NBANDSGW">    -1</i>
   <i type="int" name="NBANDSO">    -1</i>
   <i type="int" name="NBANDSV">    -1</i>
   <i type="int" name="NELM">   600</i>
   <i type="int" name="NELMHF">     1</i>
   <i type="int" name="DIM">     3</i>
   <i type="int" name="IESPILON">     4</i>
   <i type="int" name="ANTIRES">     0</i>
   <i name="OMEGAMAX">    -30.00000000</i>
   <i name="OMEGAMIN">    -30.00000000</i>
   <i name="OMEGATL">   -200.00000000</i>
   <i type="int" name="OMEGAGRID">     0</i>
   <i name="CSHIFT">     -0.10000000</i>
   <i type="logical" name="LSELFENERGY"> F  </i>
   <i type="logical" name="LSPECTRAL"> F  </i>
   <i type="logical" name="LSPECTRALGW"> F  </i>
   <i type="logical" name="LSINGLES"> F  </i>
   <i type="logical" name="LFERMIGW"> F  </i>
   <i type="logical" name="ODDONLYGW"> F  </i>
   <i type="logical" name="EVENONLYGW"> F  </i>
   <i type="int" name="NKREDLFX">     1</i>
   <i type="int" name="NKREDLFY">     1</i>
   <i type="int" name="NKREDLFZ">     1</i>
   <i type="int" name="MAXMEM">  2800</i>
   <i type="int" name="TELESCOPE">     0</i>
   <i type="int" name="NTAUPAR">    -1</i>
   <i type="int" name="NOMEGAPAR">    -1</i>
   <i name="DAMP_NEWTON">      0.80000001</i>
   <i name="LAMBDA">      1.00000000</i>
  </separator>
  <separator name="External order field" >
   <i name="OFIELD_KAPPA">      0.00000000</i>
   <v name="OFIELD_K">      0.00000000      0.00000000      0.00000000</v>
   <i name="OFIELD_Q6_NEAR">      0.00000000</i>
   <i name="OFIELD_Q6_FAR">      0.00000000</i>
   <i name="OFIELD_A">      0.00000000</i>
  </separator>
 </parameters>
 <atominfo>
  <atoms>     325 </atoms>
  <types>       5 </types>
  <array name="atoms" >
   <dimension dim="1">ion</dimension>
   <field type="string">element</field>
   <field type="int">atomtype</field>
   <set>
    <rc><c>H </c><c>   1</c></rc>
    <rc><c>H </c><c>   1</c></rc>
    <rc><c>H </c><c>   1</c></rc>
    <rc><c>H </c><c>   1</c></rc>
    <rc><c>H </c><c>   1</c></rc>
    <rc><c>H </c><c>   1</c></rc>
    <rc><c>H </c><c>   1</c></rc>
    <rc><c>H </c><c>   1</c></rc>
    <rc><c>H </c><c>   1</c></rc>
    <rc><c>H </c><c>   1</c></rc>
    <rc><c>H </c><c>   1</c></rc>
    <rc><c>H </c><c>   1</c></rc>
    <rc><c>H </c><c>   1</c></rc>
    <rc><c>H </c><c>   1</c></rc>
    <rc><c>H </c><c>   1</c></rc>
    <rc><c>H </c><c>   1</c></rc>
    <rc><c>H </c><c>   1</c></rc>
    <rc><c>H </c><c>   1</c></rc>
    <rc><c>H </c><c>   1</c></rc>
    <rc><c>H </c><c>   1</c></rc>
    <rc><c>H </c><c>   1</c></rc>
    <rc><c>H </c><c>   1</c></rc>
    <rc><c>H </c><c>   1</c></rc>
    <rc><c>H </c><c>   1</c></rc>
    <rc><c>H </c><c>   1</c></rc>
    <rc><c>H </c><c>   1</c></rc>
    <rc><c>H </c><c>   1</c></rc>
    <rc><c>H </c><c>   1</c></rc>
    <rc><c>H </c><c>   1</c></rc>
    <rc><c>H </c><c>   1</c></rc>
    <rc><c>H </c><c>   1</c></rc>
    <rc><c>H </c><c>   1</c></rc>
    <rc><c>H </c><c>   1</c></rc>
    <rc><c>H </c><c>   1</c></rc>
    <rc><c>H </c><c>   1</c></rc>
    <rc><c>H </c><c>   1</c></rc>
    <rc><c>H </c><c>   1</c></rc>
    <rc><c>H </c><c>   1</c></rc>
    <rc><c>H </c><c>   1</c></rc>
    <rc><c>H </c><c>   1</c></rc>
    <rc><c>H </c><c>   1</c></rc>
    <rc><c>H </c><c>   1</c></rc>
    <rc><c>H </c><c>   1</c></rc>
    <rc><c>H </c><c>   1</c></rc>
    <rc><c>H </c><c>   1</c></rc>
    <rc><c>H </c><c>   1</c></rc>
    <rc><c>H </c><c>   1</c></rc>
    <rc><c>H </c><c>   1</c></rc>
    <rc><c>H </c><c>   1</c></rc>
    <rc><c>H </c><c>   1</c></rc>
    <rc><c>H </c><c>   1</c></rc>
    <rc><c>H </c><c>   1</c></rc>
    <rc><c>H </c><c>   1</c></rc>
    <rc><c>H </c><c>   1</c></rc>
    <rc><c>H </c><c>   1</c></rc>
    <rc><c>H </c><c>   1</c></rc>
    <rc><c>H </c><c>   1</c></rc>
    <rc><c>H </c><c>   1</c></rc>
    <rc><c>H </c><c>   1</c></rc>
    <rc><c>H </c><c>   1</c></rc>
    <rc><c>H </c><c>   1</c></rc>
    <rc><c>H </c><c>   1</c></rc>
    <rc><c>H </c><c>   1</c></rc>
    <rc><c>H </c><c>   1</c></rc>
    <rc><c>H </c><c>   1</c></rc>
    <rc><c>H </c><c>   1</c></rc>
    <rc><c>H </c><c>   1</c></rc>
    <rc><c>H </c><c>   1</c></rc>
    <rc><c>H </c><c>   1</c></rc>
    <rc><c>H </c><c>   1</c></rc>
    <rc><c>H </c><c>   1</c></rc>
    <rc><c>H </c><c>   1</c></rc>
    <rc><c>H </c><c>   1</c></rc>
    <rc><c>H </c><c>   1</c></rc>
    <rc><c>H </c><c>   1</c></rc>
    <rc><c>H </c><c>   1</c></rc>
    <rc><c>H </c><c>   1</c></rc>
    <rc><c>H </c><c>   1</c></rc>
    <rc><c>H </c><c>   1</c></rc>
    <rc><c>H </c><c>   1</c></rc>
    <rc><c>H </c><c>   1</c></rc>
    <rc><c>H </c><c>   1</c></rc>
    <rc><c>H </c><c>   1</c></rc>
    <rc><c>H </c><c>   1</c></rc>
    <rc><c>H </c><c>   1</c></rc>
    <rc><c>H </c><c>   1</c></rc>
    <rc><c>H </c><c>   1</c></rc>
    <rc><c>H </c><c>   1</c></rc>
    <rc><c>H </c><c>   1</c></rc>
    <rc><c>H </c><c>   1</c></rc>
    <rc><c>H </c><c>   1</c></rc>
    <rc><c>H </c><c>   1</c></rc>
    <rc><c>H </c><c>   1</c></rc>
    <rc><c>H </c><c>   1</c></rc>
    <rc><c>H </c><c>   1</c></rc>
    <rc><c>H </c><c>   1</c></rc>
    <rc><c>H </c><c>   1</c></rc>
    <rc><c>H </c><c>   1</c></rc>
    <rc><c>H </c><c>   1</c></rc>
    <rc><c>H </c><c>   1</c></rc>
    <rc><c>H </c><c>   1</c></rc>
    <rc><c>H </c><c>   1</c></rc>
    <rc><c>H </c><c>   1</c></rc>
    <rc><c>H </c><c>   1</c></rc>
    <rc><c>H </c><c>   1</c></rc>
    <rc><c>H </c><c>   1</c></rc>
    <rc><c>H </c><c>   1</c></rc>
    <rc><c>H </c><c>   1</c></rc>
    <rc><c>H </c><c>   1</c></rc>
    <rc><c>H </c><c>   1</c></rc>
    <rc><c>H </c><c>   1</c></rc>
    <rc><c>H </c><c>   1</c></rc>
    <rc><c>H </c><c>   1</c></rc>
    <rc><c>H </c><c>   1</c></rc>
    <rc><c>H </c><c>   1</c></rc>
    <rc><c>H </c><c>   1</c></rc>
    <rc><c>H </c><c>   1</c></rc>
    <rc><c>H </c><c>   1</c></rc>
    <rc><c>H </c><c>   1</c></rc>
    <rc><c>H </c><c>   1</c></rc>
    <rc><c>H </c><c>   1</c></rc>
    <rc><c>H </c><c>   1</c></rc>
    <rc><c>H </c><c>   1</c></rc>
    <rc><c>H </c><c>   1</c></rc>
    <rc><c>H </c><c>   1</c></rc>
    <rc><c>H </c><c>   1</c></rc>
    <rc><c>H </c><c>   1</c></rc>
    <rc><c>H </c><c>   1</c></rc>
    <rc><c>H </c><c>   1</c></rc>
    <rc><c>H </c><c>   1</c></rc>
    <rc><c>H </c><c>   1</c></rc>
    <rc><c>H </c><c>   1</c></rc>
    <rc><c>H </c><c>   1</c></rc>
    <rc><c>H </c><c>   1</c></rc>
    <rc><c>H </c><c>   1</c></rc>
    <rc><c>H </c><c>   1</c></rc>
    <rc><c>H </c><c>   1</c></rc>
    <rc><c>H </c><c>   1</c></rc>
    <rc><c>H </c><c>   1</c></rc>
    <rc><c>H </c><c>   1</c></rc>
    <rc><c>H </c><c>   1</c></rc>
    <rc><c>H </c><c>   1</c></rc>
    <rc><c>H </c><c>   1</c></rc>
    <rc><c>C </c><c>   2</c></rc>
    <rc><c>C </c><c>   2</c></rc>
    <rc><c>C </c><c>   2</c></rc>
    <rc><c>C </c><c>   2</c></rc>
    <rc><c>C </c><c>   2</c></rc>
    <rc><c>C </c><c>   2</c></rc>
    <rc><c>C </c><c>   2</c></rc>
    <rc><c>C </c><c>   2</c></rc>
    <rc><c>C </c><c>   2</c></rc>
    <rc><c>C </c><c>   2</c></rc>
    <rc><c>C </c><c>   2</c></rc>
    <rc><c>C </c><c>   2</c></rc>
    <rc><c>C </c><c>   2</c></rc>
    <rc><c>C </c><c>   2</c></rc>
    <rc><c>C </c><c>   2</c></rc>
    <rc><c>C </c><c>   2</c></rc>
    <rc><c>C </c><c>   2</c></rc>
    <rc><c>C </c><c>   2</c></rc>
    <rc><c>C </c><c>   2</c></rc>
    <rc><c>C </c><c>   2</c></rc>
    <rc><c>C </c><c>   2</c></rc>
    <rc><c>C </c><c>   2</c></rc>
    <rc><c>C </c><c>   2</c></rc>
    <rc><c>C </c><c>   2</c></rc>
    <rc><c>C </c><c>   2</c></rc>
    <rc><c>C </c><c>   2</c></rc>
    <rc><c>C </c><c>   2</c></rc>
    <rc><c>C </c><c>   2</c></rc>
    <rc><c>C </c><c>   2</c></rc>
    <rc><c>C </c><c>   2</c></rc>
    <rc><c>C </c><c>   2</c></rc>
    <rc><c>C </c><c>   2</c></rc>
    <rc><c>C </c><c>   2</c></rc>
    <rc><c>C </c><c>   2</c></rc>
    <rc><c>C </c><c>   2</c></rc>
    <rc><c>C </c><c>   2</c></rc>
    <rc><c>C </c><c>   2</c></rc>
    <rc><c>C </c><c>   2</c></rc>
    <rc><c>C </c><c>   2</c></rc>
    <rc><c>N </c><c>   3</c></rc>
    <rc><c>N </c><c>   3</c></rc>
    <rc><c>N </c><c>   3</c></rc>
    <rc><c>N </c><c>   3</c></rc>
    <rc><c>N </c><c>   3</c></rc>
    <rc><c>N </c><c>   3</c></rc>
    <rc><c>N </c><c>   3</c></rc>
    <rc><c>N </c><c>   3</c></rc>
    <rc><c>N </c><c>   3</c></rc>
    <rc><c>N </c><c>   3</c></rc>
    <rc><c>N </c><c>   3</c></rc>
    <rc><c>N </c><c>   3</c></rc>
    <rc><c>N </c><c>   3</c></rc>
    <rc><c>N </c><c>   3</c></rc>
    <rc><c>N </c><c>   3</c></rc>
    <rc><c>N </c><c>   3</c></rc>
    <rc><c>N </c><c>   3</c></rc>
    <rc><c>N </c><c>   3</c></rc>
    <rc><c>N </c><c>   3</c></rc>
    <rc><c>N </c><c>   3</c></rc>
    <rc><c>N </c><c>   3</c></rc>
    <rc><c>N </c><c>   3</c></rc>
    <rc><c>N </c><c>   3</c></rc>
    <rc><c>N </c><c>   3</c></rc>
    <rc><c>N </c><c>   3</c></rc>
    <rc><c>N </c><c>   3</c></rc>
    <rc><c>N </c><c>   3</c></rc>
    <rc><c>N </c><c>   3</c></rc>
    <rc><c>N </c><c>   3</c></rc>
    <rc><c>N </c><c>   3</c></rc>
    <rc><c>N </c><c>   3</c></rc>
    <rc><c>N </c><c>   3</c></rc>
    <rc><c>N </c><c>   3</c></rc>
    <rc><c>N </c><c>   3</c></rc>
    <rc><c>N </c><c>   3</c></rc>
    <rc><c>N </c><c>   3</c></rc>
    <rc><c>N </c><c>   3</c></rc>
    <rc><c>N </c><c>   3</c></rc>
    <rc><c>N </c><c>   3</c></rc>
    <rc><c>N </c><c>   3</c></rc>
    <rc><c>N </c><c>   3</c></rc>
    <rc><c>N </c><c>   3</c></rc>
    <rc><c>N </c><c>   3</c></rc>
    <rc><c>N </c><c>   3</c></rc>
    <rc><c>N </c><c>   3</c></rc>
    <rc><c>N </c><c>   3</c></rc>
    <rc><c>N </c><c>   3</c></rc>
    <rc><c>I </c><c>   4</c></rc>
    <rc><c>I </c><c>   4</c></rc>
    <rc><c>I </c><c>   4</c></rc>
    <rc><c>I </c><c>   4</c></rc>
    <rc><c>I </c><c>   4</c></rc>
    <rc><c>I </c><c>   4</c></rc>
    <rc><c>I </c><c>   4</c></rc>
    <rc><c>I </c><c>   4</c></rc>
    <rc><c>I </c><c>   4</c></rc>
    <rc><c>I </c><c>   4</c></rc>
    <rc><c>I </c><c>   4</c></rc>
    <rc><c>I </c><c>   4</c></rc>
    <rc><c>I </c><c>   4</c></rc>
    <rc><c>I </c><c>   4</c></rc>
    <rc><c>I </c><c>   4</c></rc>
    <rc><c>I </c><c>   4</c></rc>
    <rc><c>I </c><c>   4</c></rc>
    <rc><c>I </c><c>   4</c></rc>
    <rc><c>I </c><c>   4</c></rc>
    <rc><c>I </c><c>   4</c></rc>
    <rc><c>I </c><c>   4</c></rc>
    <rc><c>I </c><c>   4</c></rc>
    <rc><c>I </c><c>   4</c></rc>
    <rc><c>I </c><c>   4</c></rc>
    <rc><c>I </c><c>   4</c></rc>
    <rc><c>I </c><c>   4</c></rc>
    <rc><c>I </c><c>   4</c></rc>
    <rc><c>I </c><c>   4</c></rc>
    <rc><c>I </c><c>   4</c></rc>
    <rc><c>I </c><c>   4</c></rc>
    <rc><c>I </c><c>   4</c></rc>
    <rc><c>I </c><c>   4</c></rc>
    <rc><c>I </c><c>   4</c></rc>
    <rc><c>I </c><c>   4</c></rc>
    <rc><c>I </c><c>   4</c></rc>
    <rc><c>I </c><c>   4</c></rc>
    <rc><c>I </c><c>   4</c></rc>
    <rc><c>I </c><c>   4</c></rc>
    <rc><c>I </c><c>   4</c></rc>
    <rc><c>I </c><c>   4</c></rc>
    <rc><c>I </c><c>   4</c></rc>
    <rc><c>I </c><c>   4</c></rc>
    <rc><c>I </c><c>   4</c></rc>
    <rc><c>I </c><c>   4</c></rc>
    <rc><c>I </c><c>   4</c></rc>
    <rc><c>I </c><c>   4</c></rc>
    <rc><c>I </c><c>   4</c></rc>
    <rc><c>I </c><c>   4</c></rc>
    <rc><c>I </c><c>   4</c></rc>
    <rc><c>I </c><c>   4</c></rc>
    <rc><c>I </c><c>   4</c></rc>
    <rc><c>I </c><c>   4</c></rc>
    <rc><c>I </c><c>   4</c></rc>
    <rc><c>I </c><c>   4</c></rc>
    <rc><c>I </c><c>   4</c></rc>
    <rc><c>I </c><c>   4</c></rc>
    <rc><c>I </c><c>   4</c></rc>
    <rc><c>I </c><c>   4</c></rc>
    <rc><c>I </c><c>   4</c></rc>
    <rc><c>I </c><c>   4</c></rc>
    <rc><c>I </c><c>   4</c></rc>
    <rc><c>I </c><c>   4</c></rc>
    <rc><c>I </c><c>   4</c></rc>
    <rc><c>I </c><c>   4</c></rc>
    <rc><c>I </c><c>   4</c></rc>
    <rc><c>I </c><c>   4</c></rc>
    <rc><c>I </c><c>   4</c></rc>
    <rc><c>I </c><c>   4</c></rc>
    <rc><c>I </c><c>   4</c></rc>
    <rc><c>I </c><c>   4</c></rc>
    <rc><c>I </c><c>   4</c></rc>
    <rc><c>I </c><c>   4</c></rc>
    <rc><c>Pb</c><c>   5</c></rc>
    <rc><c>Pb</c><c>   5</c></rc>
    <rc><c>Pb</c><c>   5</c></rc>
    <rc><c>Pb</c><c>   5</c></rc>
    <rc><c>Pb</c><c>   5</c></rc>
    <rc><c>Pb</c><c>   5</c></rc>
    <rc><c>Pb</c><c>   5</c></rc>
    <rc><c>Pb</c><c>   5</c></rc>
    <rc><c>Pb</c><c>   5</c></rc>
    <rc><c>Pb</c><c>   5</c></rc>
    <rc><c>Pb</c><c>   5</c></rc>
    <rc><c>Pb</c><c>   5</c></rc>
    <rc><c>Pb</c><c>   5</c></rc>
    <rc><c>Pb</c><c>   5</c></rc>
    <rc><c>Pb</c><c>   5</c></rc>
    <rc><c>Pb</c><c>   5</c></rc>
    <rc><c>Pb</c><c>   5</c></rc>
    <rc><c>Pb</c><c>   5</c></rc>
    <rc><c>Pb</c><c>   5</c></rc>
    <rc><c>Pb</c><c>   5</c></rc>
    <rc><c>Pb</c><c>   5</c></rc>
    <rc><c>Pb</c><c>   5</c></rc>
    <rc><c>Pb</c><c>   5</c></rc>
    <rc><c>Pb</c><c>   5</c></rc>
   </set>
  </array>
  <array name="atomtypes" >
   <dimension dim="1">type</dimension>
   <field type="int">atomspertype</field>
   <field type="string">element</field>
   <field>mass</field>
   <field>valence</field>
   <field type="string">pseudopotential</field>
   <set>
    <rc><c> 143</c><c>H </c><c>      1.00000000</c><c>      1.00000000</c><c>  PAW_PBE H 15Jun2001                   </c></rc>
    <rc><c>  39</c><c>C </c><c>     12.01100000</c><c>      4.00000000</c><c>  PAW_PBE C 08Apr2002                   </c></rc>
    <rc><c>  47</c><c>N </c><c>     14.00100000</c><c>      5.00000000</c><c>  PAW_PBE N 08Apr2002                   </c></rc>
    <rc><c>  72</c><c>I </c><c>    126.90400000</c><c>      7.00000000</c><c>  PAW_PBE I 08Apr2002                   </c></rc>
    <rc><c>  24</c><c>Pb</c><c>    207.20000000</c><c>      4.00000000</c><c>  PAW_PBE Pb 08Apr2002                  </c></rc>
   </set>
  </array>
 </atominfo>
 <structure name="initialpos" >
  <crystal>
   <varray name="basis" >
    <v>      18.06080055       0.00000000       0.00000000 </v>
    <v>      -0.00491865      18.06279945       0.00000000 </v>
    <v>       0.00000000       0.00000000      62.48749924 </v>
   </varray>
   <i name="volume">  20385.21054034 </i>
   <varray name="rec_basis" >
    <v>       0.05536853       0.00001508      -0.00000000 </v>
    <v>       0.00000000       0.05536240       0.00000000 </v>
    <v>       0.00000000      -0.00000000       0.01600320 </v>
   </varray>
  </crystal>
  <varray name="positions" >
   <v>       0.41201521       0.27429951       0.56823951 </v>
   <v>       0.41071436       0.70647751       0.57350716 </v>
   <v>       0.92870975       0.28628240       0.58136463 </v>
   <v>       0.93243677       0.81263695       0.57404408 </v>
   <v>       0.32354414       0.08937653       0.56709194 </v>
   <v>       0.31651119       0.57749119       0.57007136 </v>
   <v>       0.80118215       0.09448206       0.57089812 </v>
   <v>       0.11036706       0.23941876       0.56257639 </v>
   <v>       0.08250557       0.67986884       0.56900187 </v>
   <v>       0.59398724       0.19035817       0.56549250 </v>
   <v>       0.60246367       0.74230788       0.55937470 </v>
   <v>       0.37842872       0.01982269       0.55589732 </v>
   <v>       0.25320854       0.62301141       0.55399337 </v>
   <v>       0.87402433       0.04254329       0.55993853 </v>
   <v>       0.06238286       0.28545841       0.58281243 </v>
   <v>       0.99701622       0.69234087       0.58150571 </v>
   <v>       0.50241611       0.17170675       0.57325895 </v>
   <v>       0.54669770       0.68632737       0.57569864 </v>
   <v>       0.30416664       0.44090878       0.57378756 </v>
   <v>       0.18972022       0.06434719       0.57011824 </v>
   <v>       0.67839509       0.03119703       0.57265049 </v>
   <v>       0.44903427       0.35768361       0.55891294 </v>
   <v>       0.37849414       0.77492561       0.55654882 </v>
   <v>       0.88466965       0.23590655       0.56107688 </v>
   <v>       0.97841325       0.87319761       0.55707169 </v>
   <v>       0.23235946       0.39957827       0.55980429 </v>
   <v>       0.15526009       0.98617983       0.55769767 </v>
   <v>       0.67564107       0.94163313       0.56237261 </v>
   <v>       0.56546234       0.30959277       0.55440160 </v>
   <v>       0.50053934       0.80638544       0.54559698 </v>
   <v>       0.99933949       0.19877398       0.54631996 </v>
   <v>       0.07663413       0.79232631       0.55132341 </v>
   <v>       0.18922002       0.51212283       0.54633620 </v>
   <v>       0.27595387       0.94599730       0.54806854 </v>
   <v>       0.79852857       0.94173710       0.55301503 </v>
   <v>       0.45430715       0.29144752       0.67483407 </v>
   <v>       0.43816209       0.81204915       0.67168964 </v>
   <v>       0.96198987       0.28134080       0.67865613 </v>
   <v>       0.91903360       0.74580562       0.66983991 </v>
   <v>       0.29953486       0.04173092       0.67498175 </v>
   <v>       0.30708671       0.55338011       0.67419002 </v>
   <v>       0.79251901       0.05343727       0.67550462 </v>
   <v>       0.82418631       0.51241480       0.67121354 </v>
   <v>       0.08906983       0.17057660       0.64652854 </v>
   <v>       0.10289298       0.69456492       0.65163894 </v>
   <v>       0.57601651       0.16616088       0.64500999 </v>
   <v>       0.57365531       0.67767995       0.65178906 </v>
   <v>       0.18416221       0.41363056       0.65059137 </v>
   <v>       0.16358538       0.93075839       0.64542737 </v>
   <v>       0.64518697       0.45282620       0.65060981 </v>
   <v>       0.67643898       0.91604517       0.64819013 </v>
   <v>       0.06659555       0.18628427       0.67324562 </v>
   <v>       0.02902843       0.65972160       0.66656734 </v>
   <v>       0.54511966       0.18199556       0.67084554 </v>
   <v>       0.54080180       0.71205828       0.67582475 </v>
   <v>       0.21595797       0.44160310       0.67554851 </v>
   <v>       0.18553716       0.95268000       0.67179324 </v>
   <v>       0.70375106       0.43692142       0.67202766 </v>
   <v>       0.69553978       0.94672413       0.67407843 </v>
   <v>       0.43907901       0.34110658       0.65160219 </v>
   <v>       0.41382003       0.83106831       0.64543952 </v>
   <v>       0.92570718       0.31961330       0.65532529 </v>
   <v>       0.92886658       0.83179338       0.65728515 </v>
   <v>       0.34164217       0.06227036       0.65087542 </v>
   <v>       0.32202822       0.58762877       0.64877539 </v>
   <v>       0.82650430       0.08011653       0.65074466 </v>
   <v>       0.83429096       0.57198724       0.64936212 </v>
   <v>       0.00209246       0.25287357       0.63291675 </v>
   <v>       0.04418337       0.80514168       0.64371695 </v>
   <v>       0.51331324       0.26653738       0.63067131 </v>
   <v>       0.49838580       0.74919523       0.63089578 </v>
   <v>       0.25851280       0.99486053       0.63036223 </v>
   <v>       0.24738851       0.50320466       0.63191625 </v>
   <v>       0.75763340       0.99531810       0.63180606 </v>
   <v>       0.72064462       0.53934142       0.63450887 </v>
   <v>       0.44874502       0.30128397       0.76888902 </v>
   <v>       0.44874501       0.80128391       0.76888902 </v>
   <v>       0.94874497       0.30128397       0.76888902 </v>
   <v>       0.94874501       0.80128391       0.76888902 </v>
   <v>       0.30127600       0.05129450       0.76887296 </v>
   <v>       0.30127601       0.55129450       0.76887296 </v>
   <v>       0.80127594       0.05129450       0.76887296 </v>
   <v>       0.80127598       0.55129450       0.76887296 </v>
   <v>       0.07877100       0.17118050       0.74344197 </v>
   <v>       0.07877101       0.67118045       0.74344197 </v>
   <v>       0.57877100       0.17118050       0.74344197 </v>
   <v>       0.57877099       0.67118045       0.74344197 </v>
   <v>       0.17119950       0.42117448       0.74342103 </v>
   <v>       0.17119950       0.92117451       0.74342103 </v>
   <v>       0.67119951       0.42117448       0.74342103 </v>
   <v>       0.67119950       0.92117451       0.74342103 </v>
   <v>       0.05125600       0.19871499       0.76888902 </v>
   <v>       0.05125600       0.69871493       0.76888902 </v>
   <v>       0.55125603       0.19871499       0.76888902 </v>
   <v>       0.55125602       0.69871493       0.76888902 </v>
   <v>       0.19872349       0.44870397       0.76887205 </v>
   <v>       0.19872349       0.94870397       0.76887205 </v>
   <v>       0.69872352       0.44870397       0.76887205 </v>
   <v>       0.69872351       0.94870397       0.76887205 </v>
   <v>       0.42123152       0.32881747       0.74344197 </v>
   <v>       0.42123151       0.82881744       0.74344197 </v>
   <v>       0.92123147       0.32881747       0.74344197 </v>
   <v>       0.92123151       0.82881744       0.74344197 </v>
   <v>       0.32880050       0.07882500       0.74342103 </v>
   <v>       0.32880049       0.57882496       0.74342103 </v>
   <v>       0.82880048       0.07882500       0.74342103 </v>
   <v>       0.82880052       0.57882496       0.74342103 </v>
   <v>       0.00000350       0.25000148       0.72582199 </v>
   <v>       0.00000350       0.75000145       0.72582199 </v>
   <v>       0.50000351       0.25000148       0.72582199 </v>
   <v>       0.50000350       0.75000145       0.72582199 </v>
   <v>       0.25000050       0.00000000       0.72580398 </v>
   <v>       0.25000052       0.50000000       0.72580398 </v>
   <v>       0.75000050       0.00000000       0.72580398 </v>
   <v>       0.75000049       0.50000000       0.72580398 </v>
   <v>       0.79960130       0.50971272       0.51498081 </v>
   <v>       0.87935769       0.50048500       0.53157739 </v>
   <v>       0.76421283       0.62427360       0.53297220 </v>
   <v>       0.76416755       0.62864187       0.56094960 </v>
   <v>       0.68558894       0.45078262       0.55099326 </v>
   <v>       0.67127019       0.54263351       0.55911403 </v>
   <v>       0.79923700       0.42904997       0.56782701 </v>
   <v>       0.86767867       0.49762695       0.56876385 </v>
   <v>       0.85892939       0.37643917       0.53941697 </v>
   <v>       0.76350475       0.37906203       0.53398962 </v>
   <v>       0.78143352       0.38126042       0.49618075 </v>
   <v>       0.87415953       0.40985991       0.49795580 </v>
   <v>       0.89847290       0.61878960       0.53065222 </v>
   <v>       0.90893945       0.60612924       0.55848103 </v>
   <v>       0.87167289       0.69036418       0.54832684 </v>
   <v>       0.60091261       0.51620124       0.52741897 </v>
   <v>       0.67883105       0.48806149       0.51231383 </v>
   <v>       0.66846589       0.58216468       0.52025683 </v>
   <v>       0.71012979       0.50579043       0.58898078 </v>
   <v>       0.77891411       0.57689209       0.59107458 </v>
   <v>       0.79485804       0.48852785       0.60238910 </v>
   <v>       0.82354520       0.25601210       0.51359662 </v>
   <v>       0.84419500       0.27530274       0.48682360 </v>
   <v>       0.92432507       0.16071894       0.49825353 </v>
   <v>       0.97231498       0.38539203       0.51747960 </v>
   <v>       0.05673238       0.12888554       0.50336862 </v>
   <v>       0.10155712       0.35463742       0.52252480 </v>
   <v>       0.14722650       0.22597129       0.51488954 </v>
   <v>       0.99749880       0.23461074       0.56027222 </v>
   <v>       0.02948564       0.77452678       0.56085962 </v>
   <v>       0.52157786       0.27359318       0.56039944 </v>
   <v>       0.49104044       0.76077166       0.55673312 </v>
   <v>       0.23919532       0.51111761       0.55609871 </v>
   <v>       0.26746034       0.99973647       0.55583072 </v>
   <v>       0.77483718       0.99128618       0.56037350 </v>
   <v>       0.00670324       0.24547181       0.65024120 </v>
   <v>       0.01564537       0.76456327       0.65352836 </v>
   <v>       0.50749848       0.25422231       0.64746031 </v>
   <v>       0.49436684       0.75470266       0.64805253 </v>
   <v>       0.25358679       0.50072111       0.64914656 </v>
   <v>       0.25249871       0.99638960       0.64770609 </v>
   <v>       0.73924903       0.51288634       0.64936462 </v>
   <v>       0.75223384       0.99790189       0.64908924 </v>
   <v>       0.49998898       0.24999498       0.74327702 </v>
   <v>       0.49998903       0.74999496       0.74327702 </v>
   <v>       0.99998898       0.24999498       0.74327702 </v>
   <v>       0.99998903       0.74999496       0.74327702 </v>
   <v>       0.25000050       0.00000100       0.74325596 </v>
   <v>       0.25000052       0.50000100       0.74325596 </v>
   <v>       0.75000050       0.00000100       0.74325596 </v>
   <v>       0.75000049       0.50000100       0.74325596 </v>
   <v>       0.93751603       0.27627945       0.50726039 </v>
   <v>       0.96383739       0.20322803       0.50369184 </v>
   <v>       0.98880934       0.32881931       0.51404288 </v>
   <v>       0.03810846       0.18548613       0.50636184 </v>
   <v>       0.06393769       0.31171405       0.51675216 </v>
   <v>       0.08896244       0.23994719       0.51289098 </v>
   <v>       0.82081724       0.48435567       0.52970537 </v>
   <v>       0.79296858       0.60431332       0.54720149 </v>
   <v>       0.69628316       0.50827588       0.54660573 </v>
   <v>       0.80754619       0.48866592       0.56891189 </v>
   <v>       0.81732820       0.40020902       0.52865389 </v>
   <v>       0.83202345       0.37315985       0.50561761 </v>
   <v>       0.87280373       0.62985431       0.54618517 </v>
   <v>       0.66046961       0.52486228       0.52520765 </v>
   <v>       0.77020606       0.51773480       0.58872841 </v>
   <v>       0.85682826       0.29260550       0.50328554 </v>
   <v>       0.06012888       0.25323428       0.56940210 </v>
   <v>       0.03471315       0.70998423       0.57023796 </v>
   <v>       0.53955831       0.20573216       0.56561710 </v>
   <v>       0.54980318       0.72430782       0.56348654 </v>
   <v>       0.45523054       0.30178198       0.56149274 </v>
   <v>       0.42298005       0.74593941       0.56223495 </v>
   <v>       0.93271301       0.25570197       0.56744467 </v>
   <v>       0.97271002       0.81958502       0.56257639 </v>
   <v>       0.26063903       0.44667284       0.56356011 </v>
   <v>       0.19947257       0.01874210       0.56116381 </v>
   <v>       0.70364763       0.98964564       0.56460023 </v>
   <v>       0.32652482       0.04029484       0.55935809 </v>
   <v>       0.27313834       0.57395015       0.55972822 </v>
   <v>       0.81925076       0.04747582       0.56384721 </v>
   <v>       0.05656701       0.19796764       0.65739479 </v>
   <v>       0.05076940       0.70166669       0.65745956 </v>
   <v>       0.54417110       0.19694614       0.65512963 </v>
   <v>       0.53854456       0.71284671       0.65937401 </v>
   <v>       0.21577847       0.44881184       0.65925863 </v>
   <v>       0.19691230       0.95834938       0.65579895 </v>
   <v>       0.69475469       0.46437723       0.65799654 </v>
   <v>       0.70545675       0.95076963       0.65791949 </v>
   <v>       0.46493958       0.29770098       0.65874131 </v>
   <v>       0.44642845       0.80180265       0.65574236 </v>
   <v>       0.96186068       0.28461029       0.66244390 </v>
   <v>       0.94991759       0.78105912       0.66075698 </v>
   <v>       0.30039047       0.03593652       0.65868894 </v>
   <v>       0.29635655       0.54947293       0.65807394 </v>
   <v>       0.79214618       0.04633497       0.65923427 </v>
   <v>       0.80409209       0.53284022       0.65713803 </v>
   <v>       0.04586250       0.20411950       0.75272599 </v>
   <v>       0.04586250       0.70411946       0.75272599 </v>
   <v>       0.54586251       0.20411950       0.75272599 </v>
   <v>       0.54586250       0.70411946       0.75272599 </v>
   <v>       0.20411900       0.45410100       0.75270499 </v>
   <v>       0.20411899       0.95410095       0.75270499 </v>
   <v>       0.70411898       0.45410100       0.75270499 </v>
   <v>       0.70411896       0.95410095       0.75270499 </v>
   <v>       0.45414002       0.29588849       0.75272697 </v>
   <v>       0.45414001       0.79588852       0.75272697 </v>
   <v>       0.95414002       0.29588849       0.75272697 </v>
[...]
   <v>       0.59398724       0.19035817       0.56549250 </v>
   <v>       0.60246367       0.74230788       0.55937470 </v>
   <v>       0.37842872       0.01982269       0.55589732 </v>
   <v>       0.25320854       0.62301141       0.55399337 </v>
   <v>       0.87402433       0.04254329       0.55993853 </v>
   <v>       0.06238286       0.28545841       0.58281243 </v>
   <v>       0.99701622       0.69234087       0.58150571 </v>
   <v>       0.50241611       0.17170675       0.57325895 </v>
   <v>       0.54669770       0.68632737       0.57569864 </v>
   <v>       0.30416664       0.44090878       0.57378756 </v>
   <v>       0.18972022       0.06434719       0.57011824 </v>
   <v>       0.67839509       0.03119703       0.57265049 </v>
   <v>       0.44903427       0.35768361       0.55891294 </v>
   <v>       0.37849414       0.77492561       0.55654882 </v>
   <v>       0.88466965       0.23590655       0.56107688 </v>
   <v>       0.97841325       0.87319761       0.55707169 </v>
   <v>       0.23235946       0.39957827       0.55980429 </v>
   <v>       0.15526009       0.98617983       0.55769767 </v>
   <v>       0.67564107       0.94163313       0.56237261 </v>
   <v>       0.56546234       0.30959277       0.55440160 </v>
   <v>       0.50053934       0.80638544       0.54559698 </v>
   <v>       0.99933949       0.19877398       0.54631996 </v>
   <v>       0.07663413       0.79232631       0.55132341 </v>
   <v>       0.18922002       0.51212283       0.54633620 </v>
   <v>       0.27595387       0.94599730       0.54806854 </v>
   <v>       0.79852857       0.94173710       0.55301503 </v>
   <v>       0.45430715       0.29144752       0.67483407 </v>
   <v>       0.43816209       0.81204915       0.67168964 </v>
   <v>       0.96198987       0.28134080       0.67865613 </v>
   <v>       0.91903360       0.74580562       0.66983991 </v>
   <v>       0.29953486       0.04173092       0.67498175 </v>
   <v>       0.30708671       0.55338011       0.67419002 </v>
   <v>       0.79251901       0.05343727       0.67550462 </v>
   <v>       0.82418631       0.51241480       0.67121354 </v>
   <v>       0.08906983       0.17057660       0.64652854 </v>
   <v>       0.10289298       0.69456492       0.65163894 </v>
   <v>       0.57601651       0.16616088       0.64500999 </v>
   <v>       0.57365531       0.67767995       0.65178906 </v>
   <v>       0.18416221       0.41363056       0.65059137 </v>
   <v>       0.16358538       0.93075839       0.64542737 </v>
   <v>       0.64518697       0.45282620       0.65060981 </v>
   <v>       0.67643898       0.91604517       0.64819013 </v>
   <v>       0.06659555       0.18628427       0.67324562 </v>
   <v>       0.02902843       0.65972160       0.66656734 </v>
   <v>       0.54511966       0.18199556       0.67084554 </v>
   <v>       0.54080180       0.71205828       0.67582475 </v>
   <v>       0.21595797       0.44160310       0.67554851 </v>
   <v>       0.18553716       0.95268000       0.67179324 </v>
   <v>       0.70375106       0.43692142       0.67202766 </v>
   <v>       0.69553978       0.94672413       0.67407843 </v>
   <v>       0.43907901       0.34110658       0.65160219 </v>
   <v>       0.41382003       0.83106831       0.64543952 </v>
   <v>       0.92570718       0.31961330       0.65532529 </v>
   <v>       0.92886658       0.83179338       0.65728515 </v>
   <v>       0.34164217       0.06227036       0.65087542 </v>
   <v>       0.32202822       0.58762877       0.64877539 </v>
   <v>       0.82650430       0.08011653       0.65074466 </v>
   <v>       0.83429096       0.57198724       0.64936212 </v>
   <v>       0.00209246       0.25287357       0.63291675 </v>
   <v>       0.04418337       0.80514168       0.64371695 </v>
   <v>       0.51331324       0.26653738       0.63067131 </v>
   <v>       0.49838580       0.74919523       0.63089578 </v>
   <v>       0.25851280       0.99486053       0.63036223 </v>
   <v>       0.24738851       0.50320466       0.63191625 </v>
   <v>       0.75763340       0.99531810       0.63180606 </v>
   <v>       0.72064462       0.53934142       0.63450887 </v>
   <v>       0.44874502       0.30128397       0.76888902 </v>
   <v>       0.44874501       0.80128391       0.76888902 </v>
   <v>       0.94874497       0.30128397       0.76888902 </v>
   <v>       0.94874501       0.80128391       0.76888902 </v>
   <v>       0.30127600       0.05129450       0.76887296 </v>
   <v>       0.30127601       0.55129450       0.76887296 </v>
   <v>       0.80127594       0.05129450       0.76887296 </v>
   <v>       0.80127598       0.55129450       0.76887296 </v>
   <v>       0.07877100       0.17118050       0.74344197 </v>
   <v>       0.07877101       0.67118045       0.74344197 </v>
   <v>       0.57877100       0.17118050       0.74344197 </v>
   <v>       0.57877099       0.67118045       0.74344197 </v>
   <v>       0.17119950       0.42117448       0.74342103 </v>
   <v>       0.17119950       0.92117451       0.74342103 </v>
   <v>       0.67119951       0.42117448       0.74342103 </v>
   <v>       0.67119950       0.92117451       0.74342103 </v>
   <v>       0.05125600       0.19871499       0.76888902 </v>
   <v>       0.05125600       0.69871493       0.76888902 </v>
   <v>       0.55125603       0.19871499       0.76888902 </v>
   <v>       0.55125602       0.69871493       0.76888902 </v>
   <v>       0.19872349       0.44870397       0.76887205 </v>
   <v>       0.19872349       0.94870397       0.76887205 </v>
   <v>       0.69872352       0.44870397       0.76887205 </v>
   <v>       0.69872351       0.94870397       0.76887205 </v>
   <v>       0.42123152       0.32881747       0.74344197 </v>
   <v>       0.42123151       0.82881744       0.74344197 </v>
   <v>       0.92123147       0.32881747       0.74344197 </v>
   <v>       0.92123151       0.82881744       0.74344197 </v>
   <v>       0.32880050       0.07882500       0.74342103 </v>
   <v>       0.32880049       0.57882496       0.74342103 </v>
   <v>       0.82880048       0.07882500       0.74342103 </v>
   <v>       0.82880052       0.57882496       0.74342103 </v>
   <v>       0.00000350       0.25000148       0.72582199 </v>
   <v>       0.00000350       0.75000145       0.72582199 </v>
   <v>       0.50000351       0.25000148       0.72582199 </v>
   <v>       0.50000350       0.75000145       0.72582199 </v>
   <v>       0.25000050       0.00000000       0.72580398 </v>
   <v>       0.25000052       0.50000000       0.72580398 </v>
   <v>       0.75000050       0.00000000       0.72580398 </v>
   <v>       0.75000049       0.50000000       0.72580398 </v>
   <v>       0.79960130       0.50971272       0.51498081 </v>
   <v>       0.87935769       0.50048500       0.53157739 </v>
   <v>       0.76421283       0.62427360       0.53297220 </v>
   <v>       0.76416755       0.62864187       0.56094960 </v>
   <v>       0.68558894       0.45078262       0.55099326 </v>
   <v>       0.67127019       0.54263351       0.55911403 </v>
   <v>       0.79923700       0.42904997       0.56782701 </v>
   <v>       0.86767867       0.49762695       0.56876385 </v>
   <v>       0.85892939       0.37643917       0.53941697 </v>
   <v>       0.76350475       0.37906203       0.53398962 </v>
   <v>       0.78143352       0.38126042       0.49618075 </v>
   <v>       0.87415953       0.40985991       0.49795580 </v>
   <v>       0.89847290       0.61878960       0.53065222 </v>
   <v>       0.90893945       0.60612924       0.55848103 </v>
   <v>       0.87167289       0.69036418       0.54832684 </v>
   <v>       0.60091261       0.51620124       0.52741897 </v>
   <v>       0.67883105       0.48806149       0.51231383 </v>
   <v>       0.66846589       0.58216468       0.52025683 </v>
   <v>       0.71012979       0.50579043       0.58898078 </v>
   <v>       0.77891411       0.57689209       0.59107458 </v>
   <v>       0.79485804       0.48852785       0.60238910 </v>
   <v>       0.82354520       0.25601210       0.51359662 </v>
   <v>       0.84419500       0.27530274       0.48682360 </v>
   <v>       0.92432507       0.16071894       0.49825353 </v>
   <v>       0.97231498       0.38539203       0.51747960 </v>
   <v>       0.05673238       0.12888554       0.50336862 </v>
   <v>       0.10155712       0.35463742       0.52252480 </v>
   <v>       0.14722650       0.22597129       0.51488954 </v>
   <v>       0.99749880       0.23461074       0.56027222 </v>
   <v>       0.02948564       0.77452678       0.56085962 </v>
   <v>       0.52157786       0.27359318       0.56039944 </v>
   <v>       0.49104044       0.76077166       0.55673312 </v>
   <v>       0.23919532       0.51111761       0.55609871 </v>
   <v>       0.26746034       0.99973647       0.55583072 </v>
   <v>       0.77483718       0.99128618       0.56037350 </v>
   <v>       0.00670324       0.24547181       0.65024120 </v>
   <v>       0.01564537       0.76456327       0.65352836 </v>
   <v>       0.50749848       0.25422231       0.64746031 </v>
   <v>       0.49436684       0.75470266       0.64805253 </v>
   <v>       0.25358679       0.50072111       0.64914656 </v>
   <v>       0.25249871       0.99638960       0.64770609 </v>
   <v>       0.73924903       0.51288634       0.64936462 </v>
   <v>       0.75223384       0.99790189       0.64908924 </v>
   <v>       0.49998898       0.24999498       0.74327702 </v>
   <v>       0.49998903       0.74999496       0.74327702 </v>
   <v>       0.99998898       0.24999498       0.74327702 </v>
   <v>       0.99998903       0.74999496       0.74327702 </v>
   <v>       0.25000050       0.00000100       0.74325596 </v>
   <v>       0.25000052       0.50000100       0.74325596 </v>
   <v>       0.75000050       0.00000100       0.74325596 </v>
   <v>       0.75000049       0.50000100       0.74325596 </v>
   <v>       0.93751603       0.27627945       0.50726039 </v>
   <v>       0.96383739       0.20322803       0.50369184 </v>
   <v>       0.98880934       0.32881931       0.51404288 </v>
   <v>       0.03810846       0.18548613       0.50636184 </v>
   <v>       0.06393769       0.31171405       0.51675216 </v>
   <v>       0.08896244       0.23994719       0.51289098 </v>
   <v>       0.82081724       0.48435567       0.52970537 </v>
   <v>       0.79296858       0.60431332       0.54720149 </v>
   <v>       0.69628316       0.50827588       0.54660573 </v>
   <v>       0.80754619       0.48866592       0.56891189 </v>
   <v>       0.81732820       0.40020902       0.52865389 </v>
   <v>       0.83202345       0.37315985       0.50561761 </v>
   <v>       0.87280373       0.62985431       0.54618517 </v>
   <v>       0.66046961       0.52486228       0.52520765 </v>
   <v>       0.77020606       0.51773480       0.58872841 </v>
   <v>       0.85682826       0.29260550       0.50328554 </v>
   <v>       0.06012888       0.25323428       0.56940210 </v>
   <v>       0.03471315       0.70998423       0.57023796 </v>
   <v>       0.53955831       0.20573216       0.56561710 </v>
   <v>       0.54980318       0.72430782       0.56348654 </v>
   <v>       0.45523054       0.30178198       0.56149274 </v>
   <v>       0.42298005       0.74593941       0.56223495 </v>
   <v>       0.93271301       0.25570197       0.56744467 </v>
   <v>       0.97271002       0.81958502       0.56257639 </v>
   <v>       0.26063903       0.44667284       0.56356011 </v>
   <v>       0.19947257       0.01874210       0.56116381 </v>
   <v>       0.70364763       0.98964564       0.56460023 </v>
   <v>       0.32652482       0.04029484       0.55935809 </v>
   <v>       0.27313834       0.57395015       0.55972822 </v>
   <v>       0.81925076       0.04747582       0.56384721 </v>
   <v>       0.05656701       0.19796764       0.65739479 </v>
   <v>       0.05076940       0.70166669       0.65745956 </v>
   <v>       0.54417110       0.19694614       0.65512963 </v>
   <v>       0.53854456       0.71284671       0.65937401 </v>
   <v>       0.21577847       0.44881184       0.65925863 </v>
   <v>       0.19691230       0.95834938       0.65579895 </v>
   <v>       0.69475469       0.46437723       0.65799654 </v>
   <v>       0.70545675       0.95076963       0.65791949 </v>
   <v>       0.46493958       0.29770098       0.65874131 </v>
   <v>       0.44642845       0.80180265       0.65574236 </v>
   <v>       0.96186068       0.28461029       0.66244390 </v>
   <v>       0.94991759       0.78105912       0.66075698 </v>
   <v>       0.30039047       0.03593652       0.65868894 </v>
   <v>       0.29635655       0.54947293       0.65807394 </v>
   <v>       0.79214618       0.04633497       0.65923427 </v>
   <v>       0.80409209       0.53284022       0.65713803 </v>
   <v>       0.04586250       0.20411950       0.75272599 </v>
   <v>       0.04586250       0.70411946       0.75272599 </v>
   <v>       0.54586251       0.20411950       0.75272599 </v>
   <v>       0.54586250       0.70411946       0.75272599 </v>
   <v>       0.20411900       0.45410100       0.75270499 </v>
   <v>       0.20411899       0.95410095       0.75270499 </v>
   <v>       0.70411898       0.45410100       0.75270499 </v>
   <v>       0.70411896       0.95410095       0.75270499 </v>
   <v>       0.45414002       0.29588849       0.75272697 </v>
   <v>       0.45414001       0.79588852       0.75272697 </v>
   <v>       0.95414002       0.29588849       0.75272697 </v>
   <v>       0.95414006       0.79588852       0.75272697 </v>
   <v>       0.29588249       0.04590050       0.75270499 </v>
   <v>       0.29588248       0.54590053       0.75270499 </v>
   <v>       0.79588244       0.04590050       0.75270499 </v>
   <v>       0.79588248       0.54590053       0.75270499 </v>
   <v>       0.77930772       0.52091196       0.54813130 </v>
   <v>       0.50901796       0.97620161       0.55278940 </v>
   <v>       0.46454983       0.49856818       0.55432425 </v>
   <v>       0.00528143       0.01239226       0.55166570 </v>
   <v>       0.03470446       0.49451881       0.55466654 </v>
   <v>       0.25378454       0.24305620       0.55477509 </v>
   <v>       0.23333539       0.77053511       0.55125503 </v>
   <v>       0.73766130       0.22234308       0.55535626 </v>
   <v>       0.72279726       0.79663650       0.55401456 </v>
   <v>       0.99467024       0.98541591       0.65418016 </v>
   <v>       0.00409078       0.50171402       0.65538768 </v>
   <v>       0.49703317       0.00229619       0.65454986 </v>
   <v>       0.49819957       0.50126282       0.65448845 </v>
   <v>       0.26317796       0.24001239       0.65545532 </v>
   <v>       0.24598330       0.75446808       0.65388976 </v>
   <v>       0.74313312       0.26054299       0.65558413 </v>
   <v>       0.75140886       0.74076930       0.65391393 </v>
   <v>       0.13932749       0.11352010       0.60877875 </v>
   <v>       0.14562053       0.60941268       0.60787024 </v>
   <v>       0.64162049       0.10782483       0.60902580 </v>
   <v>       0.61562670       0.63160429       0.60973792 </v>
   <v>       0.36744980       0.38392676       0.61047086 </v>
   <v>       0.36390378       0.88551864       0.60608009 </v>
   <v>       0.88853254       0.36249464       0.61341883 </v>
   <v>       0.86307343       0.88897689       0.60579585 </v>
   <v>       0.12630383       0.36995472       0.61230850 </v>
   <v>       0.11812439       0.87378545       0.60685154 </v>
   <v>       0.62080945       0.37246372       0.60247512 </v>
   <v>       0.61820524       0.86732418       0.61271996 </v>
   <v>       0.39931710       0.14337598       0.60435153 </v>
   <v>       0.37741720       0.63208845       0.60754565 </v>
   <v>       0.88272205       0.13297732       0.61263431 </v>
   <v>       0.90414353       0.65116663       0.61151257 </v>
   <v>       0.00000000       0.00000000       0.75492797 </v>
   <v>       0.00000000       0.50000000       0.75492797 </v>
   <v>       0.50000000       0.00000000       0.75492797 </v>
   <v>       0.49999999       0.50000000       0.75492797 </v>
   <v>       0.25000050       0.25000000       0.75493902 </v>
   <v>       0.25000051       0.74999997       0.75493902 </v>
   <v>       0.75000047       0.25000000       0.75493902 </v>
   <v>       0.75000046       0.74999997       0.75493902 </v>
   <v>       0.13579050       0.11421000       0.70478299 </v>
   <v>       0.13579050       0.61420998       0.70478299 </v>
   <v>       0.63579045       0.11421000       0.70478299 </v>
   <v>       0.63579049       0.61420998       0.70478299 </v>
   <v>       0.36420952       0.38578999       0.70478299 </v>
   <v>       0.36420950       0.88578996       0.70478299 </v>
   <v>       0.86420954       0.38578999       0.70478299 </v>
   <v>       0.86420953       0.88578996       0.70478299 </v>
   <v>       0.11421799       0.36421899       0.70478098 </v>
   <v>       0.11421799       0.86421899       0.70478098 </v>
   <v>       0.61421800       0.36421899       0.70478098 </v>
   <v>       0.61421799       0.86421899       0.70478098 </v>
   <v>       0.38578201       0.13578149       0.70478202 </v>
   <v>       0.38578200       0.63578149       0.70478202 </v>
   <v>       0.88578199       0.13578149       0.70478202 </v>
   <v>       0.88578203       0.63578149       0.70478202 </v>
   <v>       0.13466700       0.11533200       0.80125603 </v>
   <v>       0.13466699       0.61533199       0.80125603 </v>
   <v>       0.63466699       0.11533200       0.80125603 </v>
   <v>       0.63466698       0.61533199       0.80125603 </v>
   <v>       0.36533300       0.38466799       0.80125603 </v>
   <v>       0.36533299       0.88466796       0.80125603 </v>
   <v>       0.86533295       0.38466799       0.80125603 </v>
   <v>       0.86533294       0.88466796       0.80125603 </v>
   <v>       0.11532850       0.36533700       0.80126500 </v>
   <v>       0.11532850       0.86533698       0.80126500 </v>
   <v>       0.61532850       0.36533700       0.80126500 </v>
   <v>       0.61532849       0.86533698       0.80126500 </v>
   <v>       0.38467151       0.13466300       0.80126500 </v>
   <v>       0.38467150       0.63466297       0.80126500 </v>
   <v>       0.88467149       0.13466300       0.80126500 </v>
   <v>       0.88467153       0.63466297       0.80126500 </v>
   <v>       0.99988333       0.00661881       0.60422650 </v>
   <v>       0.00765248       0.50451996       0.60453510 </v>
   <v>       0.50306265       0.99491512       0.60330847 </v>
   <v>       0.49857063       0.50071419       0.60365266 </v>
   <v>       0.25568346       0.25079891       0.60590201 </v>
   <v>       0.24488803       0.75654921       0.60325909 </v>
   <v>       0.74879695       0.25128428       0.60612087 </v>
   <v>       0.75033764       0.76000868       0.60345364 </v>
   <v>       0.00000050       0.00000050       0.70482896 </v>
   <v>       0.00000050       0.50000048       0.70482896 </v>
   <v>       0.50000048       0.00000050       0.70482896 </v>
   <v>       0.50000046       0.50000048       0.70482896 </v>
   <v>       0.24999999       0.24999947       0.70482499 </v>
   <v>       0.25000001       0.74999950       0.70482499 </v>
   <v>       0.74999999       0.24999947       0.70482499 </v>
   <v>       0.74999998       0.74999950       0.70482499 </v>
   <v>       0.00000000       0.00000000       0.80731797 </v>
   <v>       0.00000000       0.50000000       0.80731797 </v>
   <v>       0.50000000       0.00000000       0.80731797 </v>
   <v>       0.49999999       0.50000000       0.80731797 </v>
   <v>       0.24999999       0.25000000       0.80731797 </v>
   <v>       0.25000001       0.74999997       0.80731797 </v>
   <v>       0.74999999       0.25000000       0.80731797 </v>
   <v>       0.74999998       0.74999997       0.80731797 </v>
  </varray>
 </structure>
</modeling>
