<?xml version="1.0" encoding="ISO-8859-1"?>
<modeling>
 <generator>
  <i name="program" type="string">vasp </i>
  <i name="version" type="string">6.2.1  </i>
  <i name="subversion" type="string">16May21 (build Nov 15 2021 14:57:28) complex                          parallel </i>
  <i name="platform" type="string">LinuxPGI </i>
  <i name="date" type="string">2023 07 24 </i>
  <i name="time" type="string">20:54:59 </i>
 </generator>
 <incar>
  <i type="string" name="SYSTEM">PSC</i>
  <i type="int" name="ISTART">     1</i>
  <i type="string" name="PREC">Normal</i>
  <i name="BMIX">      0.01000000</i>
  <i name="AMIN">      0.01000000</i>
  <i type="int" name="ICHARG">     1</i>
  <i type="int" name="NELM">   600</i>
  <i type="int" name="ISYM">     0</i>
  <i name="ENCUT">    500.00000000</i>
  <i type="string" name="LREAL">Auto</i>
  <i type="int" name="ISMEAR">     0</i>
  <i name="SIGMA">      0.05000000</i>
  <i type="logical" name="LWAVE"> F  </i>
  <i type="logical" name="LVTOT"> T  </i>
  <i type="logical" name="GGA_COMPAT"> F  </i>
  <i type="logical" name="LDIPOL"> T  </i>
  <i type="int" name="IDIPOL">     3</i>
  <i type="int" name="IVDW">    12</i>
 </incar>
 <primitive_cell>
  <structure name="primitive_cell" >
   <crystal>
    <varray name="basis" >
     <v>      18.06080055       0.00000000       0.00000000 </v>
     <v>      -0.00491865      18.06279945       0.00000000 </v>
     <v>       0.00000000       0.00000000      62.48749924 </v>
    </varray>
    <i name="volume">  20385.21054034 </i>
    <varray name="rec_basis" >
     <v>       0.05536853       0.00001508      -0.00000000 </v>
     <v>       0.00000000       0.05536240       0.00000000 </v>
     <v>       0.00000000      -0.00000000       0.01600320 </v>
    </varray>
   </crystal>
   <varray name="positions" >
    <v>       0.45644213       0.30512339       0.58106581 </v>
    <v>       0.44594469       0.80733897       0.58101367 </v>
    <v>       0.95519456       0.30463670       0.57786949 </v>
    <v>       0.96472419       0.81092382       0.58155199 </v>
    <v>       0.30943887       0.04527823       0.58022109 </v>
    <v>       0.30176607       0.55175838       0.58139693 </v>
    <v>       0.79143138       0.05197395       0.58178165 </v>
    <v>       0.07772964       0.15925083       0.56037398 </v>
    <v>       0.07498617       0.66644613       0.55781067 </v>
    <v>       0.58482598       0.18103489       0.55678208 </v>
    <v>       0.56869903       0.67001937       0.55894059 </v>
    <v>       0.33202864       0.07209945       0.55475305 </v>
    <v>       0.32594688       0.58008519       0.55617875 </v>
    <v>       0.82359430       0.08033116       0.55726844 </v>
    <v>       0.04153908       0.19778477       0.58234023 </v>
    <v>       0.05392441       0.70672186       0.58160064 </v>
    <v>       0.55965305       0.21863985       0.58094762 </v>
    <v>       0.53664117       0.70108153       0.58303867 </v>
    <v>       0.20110385       0.44918802       0.58226093 </v>
    <v>       0.20065316       0.95164652       0.58223566 </v>
    <v>       0.69944454       0.94203092       0.58035589 </v>
    <v>       0.41312614       0.32462274       0.55649760 </v>
    <v>       0.42719048       0.84040986       0.55559196 </v>
    <v>       0.93754440       0.32540085       0.55062154 </v>
    <v>       0.92800407       0.83534566       0.55711100 </v>
    <v>       0.17061720       0.42152387       0.55751330 </v>
    <v>       0.16387834       0.92753779       0.55787898 </v>
    <v>       0.68126602       0.91002317       0.55504107 </v>
    <v>       0.49390076       0.24832887       0.53801075 </v>
    <v>       0.50282593       0.75418530       0.53881816 </v>
    <v>       0.01373378       0.23847334       0.53731920 </v>
    <v>       0.99880677       0.75045467       0.53837379 </v>
    <v>       0.24669587       0.50189438       0.53890039 </v>
    <v>       0.24213017       0.00015082       0.53846182 </v>
    <v>       0.75826088       0.99439641       0.53829846 </v>
    <v>       0.44954543       0.30365458       0.67520805 </v>
    <v>       0.45328743       0.78963912       0.67514615 </v>
    <v>       0.94306474       0.30630078       0.67076984 </v>
    <v>       0.94707937       0.80219758       0.67441242 </v>
    <v>       0.29903652       0.05169177       0.67528326 </v>
    <v>       0.29994837       0.54750611       0.67486362 </v>
    <v>       0.80152125       0.05431612       0.67482577 </v>
    <v>       0.80383047       0.55715024       0.67493846 </v>
    <v>       0.07619714       0.17220583       0.65128841 </v>
    <v>       0.07590111       0.66897366       0.65016471 </v>
    <v>       0.57774855       0.17187967       0.64987858 </v>
    <v>       0.57896418       0.67264981       0.64485432 </v>
    <v>       0.16381370       0.42452843       0.64964153 </v>
    <v>       0.17225771       0.92018894       0.64920480 </v>
    <v>       0.67387702       0.41748638       0.65143230 </v>
    <v>       0.66986325       0.92496725       0.64987254 </v>
    <v>       0.04239191       0.20601550       0.67574050 </v>
    <v>       0.04858929       0.69864528       0.67554576 </v>
    <v>       0.55250471       0.20116867       0.67522178 </v>
    <v>       0.55548546       0.69459776       0.67119302 </v>
    <v>       0.19511312       0.45109745       0.67486453 </v>
    <v>       0.19981881       0.94900547       0.67468548 </v>
    <v>       0.70218984       0.45559534       0.67591644 </v>
    <v>       0.69905059       0.95490473       0.67510085 </v>
    <v>       0.42030778       0.33272436       0.64989836 </v>
    <v>       0.41637517       0.82371090       0.65123975 </v>
    <v>       0.92018944       0.32947900       0.64469584 </v>
    <v>       0.91842560       0.83010613       0.64955540 </v>
    <v>       0.32870569       0.08209015       0.65013986 </v>
    <v>       0.32924396       0.57658507       0.64955765 </v>
    <v>       0.83149340       0.08171577       0.64943122 </v>
    <v>       0.83336361       0.57657103       0.64916958 </v>
    <v>       0.00327822       0.24582455       0.63005113 </v>
    <v>       0.99423606       0.74702567       0.63136804 </v>
    <v>       0.49823407       0.25160743       0.63213883 </v>
    <v>       0.49607492       0.74944755       0.63002628 </v>
    <v>       0.25056397       0.00098672       0.63189891 </v>
    <v>       0.24509304       0.49914304       0.63178347 </v>
    <v>       0.75124384       0.00473081       0.63187303 </v>
    <v>       0.76143476       0.49429283       0.63315881 </v>
    <v>       0.44874502       0.30128397       0.76888902 </v>
    <v>       0.44874501       0.80128391       0.76888902 </v>
    <v>       0.94874497       0.30128397       0.76888902 </v>
    <v>       0.94874501       0.80128391       0.76888902 </v>
    <v>       0.30127600       0.05129450       0.76887296 </v>
    <v>       0.30127601       0.55129450       0.76887296 </v>
    <v>       0.80127594       0.05129450       0.76887296 </v>
    <v>       0.80127598       0.55129450       0.76887296 </v>
    <v>       0.07877100       0.17118050       0.74344197 </v>
    <v>       0.07877101       0.67118045       0.74344197 </v>
    <v>       0.57877100       0.17118050       0.74344197 </v>
    <v>       0.57877099       0.67118045       0.74344197 </v>
    <v>       0.17119950       0.42117448       0.74342103 </v>
    <v>       0.17119950       0.92117451       0.74342103 </v>
    <v>       0.67119951       0.42117448       0.74342103 </v>
    <v>       0.67119950       0.92117451       0.74342103 </v>
    <v>       0.05125600       0.19871499       0.76888902 </v>
    <v>       0.05125600       0.69871493       0.76888902 </v>
    <v>       0.55125603       0.19871499       0.76888902 </v>
    <v>       0.55125602       0.69871493       0.76888902 </v>
    <v>       0.19872349       0.44870397       0.76887205 </v>
    <v>       0.19872349       0.94870397       0.76887205 </v>
    <v>       0.69872352       0.44870397       0.76887205 </v>
    <v>       0.69872351       0.94870397       0.76887205 </v>
    <v>       0.42123152       0.32881747       0.74344197 </v>
    <v>       0.42123151       0.82881744       0.74344197 </v>
    <v>       0.92123147       0.32881747       0.74344197 </v>
    <v>       0.92123151       0.82881744       0.74344197 </v>
    <v>       0.32880050       0.07882500       0.74342103 </v>
    <v>       0.32880049       0.57882496       0.74342103 </v>
    <v>       0.82880048       0.07882500       0.74342103 </v>
    <v>       0.82880052       0.57882496       0.74342103 </v>
    <v>       0.00000350       0.25000148       0.72582199 </v>
    <v>       0.00000350       0.75000145       0.72582199 </v>
    <v>       0.50000351       0.25000148       0.72582199 </v>
    <v>       0.50000350       0.75000145       0.72582199 </v>
    <v>       0.25000050       0.00000000       0.72580398 </v>
    <v>       0.25000052       0.50000000       0.72580398 </v>
    <v>       0.75000050       0.00000000       0.72580398 </v>
    <v>       0.75000049       0.50000000       0.72580398 </v>
    <v>       0.79364627       0.56904889       0.53287361 </v>
    <v>       0.74089674       0.48761461       0.53283790 </v>
    <v>       0.87360297       0.50616714       0.55451814 </v>
    <v>       0.84766794       0.47907680       0.58003148 </v>
    <v>       0.74910020       0.63866884       0.57187299 </v>
    <v>       0.80482486       0.58502806       0.58912186 </v>
    <v>       0.66131509       0.53820056       0.57544047 </v>
    <v>       0.68122636       0.45272810       0.56352561 </v>
    <v>       0.62780042       0.55896537       0.54416353 </v>
    <v>       0.68554050       0.63761869       0.54746588 </v>
    <v>       0.63669708       0.66677960       0.51448480 </v>
    <v>       0.70858224       0.61326300       0.50402809 </v>
    <v>       0.81234175       0.39673641       0.53757939 </v>
    <v>       0.75873370       0.38279974       0.56096504 </v>
    <v>       0.85125609       0.36753862       0.56311318 </v>
    <v>       0.87076870       0.68305254       0.56715512 </v>
    <v>       0.85876669       0.63138698       0.54330862 </v>
    <v>       0.91506684       0.59706921       0.56535917 </v>
    <v>       0.77258468       0.49692596       0.60100076 </v>
    <v>       0.73796366       0.40926490       0.59382171 </v>
    <v>       0.68289789       0.47531628       0.60688689 </v>
    <v>       0.55297607       0.55419658       0.51419946 </v>
    <v>       0.58831528       0.57652272       0.48879695 </v>
    <v>       0.71228502       0.50441510       0.47936367 </v>
    <v>       0.56945003       0.43626549       0.52942785 </v>
    <v>       0.76901904       0.38030077       0.47924994 </v>
    <v>       0.62400766       0.31587490       0.53036224 </v>
    <v>       0.72666200       0.28630309       0.50460047 </v>
    <v>       0.00629407       0.24388420       0.55454237 </v>
    <v>       0.00173400       0.75318742       0.55625451 </v>
    <v>       0.50023008       0.25134283       0.55560063 </v>
    <v>       0.49856334       0.75390843       0.55618919 </v>
    <v>       0.24744384       0.50007064       0.55595165 </v>
    <v>       0.24694608       0.99921462       0.55545729 </v>
    <v>       0.75329296       0.99592427       0.55529863 </v>
    <v>       0.99846265       0.25056990       0.64787079 </v>
    <v>       0.99787582       0.74871593       0.64926011 </v>
    <v>       0.49978620       0.25149378       0.64997552 </v>
    <v>       0.49778369       0.74808109       0.64790065 </v>
    <v>       0.24732658       0.50127765       0.64960295 </v>
    <v>       0.24971855       0.00035670       0.64978365 </v>
    <v>       0.75467370       0.49801660       0.65004084 </v>
    <v>       0.74991055       0.00262230       0.64976424 </v>
    <v>       0.49998898       0.24999498       0.74327702 </v>
    <v>       0.49998903       0.74999496       0.74327702 </v>
    <v>       0.99998898       0.24999498       0.74327702 </v>
    <v>       0.99998903       0.74999496       0.74327702 </v>
    <v>       0.25000050       0.00000100       0.74325596 </v>
    <v>       0.25000052       0.50000100       0.74325596 </v>
    <v>       0.75000050       0.00000100       0.74325596 </v>
    <v>       0.75000049       0.50000100       0.74325596 </v>
    <v>       0.63305548       0.48045387       0.50312788 </v>
    <v>       0.69133864       0.46310006       0.48970195 </v>
    <v>       0.61025342       0.42573718       0.51741495 </v>
    <v>       0.72475749       0.39121820       0.48964231 </v>
    <v>       0.64317421       0.35494869       0.51816632 </v>
    <v>       0.70052767       0.33766966       0.50450038 </v>
    <v>       0.74787079       0.54215934       0.53972477 </v>
    <v>       0.82902839       0.48139884       0.56349088 </v>
    <v>       0.79531851       0.60064673       0.57253175 </v>
    <v>       0.70159080       0.49543501       0.57465394 </v>
    <v>       0.67507014       0.58896291       0.53824608 </v>
    <v>       0.66081404       0.60820477       0.51412541 </v>
    <v>       0.80999118       0.40323269       0.55492459 </v>
    <v>       0.86364909       0.62779478       0.56076316 </v>
    <v>       0.72510002       0.46895432       0.59518594 </v>
    <v>       0.60223863       0.55640516       0.50469582 </v>
    <v>       0.04580873       0.19685354       0.56674244 </v>
    <v>       0.04628345       0.70374274       0.56593528 </v>
    <v>       0.55266470       0.21552637       0.56525655 </v>
    <v>       0.53474454       0.70541939       0.56706343 </v>
    <v>       0.45222219       0.29703827       0.56544543 </v>
    <v>       0.45293783       0.80403114       0.56532560 </v>
    <v>       0.96308603       0.29484724       0.56237121 </v>
    <v>       0.96206087       0.80427005       0.56586330 </v>
    <v>       0.20364641       0.45396141       0.56559353 </v>
    <v>       0.20078669       0.95676383       0.56556661 </v>
    <v>       0.70796776       0.94569214       0.56384050 </v>
    <v>       0.29990373       0.04204659       0.56372573 </v>
    <v>       0.29522977       0.54743852       0.56480273 </v>
    <v>       0.79207087       0.04591042       0.56514178 </v>
    <v>       0.03975475       0.20885871       0.65958017 </v>
    <v>       0.04198890       0.70539721       0.65882275 </v>
    <v>       0.54380422       0.20682741       0.65905192 </v>
    <v>       0.54886265       0.70069737       0.65505118 </v>
    <v>       0.20111384       0.45499344       0.65913269 </v>
    <v>       0.20572623       0.95495851       0.65896090 </v>
    <v>       0.70855261       0.45580167       0.66006592 </v>
    <v>       0.70468616       0.95938869       0.65932682 </v>
    <v>       0.45313699       0.29947586       0.65946601 </v>
    <v>       0.45290183       0.78991150       0.65932841 </v>
    <v>       0.94915515       0.30021135       0.65515777 </v>
    <v>       0.95180633       0.79775851       0.65840275 </v>
    <v>       0.29584581       0.04819425       0.65951820 </v>
    <v>       0.29379932       0.54316978       0.65910534 </v>
    <v>       0.79779759       0.04964764       0.65909716 </v>
    <v>       0.80093792       0.54794306       0.65909051 </v>
    <v>       0.04586250       0.20411950       0.75272599 </v>
    <v>       0.04586250       0.70411946       0.75272599 </v>
    <v>       0.54586251       0.20411950       0.75272599 </v>
    <v>       0.54586250       0.70411946       0.75272599 </v>
    <v>       0.20411900       0.45410100       0.75270499 </v>
    <v>       0.20411899       0.95410095       0.75270499 </v>
    <v>       0.70411898       0.45410100       0.75270499 </v>
    <v>       0.70411896       0.95410095       0.75270499 </v>
    <v>       0.45414002       0.29588849       0.75272697 </v>
    <v>       0.45414001       0.79588852       0.75272697 </v>
    <v>       0.95414002       0.29588849       0.75272697 </v>
    <v>       0.95414006       0.79588852       0.75272697 </v>
    <v>       0.29588249       0.04590050       0.75270499 </v>
    <v>       0.29588248       0.54590053       0.75270499 </v>
    <v>       0.79588244       0.04590050       0.75270499 </v>
    <v>       0.79588248       0.54590053       0.75270499 </v>
    <v>       0.76891765       0.52899507       0.56277345 </v>
    <v>       0.49798199       0.00167904       0.55330250 </v>
    <v>       0.49035001       0.50921267       0.55467021 </v>
    <v>       0.00499442       0.00125637       0.55240950 </v>
    <v>       0.00993665       0.49018095       0.54967665 </v>
    <v>       0.25091975       0.24882288       0.55334029 </v>
    <v>       0.25097415       0.75008028       0.55326178 </v>
    <v>       0.75732631       0.24024924       0.55436247 </v>
    <v>       0.74157666       0.75951792       0.54950841 </v>
    <v>       0.99471783       0.00090046       0.65402889 </v>
    <v>       0.00081291       0.49506246       0.65368317 </v>
    <v>       0.49536240       0.99874563       0.65414677 </v>
    <v>       0.49974884       0.50015195       0.65442441 </v>
    <v>       0.25112061       0.24931110       0.65403053 </v>
    <v>       0.25047832       0.75053587       0.65500338 </v>
    <v>       0.75081605       0.24857087       0.65437515 </v>
    <v>       0.74868458       0.74994380       0.65418565 </v>
    <v>       0.14444858       0.10788352       0.60765181 </v>
    <v>       0.14443206       0.60731408       0.60701228 </v>
    <v>       0.64453280       0.10777287       0.60726282 </v>
    <v>       0.63402890       0.61591936       0.61007551 </v>
    <v>       0.35527633       0.39185476       0.60739584 </v>
    <v>       0.35808462       0.89456563       0.60722350 </v>
    <v>       0.86674416       0.38325520       0.61020249 </v>
    <v>       0.85760658       0.89364420       0.60728516 </v>
    <v>       0.10841903       0.35552109       0.60736409 </v>
    <v>       0.10519671       0.85560641       0.60738339 </v>
    <v>       0.59731947       0.34726432       0.60863071 </v>
    <v>       0.60583138       0.85826235       0.60752093 </v>
    <v>       0.39436736       0.14341951       0.60761256 </v>
    <v>       0.39377906       0.64408741       0.60771377 </v>
    <v>       0.89191718       0.14393962       0.60738742 </v>
    <v>       0.90263893       0.65304370       0.61025310 </v>
    <v>       0.00000000       0.00000000       0.75492797 </v>
    <v>       0.00000000       0.50000000       0.75492797 </v>
    <v>       0.50000000       0.00000000       0.75492797 </v>
    <v>       0.49999999       0.50000000       0.75492797 </v>
    <v>       0.25000050       0.25000000       0.75493902 </v>
    <v>       0.25000051       0.74999997       0.75493902 </v>
    <v>       0.75000047       0.25000000       0.75493902 </v>
    <v>       0.75000046       0.74999997       0.75493902 </v>
    <v>       0.13579050       0.11421000       0.70478299 </v>
    <v>       0.13579050       0.61420998       0.70478299 </v>
    <v>       0.63579045       0.11421000       0.70478299 </v>
    <v>       0.63579049       0.61420998       0.70478299 </v>
    <v>       0.36420952       0.38578999       0.70478299 </v>
    <v>       0.36420950       0.88578996       0.70478299 </v>
    <v>       0.86420954       0.38578999       0.70478299 </v>
    <v>       0.86420953       0.88578996       0.70478299 </v>
    <v>       0.11421799       0.36421899       0.70478098 </v>
    <v>       0.11421799       0.86421899       0.70478098 </v>
    <v>       0.61421800       0.36421899       0.70478098 </v>
    <v>       0.61421799       0.86421899       0.70478098 </v>
    <v>       0.38578201       0.13578149       0.70478202 </v>
    <v>       0.38578200       0.63578149       0.70478202 </v>
    <v>       0.88578199       0.13578149       0.70478202 </v>
    <v>       0.88578203       0.63578149       0.70478202 </v>
    <v>       0.13466700       0.11533200       0.80125603 </v>
    <v>       0.13466699       0.61533199       0.80125603 </v>
    <v>       0.63466699       0.11533200       0.80125603 </v>
    <v>       0.63466698       0.61533199       0.80125603 </v>
    <v>       0.36533300       0.38466799       0.80125603 </v>
    <v>       0.36533299       0.88466796       0.80125603 </v>
    <v>       0.86533295       0.38466799       0.80125603 </v>
    <v>       0.86533294       0.88466796       0.80125603 </v>
    <v>       0.11532850       0.36533700       0.80126500 </v>
    <v>       0.11532850       0.86533698       0.80126500 </v>
    <v>       0.61532850       0.36533700       0.80126500 </v>
    <v>       0.61532849       0.86533698       0.80126500 </v>
    <v>       0.38467151       0.13466300       0.80126500 </v>
    <v>       0.38467150       0.63466297       0.80126500 </v>
    <v>       0.88467149       0.13466300       0.80126500 </v>
    <v>       0.88467153       0.63466297       0.80126500 </v>
    <v>       0.99893095       0.99879368       0.60306178 </v>
    <v>       0.00191874       0.50154095       0.60343515 </v>
    <v>       0.49843839       0.99905169       0.60399068 </v>
    <v>       0.49764671       0.50102596       0.60318424 </v>
    <v>       0.24885532       0.25134938       0.60333088 </v>
    <v>       0.24880217       0.74847169       0.60333479 </v>
    <v>       0.75121259       0.24577732       0.60288242 </v>
    <v>       0.74706963       0.75653131       0.60412163 </v>
    <v>       0.00000050       0.00000050       0.70482896 </v>
    <v>       0.00000050       0.50000048       0.70482896 </v>
    <v>       0.50000048       0.00000050       0.70482896 </v>
    <v>       0.50000046       0.50000048       0.70482896 </v>
    <v>       0.24999999       0.24999947       0.70482499 </v>
    <v>       0.25000001       0.74999950       0.70482499 </v>
    <v>       0.74999999       0.24999947       0.70482499 </v>
    <v>       0.74999998       0.74999950       0.70482499 </v>
    <v>       0.00000000       0.00000000       0.80731797 </v>
    <v>       0.00000000       0.50000000       0.80731797 </v>
    <v>       0.50000000       0.00000000       0.80731797 </v>
    <v>       0.49999999       0.50000000       0.80731797 </v>
    <v>       0.24999999       0.25000000       0.80731797 </v>
    <v>       0.25000001       0.74999997       0.80731797 </v>
    <v>       0.74999999       0.25000000       0.80731797 </v>
    <v>       0.74999998       0.74999997       0.80731797 </v>
   </varray>
  </structure>
  <varray name="primitive_index" >
   <v type="int" >        1 </v>
   <v type="int" >        2 </v>
   <v type="int" >        3 </v>
   <v type="int" >        4 </v>
   <v type="int" >        5 </v>
   <v type="int" >        6 </v>
   <v type="int" >        7 </v>
   <v type="int" >        8 </v>
   <v type="int" >        9 </v>
   <v type="int" >       10 </v>
   <v type="int" >       11 </v>
   <v type="int" >       12 </v>
   <v type="int" >       13 </v>
   <v type="int" >       14 </v>
   <v type="int" >       15 </v>
   <v type="int" >       16 </v>
   <v type="int" >       17 </v>
   <v type="int" >       18 </v>
   <v type="int" >       19 </v>
   <v type="int" >       20 </v>
   <v type="int" >       21 </v>
   <v type="int" >       22 </v>
   <v type="int" >       23 </v>
   <v type="int" >       24 </v>
   <v type="int" >       25 </v>
   <v type="int" >       26 </v>
   <v type="int" >       27 </v>
   <v type="int" >       28 </v>
   <v type="int" >       29 </v>
   <v type="int" >       30 </v>
   <v type="int" >       31 </v>
   <v type="int" >       32 </v>
   <v type="int" >       33 </v>
   <v type="int" >       34 </v>
   <v type="int" >       35 </v>
   <v type="int" >       36 </v>
   <v type="int" >       37 </v>
   <v type="int" >       38 </v>
   <v type="int" >       39 </v>
   <v type="int" >       40 </v>
   <v type="int" >       41 </v>
   <v type="int" >       42 </v>
   <v type="int" >       43 </v>
   <v type="int" >       44 </v>
   <v type="int" >       45 </v>
   <v type="int" >       46 </v>
   <v type="int" >       47 </v>
   <v type="int" >       48 </v>
   <v type="int" >       49 </v>
   <v type="int" >       50 </v>
   <v type="int" >       51 </v>
   <v type="int" >       52 </v>
   <v type="int" >       53 </v>
   <v type="int" >       54 </v>
   <v type="int" >       55 </v>
   <v type="int" >       56 </v>
   <v type="int" >       57 </v>
   <v type="int" >       58 </v>
   <v type="int" >       59 </v>
   <v type="int" >       60 </v>
   <v type="int" >       61 </v>
   <v type="int" >       62 </v>
   <v type="int" >       63 </v>
   <v type="int" >       64 </v>
   <v type="int" >       65 </v>
   <v type="int" >       66 </v>
   <v type="int" >       67 </v>
   <v type="int" >       68 </v>
   <v type="int" >       69 </v>
   <v type="int" >       70 </v>
   <v type="int" >       71 </v>
   <v type="int" >       72 </v>
   <v type="int" >       73 </v>
   <v type="int" >       74 </v>
   <v type="int" >       75 </v>
   <v type="int" >       76 </v>
   <v type="int" >       77 </v>
   <v type="int" >       78 </v>
   <v type="int" >       79 </v>
   <v type="int" >       80 </v>
   <v type="int" >       81 </v>
   <v type="int" >       82 </v>
   <v type="int" >       83 </v>
   <v type="int" >       84 </v>
   <v type="int" >       85 </v>
   <v type="int" >       86 </v>
   <v type="int" >       87 </v>
   <v type="int" >       88 </v>
   <v type="int" >       89 </v>
   <v type="int" >       90 </v>
   <v type="int" >       91 </v>
   <v type="int" >       92 </v>
   <v type="int" >       93 </v>
   <v type="int" >       94 </v>
   <v type="int" >       95 </v>
   <v type="int" >       96 </v>
   <v type="int" >       97 </v>
   <v type="int" >       98 </v>
   <v type="int" >       99 </v>
   <v type="int" >      100 </v>
   <v type="int" >      101 </v>
   <v type="int" >      102 </v>
   <v type="int" >      103 </v>
   <v type="int" >      104 </v>
   <v type="int" >      105 </v>
   <v type="int" >      106 </v>
   <v type="int" >      107 </v>
   <v type="int" >      108 </v>
   <v type="int" >      109 </v>
   <v type="int" >      110 </v>
   <v type="int" >      111 </v>
   <v type="int" >      112 </v>
   <v type="int" >      113 </v>
   <v type="int" >      114 </v>
   <v type="int" >      115 </v>
   <v type="int" >      116 </v>
   <v type="int" >      117 </v>
   <v type="int" >      118 </v>
   <v type="int" >      119 </v>
   <v type="int" >      120 </v>
   <v type="int" >      121 </v>
   <v type="int" >      122 </v>
   <v type="int" >      123 </v>
   <v type="int" >      124 </v>
   <v type="int" >      125 </v>
   <v type="int" >      126 </v>
   <v type="int" >      127 </v>
   <v type="int" >      128 </v>
   <v type="int" >      129 </v>
   <v type="int" >      130 </v>
   <v type="int" >      131 </v>
   <v type="int" >      132 </v>
   <v type="int" >      133 </v>
   <v type="int" >      134 </v>
   <v type="int" >      135 </v>
   <v type="int" >      136 </v>
   <v type="int" >      137 </v>
   <v type="int" >      138 </v>
   <v type="int" >      139 </v>
   <v type="int" >      140 </v>
   <v type="int" >      141 </v>
   <v type="int" >      142 </v>
   <v type="int" >      143 </v>
   <v type="int" >      144 </v>
   <v type="int" >      145 </v>
   <v type="int" >      146 </v>
   <v type="int" >      147 </v>
   <v type="int" >      148 </v>
   <v type="int" >      149 </v>
   <v type="int" >      150 </v>
   <v type="int" >      151 </v>
   <v type="int" >      152 </v>
   <v type="int" >      153 </v>
   <v type="int" >      154 </v>
   <v type="int" >      155 </v>
   <v type="int" >      156 </v>
   <v type="int" >      157 </v>
   <v type="int" >      158 </v>
   <v type="int" >      159 </v>
   <v type="int" >      160 </v>
   <v type="int" >      161 </v>
   <v type="int" >      162 </v>
   <v type="int" >      163 </v>
   <v type="int" >      164 </v>
   <v type="int" >      165 </v>
   <v type="int" >      166 </v>
   <v type="int" >      167 </v>
   <v type="int" >      168 </v>
   <v type="int" >      169 </v>
   <v type="int" >      170 </v>
   <v type="int" >      171 </v>
   <v type="int" >      172 </v>
   <v type="int" >      173 </v>
   <v type="int" >      174 </v>
   <v type="int" >      175 </v>
   <v type="int" >      176 </v>
   <v type="int" >      177 </v>
   <v type="int" >      178 </v>
   <v type="int" >      179 </v>
   <v type="int" >      180 </v>
   <v type="int" >      181 </v>
   <v type="int" >      182 </v>
   <v type="int" >      183 </v>
   <v type="int" >      184 </v>
   <v type="int" >      185 </v>
   <v type="int" >      186 </v>
   <v type="int" >      187 </v>
   <v type="int" >      188 </v>
   <v type="int" >      189 </v>
   <v type="int" >      190 </v>
   <v type="int" >      191 </v>
   <v type="int" >      192 </v>
   <v type="int" >      193 </v>
   <v type="int" >      194 </v>
   <v type="int" >      195 </v>
   <v type="int" >      196 </v>
   <v type="int" >      197 </v>
   <v type="int" >      198 </v>
   <v type="int" >      199 </v>
   <v type="int" >      200 </v>
   <v type="int" >      201 </v>
   <v type="int" >      202 </v>
   <v type="int" >      203 </v>
   <v type="int" >      204 </v>
   <v type="int" >      205 </v>
   <v type="int" >      206 </v>
   <v type="int" >      207 </v>
   <v type="int" >      208 </v>
   <v type="int" >      209 </v>
   <v type="int" >      210 </v>
   <v type="int" >      211 </v>
   <v type="int" >      212 </v>
   <v type="int" >      213 </v>
   <v type="int" >      214 </v>
   <v type="int" >      215 </v>
   <v type="int" >      216 </v>
   <v type="int" >      217 </v>
   <v type="int" >      218 </v>
   <v type="int" >      219 </v>
   <v type="int" >      220 </v>
   <v type="int" >      221 </v>
   <v type="int" >      222 </v>
   <v type="int" >      223 </v>
   <v type="int" >      224 </v>
   <v type="int" >      225 </v>
   <v type="int" >      226 </v>
   <v type="int" >      227 </v>
   <v type="int" >      228 </v>
   <v type="int" >      229 </v>
   <v type="int" >      230 </v>
   <v type="int" >      231 </v>
   <v type="int" >      232 </v>
   <v type="int" >      233 </v>
   <v type="int" >      234 </v>
   <v type="int" >      235 </v>
   <v type="int" >      236 </v>
   <v type="int" >      237 </v>
   <v type="int" >      238 </v>
   <v type="int" >      239 </v>
   <v type="int" >      240 </v>
   <v type="int" >      241 </v>
   <v type="int" >      242 </v>
   <v type="int" >      243 </v>
   <v type="int" >      244 </v>
   <v type="int" >      245 </v>
   <v type="int" >      246 </v>
   <v type="int" >      247 </v>
   <v type="int" >      248 </v>
   <v type="int" >      249 </v>
   <v type="int" >      250 </v>
   <v type="int" >      251 </v>
   <v type="int" >      252 </v>
   <v type="int" >      253 </v>
   <v type="int" >      254 </v>
   <v type="int" >      255 </v>
   <v type="int" >      256 </v>
   <v type="int" >      257 </v>
   <v type="int" >      258 </v>
   <v type="int" >      259 </v>
   <v type="int" >      260 </v>
   <v type="int" >      261 </v>
   <v type="int" >      262 </v>
   <v type="int" >      263 </v>
   <v type="int" >      264 </v>
   <v type="int" >      265 </v>
   <v type="int" >      266 </v>
   <v type="int" >      267 </v>
   <v type="int" >      268 </v>
   <v type="int" >      269 </v>
   <v type="int" >      270 </v>
   <v type="int" >      271 </v>
   <v type="int" >      272 </v>
   <v type="int" >      273 </v>
   <v type="int" >      274 </v>
   <v type="int" >      275 </v>
   <v type="int" >      276 </v>
   <v type="int" >      277 </v>
   <v type="int" >      278 </v>
   <v type="int" >      279 </v>
   <v type="int" >      280 </v>
   <v type="int" >      281 </v>
   <v type="int" >      282 </v>
   <v type="int" >      283 </v>
   <v type="int" >      284 </v>
   <v type="int" >      285 </v>
   <v type="int" >      286 </v>
   <v type="int" >      287 </v>
   <v type="int" >      288 </v>
   <v type="int" >      289 </v>
   <v type="int" >      290 </v>
   <v type="int" >      291 </v>
   <v type="int" >      292 </v>
   <v type="int" >      293 </v>
   <v type="int" >      294 </v>
   <v type="int" >      295 </v>
   <v type="int" >      296 </v>
   <v type="int" >      297 </v>
   <v type="int" >      298 </v>
   <v type="int" >      299 </v>
   <v type="int" >      300 </v>
   <v type="int" >      301 </v>
   <v type="int" >      302 </v>
   <v type="int" >      303 </v>
   <v type="int" >      304 </v>
   <v type="int" >      305 </v>
   <v type="int" >      306 </v>
   <v type="int" >      307 </v>
   <v type="int" >      308 </v>
   <v type="int" >      309 </v>
   <v type="int" >      310 </v>
   <v type="int" >      311 </v>
   <v type="int" >      312 </v>
   <v type="int" >      313 </v>
   <v type="int" >      314 </v>
   <v type="int" >      315 </v>
   <v type="int" >      316 </v>
   <v type="int" >      317 </v>
   <v type="int" >      318 </v>
   <v type="int" >      319 </v>
   <v type="int" >      320 </v>
   <v type="int" >      321 </v>
   <v type="int" >      322 </v>
   <v type="int" >      323 </v>
   <v type="int" >      324 </v>
   <v type="int" >      325 </v>
  </varray>
 </primitive_cell>
 <kpoints>
  <generation param="Gamma">
   <v type="int" name="divisions">       3        3        1 </v>
   <v name="usershift">      0.00000000       0.00000000       0.00000000 </v>
   <v name="genvec1">      0.33333333       0.00000000       0.00000000 </v>
   <v name="genvec2">      0.00000000       0.33333333       0.00000000 </v>
   <v name="genvec3">      0.00000000       0.00000000       1.00000000 </v>
   <v name="shift">      0.00000000       0.00000000       0.00000000 </v>
  </generation>
  <varray name="kpointlist" >
   <v>       0.00000000       0.00000000       0.00000000 </v>
   <v>       0.33333333       0.00000000       0.00000000 </v>
   <v>       0.00000000       0.33333333       0.00000000 </v>
   <v>       0.33333333       0.33333333       0.00000000 </v>
   <v>      -0.33333333       0.33333333       0.00000000 </v>
  </varray>
  <varray name="weights" >
   <v>       0.11111111 </v>
   <v>       0.22222222 </v>
   <v>       0.22222222 </v>
   <v>       0.22222222 </v>
   <v>       0.22222222 </v>
  </varray>
 </kpoints>
 <parameters>
  <separator name="general" >
   <i type="string" name="SYSTEM">PSC</i>
   <i type="logical" name="LCOMPAT"> F  </i>
  </separator>
  <separator name="electronic" >
   <i type="string" name="PREC">normal</i>
   <i name="ENMAX">    500.00000000</i>
   <i name="ENAUG">    644.87300000</i>
   <i name="EDIFF">      0.00010000</i>
   <i type="int" name="IALGO">    38</i>
   <i type="int" name="IWAVPR">    10</i>
   <i type="int" name="NBANDS">   732</i>
   <i type="int" name="NBANDSLOW">    -1</i>
   <i type="int" name="NBANDSHIGH">    -1</i>
   <i name="NELECT">   1134.00000000</i>
   <i type="int" name="TURBO">     0</i>
   <i type="int" name="IRESTART">     0</i>
   <i type="int" name="NREBOOT">     0</i>
   <i type="int" name="NMIN">     0</i>
   <i name="EREF">      0.00000000</i>
   <separator name="electronic smearing" >
    <i type="int" name="ISMEAR">     0</i>
    <i name="SIGMA">      0.05000000</i>
    <i name="KSPACING">      0.50000000</i>
    <i type="logical" name="KGAMMA"> T  </i>
    <i type="logical" name="KBLOWUP"> T  </i>
   </separator>
   <separator name="electronic projectors" >
    <i type="logical" name="LREAL"> T  </i>
    <v name="ROPT">     -0.00050000     -0.00050000     -0.00050000     -0.00050000     -0.00050000</v>
    <i type="int" name="LMAXPAW">  -100</i>
    <i type="int" name="LMAXMIX">     2</i>
    <i type="logical" name="NLSPLINE"> F  </i>
   </separator>
   <separator name="electronic startup" >
    <i type="int" name="ISTART">     0</i>
    <i type="int" name="ICHARG">     1</i>
    <i type="int" name="INIWAV">     1</i>
   </separator>
   <separator name="electronic spin" >
    <i type="int" name="ISPIN">     1</i>
    <i type="logical" name="LNONCOLLINEAR"> F  </i>
    <v name="MAGMOM">      1.00000000      1.00000000      1.00000000      1.00000000      1.00000000      1.00000000      1.00000000      1.00000000      1.00000000      1.00000000      1.00000000      1.00000000      1.00000000      1.00000000      1.00000000      1.00000000      1.00000000      1.00000000      1.00000000      1.00000000
      1.00000000      1.00000000      1.00000000      1.00000000      1.00000000      1.00000000      1.00000000      1.00000000      1.00000000      1.00000000      1.00000000      1.00000000      1.00000000      1.00000000      1.00000000      1.00000000      1.00000000      1.00000000      1.00000000      1.00000000
      1.00000000      1.00000000      1.00000000      1.00000000      1.00000000      1.00000000      1.00000000      1.00000000      1.00000000      1.00000000      1.00000000      1.00000000      1.00000000      1.00000000      1.00000000      1.00000000      1.00000000      1.00000000      1.00000000      1.00000000
      1.00000000      1.00000000      1.00000000      1.00000000      1.00000000      1.00000000      1.00000000      1.00000000      1.00000000      1.00000000      1.00000000      1.00000000      1.00000000      1.00000000      1.00000000      1.00000000      1.00000000      1.00000000      1.00000000      1.00000000
      1.00000000      1.00000000      1.00000000      1.00000000      1.00000000      1.00000000      1.00000000      1.00000000      1.00000000      1.00000000      1.00000000      1.00000000      1.00000000      1.00000000      1.00000000      1.00000000      1.00000000      1.00000000      1.00000000      1.00000000
      1.00000000      1.00000000      1.00000000      1.00000000      1.00000000      1.00000000      1.00000000      1.00000000      1.00000000      1.00000000      1.00000000      1.00000000      1.00000000      1.00000000      1.00000000      1.00000000      1.00000000      1.00000000      1.00000000      1.00000000
      1.00000000      1.00000000      1.00000000      1.00000000      1.00000000      1.00000000      1.00000000      1.00000000      1.00000000      1.00000000      1.00000000      1.00000000      1.00000000      1.00000000      1.00000000      1.00000000      1.00000000      1.00000000      1.00000000      1.00000000
      1.00000000      1.00000000      1.00000000      1.00000000      1.00000000      1.00000000      1.00000000      1.00000000      1.00000000      1.00000000      1.00000000      1.00000000      1.00000000      1.00000000      1.00000000      1.00000000      1.00000000      1.00000000      1.00000000      1.00000000
      1.00000000      1.00000000      1.00000000      1.00000000      1.00000000      1.00000000      1.00000000      1.00000000      1.00000000      1.00000000      1.00000000      1.00000000      1.00000000      1.00000000      1.00000000      1.00000000      1.00000000      1.00000000      1.00000000      1.00000000
      1.00000000      1.00000000      1.00000000      1.00000000      1.00000000      1.00000000      1.00000000      1.00000000      1.00000000      1.00000000      1.00000000      1.00000000      1.00000000      1.00000000      1.00000000      1.00000000      1.00000000      1.00000000      1.00000000      1.00000000
      1.00000000      1.00000000      1.00000000      1.00000000      1.00000000      1.00000000      1.00000000      1.00000000      1.00000000      1.00000000      1.00000000      1.00000000      1.00000000      1.00000000      1.00000000      1.00000000      1.00000000      1.00000000      1.00000000      1.00000000
      1.00000000      1.00000000      1.00000000      1.00000000      1.00000000      1.00000000      1.00000000      1.00000000      1.00000000      1.00000000      1.00000000      1.00000000      1.00000000      1.00000000      1.00000000      1.00000000      1.00000000      1.00000000      1.00000000      1.00000000
      1.00000000      1.00000000      1.00000000      1.00000000      1.00000000      1.00000000      1.00000000      1.00000000      1.00000000      1.00000000      1.00000000      1.00000000      1.00000000      1.00000000      1.00000000      1.00000000      1.00000000      1.00000000      1.00000000      1.00000000
      1.00000000      1.00000000      1.00000000      1.00000000      1.00000000      1.00000000      1.00000000      1.00000000      1.00000000      1.00000000      1.00000000      1.00000000      1.00000000      1.00000000      1.00000000      1.00000000      1.00000000      1.00000000      1.00000000      1.00000000
      1.00000000      1.00000000      1.00000000      1.00000000      1.00000000      1.00000000      1.00000000      1.00000000      1.00000000      1.00000000      1.00000000      1.00000000      1.00000000      1.00000000      1.00000000      1.00000000      1.00000000      1.00000000      1.00000000      1.00000000
      1.00000000      1.00000000      1.00000000      1.00000000      1.00000000      1.00000000      1.00000000      1.00000000      1.00000000      1.00000000      1.00000000      1.00000000      1.00000000      1.00000000      1.00000000      1.00000000      1.00000000      1.00000000      1.00000000      1.00000000
      1.00000000      1.00000000      1.00000000      1.00000000      1.00000000</v>
    <i name="NUPDOWN">     -1.00000000</i>
    <i type="logical" name="LSORBIT"> F  </i>
    <v name="SAXIS">      0.00000000      0.00000000      1.00000000</v>
    <i type="logical" name="LSPIRAL"> F  </i>
    <v name="QSPIRAL">      0.00000000      0.00000000      0.00000000</v>
    <i type="logical" name="LZEROZ"> F  </i>
   </separator>
   <separator name="electronic exchange-correlation" >
    <i type="logical" name="LASPH"> F  </i>
    <i type="logical" name="LMETAGGA"> F  </i>
   </separator>
   <separator name="electronic convergence" >
    <i type="int" name="NELM">   600</i>
    <i type="int" name="NELMDL">     0</i>
    <i type="int" name="NELMIN">     2</i>
    <i name="ENINI">    500.00000000</i>
    <separator name="electronic convergence detail" >
     <i type="logical" name="LDIAG"> T  </i>
     <i type="logical" name="LSUBROT"> F  </i>
     <i name="WEIMIN">      0.00000000</i>
     <i name="EBREAK">      0.00000003</i>
     <i name="DEPER">      0.30000000</i>
     <i type="int" name="NRMM">     4</i>
     <i name="TIME">      0.40000000</i>
    </separator>
   </separator>
   <separator name="electronic mixer" >
    <i name="AMIX">      0.40000000</i>
    <i name="BMIX">      0.01000000</i>
    <i name="AMIN">      0.01000000</i>
    <i name="AMIX_MAG">      1.60000000</i>
    <i name="BMIX_MAG">      0.01000000</i>
    <separator name="electronic mixer details" >
     <i type="int" name="IMIX">     4</i>
     <i type="logical" name="MIXFIRST"> F  </i>
     <i type="int" name="MAXMIX">   -45</i>
     <i name="WC">    100.00000000</i>
     <i type="int" name="INIMIX">     1</i>
     <i type="int" name="MIXPRE">     1</i>
     <i type="int" name="MREMOVE">     5</i>
    </separator>
   </separator>
   <separator name="electronic dipolcorrection" >
    <i type="logical" name="LDIPOL"> T  </i>
    <i type="logical" name="LMONO"> F  </i>
    <i type="int" name="IDIPOL">     3</i>
    <i name="EPSILON">      1.00000000</i>
    <v name="DIPOL">   -100.00000000   -100.00000000   -100.00000000</v>
    <i name="EFIELD">      0.00000000</i>
   </separator>
  </separator>
  <separator name="grids" >
   <i type="int" name="NGX">   100</i>
   <i type="int" name="NGY">   100</i>
   <i type="int" name="NGZ">   350</i>
   <i type="int" name="NGXF">   200</i>
   <i type="int" name="NGYF">   200</i>
   <i type="int" name="NGZF">   700</i>
   <i type="logical" name="ADDGRID"> F  </i>
  </separator>
  <separator name="ionic" >
   <i type="int" name="NSW">     0</i>
   <i type="int" name="IBRION">    -1</i>
   <i type="int" name="MDALGO">     0</i>
   <i type="int" name="ISIF">     2</i>
   <i name="PSTRESS">      0.00000000</i>
   <i name="EDIFFG">      0.00100000</i>
   <i type="int" name="NFREE">     0</i>
   <i name="POTIM">      0.50000000</i>
   <i name="SMASS">     -3.00000000</i>
   <i name="SCALEE">      1.00000000</i>
  </separator>
  <separator name="ionic md" >
   <i name="TEBEG">      0.00010000</i>
   <i name="TEEND">      0.00010000</i>
   <i type="int" name="NBLOCK">     1</i>
   <i type="int" name="KBLOCK">     1</i>
   <i type="int" name="NPACO">   256</i>
   <i name="APACO">     16.00000000</i>
  </separator>
  <separator name="symmetry" >
   <i type="int" name="ISYM">     0</i>
   <i name="SYMPREC">      0.00001000</i>
  </separator>
  <separator name="dos" >
   <i type="int" name="LORBIT">     0</i>
   <v name="RWIGS">     -1.00000000     -1.00000000     -1.00000000     -1.00000000     -1.00000000</v>
   <i type="int" name="NEDOS">   301</i>
   <i name="EMIN">     10.00000000</i>
   <i name="EMAX">    -10.00000000</i>
   <i name="EFERMI">      0.00000000</i>
  </separator>
  <separator name="writing" >
   <i type="int" name="NWRITE">     2</i>
   <i type="logical" name="LWAVE"> F  </i>
   <i type="logical" name="LDOWNSAMPLE"> F  </i>
   <i type="logical" name="LCHARG"> T  </i>
   <i type="logical" name="LPARD"> F  </i>
   <i type="logical" name="LVTOT"> T  </i>
   <i type="logical" name="LVHAR"> F  </i>
   <i type="logical" name="LELF"> F  </i>
   <i type="logical" name="LOPTICS"> F  </i>
   <v name="STM">      0.00000000      0.00000000      0.00000000      0.00000000      0.00000000      0.00000000      0.00000000</v>
  </separator>
  <separator name="performance" >
   <i type="int" name="NPAR">     4</i>
   <i type="int" name="NSIM">     4</i>
   <i type="int" name="NBLK">    -1</i>
   <i type="logical" name="LPLANE"> T  </i>
   <i type="logical" name="LSCALAPACK"> T  </i>
   <i type="logical" name="LSCAAWARE"> F  </i>
   <i type="logical" name="LSCALU"> F  </i>
   <i type="logical" name="LASYNC"> F  </i>
   <i type="logical" name="LORBITALREAL"> F  </i>
  </separator>
  <separator name="miscellaneous" >
   <i type="int" name="IDIOT">     3</i>
   <i type="int" name="PHON_NSTRUCT">    -1</i>
   <i type="logical" name="LMUSIC"> F  </i>
   <v name="POMASS">      1.00000000     12.01100000     14.00100000    126.90400000    207.20000000</v>
   <v name="DARWINR">      0.00000000      0.00000000      0.00000000      0.00000000      0.00000000</v>
   <v name="DARWINV">      1.00000000      1.00000000      1.00000000      1.00000000      1.00000000</v>
   <i type="logical" name="LCORR"> T  </i>
  </separator>
  <i type="logical" name="GGA_COMPAT"> F  </i>
  <i type="logical" name="LBERRY"> F  </i>
  <i type="int" name="ICORELEVEL">     0</i>
  <i type="logical" name="LDAU"> F  </i>
  <i type="int" name="I_CONSTRAINED_M">     0</i>
  <separator name="electronic exchange-correlation" >
   <i type="string" name="GGA">--</i>
   <i type="int" name="VOSKOWN">     0</i>
   <i type="logical" name="LHFCALC"> F  </i>
   <i type="string" name="PRECFOCK"></i>
   <i type="logical" name="LSYMGRAD"> F  </i>
   <i type="logical" name="LHFONE"> F  </i>
   <i type="logical" name="LRHFCALC"> F  </i>
   <i type="logical" name="LTHOMAS"> F  </i>
   <i type="logical" name="LMODELHF"> F  </i>
   <i type="logical" name="LFOCKACE"> F  </i>
   <i name="ENCUT4O">     -1.00000000</i>
   <i type="int" name="EXXOEP">     0</i>
   <i type="int" name="FOURORBIT">     0</i>
   <i name="AEXX">      0.00000000</i>
   <i name="HFALPHA">      0.00000000</i>
   <i name="MCALPHA">      0.00000000</i>
   <i name="ALDAX">      1.00000000</i>
   <i name="AGGAX">      1.00000000</i>
   <i name="ALDAC">      1.00000000</i>
   <i name="AGGAC">      1.00000000</i>
   <i type="int" name="NKREDX">     1</i>
   <i type="int" name="NKREDY">     1</i>
   <i type="int" name="NKREDZ">     1</i>
   <i type="logical" name="SHIFTRED"> F  </i>
   <i type="logical" name="ODDONLY"> F  </i>
   <i type="logical" name="EVENONLY"> F  </i>
   <i type="int" name="LMAXFOCK">     0</i>
   <i type="int" name="NMAXFOCKAE">     0</i>
   <i type="logical" name="LFOCKAEDFT"> F  </i>
   <i name="HFSCREEN">      0.00000000</i>
   <i name="HFSCREENC">      0.00000000</i>
   <i type="int" name="NBANDSGWLOW">     0</i>
  </separator>
  <separator name="vdW DFT" >
   <i type="logical" name="LUSE_VDW"> F  </i>
   <i name="Zab_VDW">     -0.84910000</i>
   <i name="PARAM1">      0.12340000</i>
   <i name="PARAM2">      1.00000000</i>
   <i name="PARAM3">      0.00000000</i>
  </separator>
  <separator name="model GW" >
   <i type="int" name="MODEL_GW">     0</i>
   <i name="MODEL_EPS0">     37.63423484</i>
   <i name="MODEL_ALPHA">      1.00000000</i>
  </separator>
  <separator name="linear response parameters" >
   <i type="logical" name="LEPSILON"> F  </i>
   <i type="logical" name="LRPA"> F  </i>
   <i type="logical" name="LNABLA"> F  </i>
   <i type="logical" name="LVEL"> F  </i>
   <i type="int" name="KINTER">     0</i>
   <i name="CSHIFT">      0.10000000</i>
   <i name="OMEGAMAX">     -1.00000000</i>
   <i name="DEG_THRESHOLD">      0.00200000</i>
   <i name="RTIME">     -0.10000000</i>
   <i name="WPLASMAI">      0.00000000</i>
   <v name="DFIELD">      0.00000000      0.00000000      0.00000000</v>
   <v name="WPLASMA">      0.00000000      0.00000000      0.00000000      0.00000000      0.00000000      0.00000000      0.00000000      0.00000000      0.00000000</v>
  </separator>
  <separator name="orbital magnetization" >
   <i type="logical" name="NUCIND"> F  </i>
   <v name="MAGPOS">      0.00000000      0.00000000      0.00000000</v>
   <i type="logical" name="LNICSALL"> T  </i>
   <i type="logical" name="ORBITALMAG"> F  </i>
   <i type="logical" name="LMAGBLOCH"> F  </i>
   <i type="logical" name="LCHIMAG"> F  </i>
   <i type="logical" name="LGAUGE"> T  </i>
   <i type="int" name="MAGATOM">     0</i>
   <v name="MAGDIPOL">      0.00000000      0.00000000      0.00000000</v>
   <v name="AVECCONST">      0.00000000      0.00000000      0.00000000</v>
  </separator>
  <separator name="response functions" >
   <i type="logical" name="LFINITE_TEMPERATURE"> F  </i>
   <i type="logical" name="LADDER"> F  </i>
   <i type="logical" name="LRPAFORCE"> F  </i>
   <i type="logical" name="LFXC"> F  </i>
   <i type="logical" name="LHARTREE"> T  </i>
   <i type="int" name="IBSE">     0</i>
   <v type="int" name="KPOINT">    -1     0     0     0</v>
   <i type="logical" name="LTCTC"> F  </i>
   <i type="logical" name="LTCTE"> F  </i>
   <i type="logical" name="LTETE"> F  </i>
   <i type="logical" name="LTRIPLET"> F  </i>
   <i type="logical" name="LFXCEPS"> F  </i>
   <i type="logical" name="LFXHEG"> F  </i>
   <i type="int" name="NATURALO">     2</i>
   <i type="logical" name="LHOLEGF"> F  </i>
   <i type="logical" name="L2ORDER"> F  </i>
   <i type="logical" name="LDMP1"> F  </i>
   <i type="logical" name="LMP2LT"> F  </i>
   <i type="logical" name="LSMP2LT"> F  </i>
   <i type="logical" name="LGWLF"> F  </i>
   <i name="ENCUTGW">     -2.00000000</i>
   <i name="ENCUTGWSOFT">     -2.00000000</i>
   <i name="ENCUTLF">     -1.00000000</i>
   <i type="logical" name="LESF_SPLINES"> F  </i>
   <i type="int" name="LMAXMP2">    -1</i>
   <i name="SCISSOR">      0.00000000</i>
   <i type="int" name="NOMEGA">     0</i>
   <i type="int" name="NOMEGAR">     0</i>
   <i type="int" name="NBANDSGW">    -1</i>
   <i type="int" name="NBANDSO">    -1</i>
   <i type="int" name="NBANDSV">    -1</i>
   <i type="int" name="NELM">   600</i>
   <i type="int" name="NELMHF">     1</i>
   <i type="int" name="DIM">     3</i>
   <i type="int" name="IESPILON">     4</i>
   <i type="int" name="ANTIRES">     0</i>
   <i name="OMEGAMAX">    -30.00000000</i>
   <i name="OMEGAMIN">    -30.00000000</i>
   <i name="OMEGATL">   -200.00000000</i>
   <i type="int" name="OMEGAGRID">     0</i>
   <i name="CSHIFT">     -0.10000000</i>
   <i type="logical" name="LSELFENERGY"> F  </i>
   <i type="logical" name="LSPECTRAL"> F  </i>
   <i type="logical" name="LSPECTRALGW"> F  </i>
   <i type="logical" name="LSINGLES"> F  </i>
   <i type="logical" name="LFERMIGW"> F  </i>
   <i type="logical" name="ODDONLYGW"> F  </i>
   <i type="logical" name="EVENONLYGW"> F  </i>
   <i type="int" name="NKREDLFX">     1</i>
   <i type="int" name="NKREDLFY">     1</i>
   <i type="int" name="NKREDLFZ">     1</i>
   <i type="int" name="MAXMEM">  2800</i>
   <i type="int" name="TELESCOPE">     0</i>
   <i type="int" name="NTAUPAR">    -1</i>
   <i type="int" name="NOMEGAPAR">    -1</i>
   <i name="DAMP_NEWTON">      0.80000001</i>
   <i name="LAMBDA">      1.00000000</i>
  </separator>
  <separator name="External order field" >
   <i name="OFIELD_KAPPA">      0.00000000</i>
   <v name="OFIELD_K">      0.00000000      0.00000000      0.00000000</v>
   <i name="OFIELD_Q6_NEAR">      0.00000000</i>
   <i name="OFIELD_Q6_FAR">      0.00000000</i>
   <i name="OFIELD_A">      0.00000000</i>
  </separator>
 </parameters>
 <atominfo>
  <atoms>     325 </atoms>
  <types>       5 </types>
  <array name="atoms" >
   <dimension dim="1">ion</dimension>
   <field type="string">element</field>
   <field type="int">atomtype</field>
   <set>
    <rc><c>H </c><c>   1</c></rc>
    <rc><c>H </c><c>   1</c></rc>
    <rc><c>H </c><c>   1</c></rc>
    <rc><c>H </c><c>   1</c></rc>
    <rc><c>H </c><c>   1</c></rc>
    <rc><c>H </c><c>   1</c></rc>
    <rc><c>H </c><c>   1</c></rc>
    <rc><c>H </c><c>   1</c></rc>
    <rc><c>H </c><c>   1</c></rc>
    <rc><c>H </c><c>   1</c></rc>
    <rc><c>H </c><c>   1</c></rc>
    <rc><c>H </c><c>   1</c></rc>
    <rc><c>H </c><c>   1</c></rc>
    <rc><c>H </c><c>   1</c></rc>
    <rc><c>H </c><c>   1</c></rc>
    <rc><c>H </c><c>   1</c></rc>
    <rc><c>H </c><c>   1</c></rc>
    <rc><c>H </c><c>   1</c></rc>
    <rc><c>H </c><c>   1</c></rc>
    <rc><c>H </c><c>   1</c></rc>
    <rc><c>H </c><c>   1</c></rc>
    <rc><c>H </c><c>   1</c></rc>
    <rc><c>H </c><c>   1</c></rc>
    <rc><c>H </c><c>   1</c></rc>
    <rc><c>H </c><c>   1</c></rc>
    <rc><c>H </c><c>   1</c></rc>
    <rc><c>H </c><c>   1</c></rc>
    <rc><c>H </c><c>   1</c></rc>
    <rc><c>H </c><c>   1</c></rc>
    <rc><c>H </c><c>   1</c></rc>
    <rc><c>H </c><c>   1</c></rc>
    <rc><c>H </c><c>   1</c></rc>
    <rc><c>H </c><c>   1</c></rc>
    <rc><c>H </c><c>   1</c></rc>
    <rc><c>H </c><c>   1</c></rc>
    <rc><c>H </c><c>   1</c></rc>
    <rc><c>H </c><c>   1</c></rc>
    <rc><c>H </c><c>   1</c></rc>
    <rc><c>H </c><c>   1</c></rc>
    <rc><c>H </c><c>   1</c></rc>
    <rc><c>H </c><c>   1</c></rc>
    <rc><c>H </c><c>   1</c></rc>
    <rc><c>H </c><c>   1</c></rc>
    <rc><c>H </c><c>   1</c></rc>
    <rc><c>H </c><c>   1</c></rc>
    <rc><c>H </c><c>   1</c></rc>
    <rc><c>H </c><c>   1</c></rc>
    <rc><c>H </c><c>   1</c></rc>
    <rc><c>H </c><c>   1</c></rc>
    <rc><c>H </c><c>   1</c></rc>
    <rc><c>H </c><c>   1</c></rc>
    <rc><c>H </c><c>   1</c></rc>
    <rc><c>H </c><c>   1</c></rc>
    <rc><c>H </c><c>   1</c></rc>
    <rc><c>H </c><c>   1</c></rc>
    <rc><c>H </c><c>   1</c></rc>
    <rc><c>H </c><c>   1</c></rc>
    <rc><c>H </c><c>   1</c></rc>
    <rc><c>H </c><c>   1</c></rc>
    <rc><c>H </c><c>   1</c></rc>
    <rc><c>H </c><c>   1</c></rc>
    <rc><c>H </c><c>   1</c></rc>
    <rc><c>H </c><c>   1</c></rc>
    <rc><c>H </c><c>   1</c></rc>
    <rc><c>H </c><c>   1</c></rc>
    <rc><c>H </c><c>   1</c></rc>
    <rc><c>H </c><c>   1</c></rc>
    <rc><c>H </c><c>   1</c></rc>
    <rc><c>H </c><c>   1</c></rc>
    <rc><c>H </c><c>   1</c></rc>
    <rc><c>H </c><c>   1</c></rc>
    <rc><c>H </c><c>   1</c></rc>
    <rc><c>H </c><c>   1</c></rc>
    <rc><c>H </c><c>   1</c></rc>
    <rc><c>H </c><c>   1</c></rc>
    <rc><c>H </c><c>   1</c></rc>
    <rc><c>H </c><c>   1</c></rc>
    <rc><c>H </c><c>   1</c></rc>
    <rc><c>H </c><c>   1</c></rc>
    <rc><c>H </c><c>   1</c></rc>
    <rc><c>H </c><c>   1</c></rc>
    <rc><c>H </c><c>   1</c></rc>
    <rc><c>H </c><c>   1</c></rc>
    <rc><c>H </c><c>   1</c></rc>
    <rc><c>H </c><c>   1</c></rc>
    <rc><c>H </c><c>   1</c></rc>
    <rc><c>H </c><c>   1</c></rc>
    <rc><c>H </c><c>   1</c></rc>
    <rc><c>H </c><c>   1</c></rc>
    <rc><c>H </c><c>   1</c></rc>
    <rc><c>H </c><c>   1</c></rc>
    <rc><c>H </c><c>   1</c></rc>
    <rc><c>H </c><c>   1</c></rc>
    <rc><c>H </c><c>   1</c></rc>
    <rc><c>H </c><c>   1</c></rc>
    <rc><c>H </c><c>   1</c></rc>
    <rc><c>H </c><c>   1</c></rc>
    <rc><c>H </c><c>   1</c></rc>
    <rc><c>H </c><c>   1</c></rc>
    <rc><c>H </c><c>   1</c></rc>
    <rc><c>H </c><c>   1</c></rc>
    <rc><c>H </c><c>   1</c></rc>
    <rc><c>H </c><c>   1</c></rc>
    <rc><c>H </c><c>   1</c></rc>
    <rc><c>H </c><c>   1</c></rc>
    <rc><c>H </c><c>   1</c></rc>
    <rc><c>H </c><c>   1</c></rc>
    <rc><c>H </c><c>   1</c></rc>
    <rc><c>H </c><c>   1</c></rc>
    <rc><c>H </c><c>   1</c></rc>
    <rc><c>H </c><c>   1</c></rc>
    <rc><c>H </c><c>   1</c></rc>
    <rc><c>H </c><c>   1</c></rc>
    <rc><c>H </c><c>   1</c></rc>
    <rc><c>H </c><c>   1</c></rc>
    <rc><c>H </c><c>   1</c></rc>
    <rc><c>H </c><c>   1</c></rc>
    <rc><c>H </c><c>   1</c></rc>
    <rc><c>H </c><c>   1</c></rc>
    <rc><c>H </c><c>   1</c></rc>
    <rc><c>H </c><c>   1</c></rc>
    <rc><c>H </c><c>   1</c></rc>
    <rc><c>H </c><c>   1</c></rc>
    <rc><c>H </c><c>   1</c></rc>
    <rc><c>H </c><c>   1</c></rc>
    <rc><c>H </c><c>   1</c></rc>
    <rc><c>H </c><c>   1</c></rc>
    <rc><c>H </c><c>   1</c></rc>
    <rc><c>H </c><c>   1</c></rc>
    <rc><c>H </c><c>   1</c></rc>
    <rc><c>H </c><c>   1</c></rc>
    <rc><c>H </c><c>   1</c></rc>
    <rc><c>H </c><c>   1</c></rc>
    <rc><c>H </c><c>   1</c></rc>
    <rc><c>H </c><c>   1</c></rc>
    <rc><c>H </c><c>   1</c></rc>
    <rc><c>H </c><c>   1</c></rc>
    <rc><c>H </c><c>   1</c></rc>
    <rc><c>H </c><c>   1</c></rc>
    <rc><c>H </c><c>   1</c></rc>
    <rc><c>H </c><c>   1</c></rc>
    <rc><c>H </c><c>   1</c></rc>
    <rc><c>H </c><c>   1</c></rc>
    <rc><c>C </c><c>   2</c></rc>
    <rc><c>C </c><c>   2</c></rc>
    <rc><c>C </c><c>   2</c></rc>
    <rc><c>C </c><c>   2</c></rc>
    <rc><c>C </c><c>   2</c></rc>
    <rc><c>C </c><c>   2</c></rc>
    <rc><c>C </c><c>   2</c></rc>
    <rc><c>C </c><c>   2</c></rc>
    <rc><c>C </c><c>   2</c></rc>
    <rc><c>C </c><c>   2</c></rc>
    <rc><c>C </c><c>   2</c></rc>
    <rc><c>C </c><c>   2</c></rc>
    <rc><c>C </c><c>   2</c></rc>
    <rc><c>C </c><c>   2</c></rc>
    <rc><c>C </c><c>   2</c></rc>
    <rc><c>C </c><c>   2</c></rc>
    <rc><c>C </c><c>   2</c></rc>
    <rc><c>C </c><c>   2</c></rc>
    <rc><c>C </c><c>   2</c></rc>
    <rc><c>C </c><c>   2</c></rc>
    <rc><c>C </c><c>   2</c></rc>
    <rc><c>C </c><c>   2</c></rc>
    <rc><c>C </c><c>   2</c></rc>
    <rc><c>C </c><c>   2</c></rc>
    <rc><c>C </c><c>   2</c></rc>
    <rc><c>C </c><c>   2</c></rc>
    <rc><c>C </c><c>   2</c></rc>
    <rc><c>C </c><c>   2</c></rc>
    <rc><c>C </c><c>   2</c></rc>
    <rc><c>C </c><c>   2</c></rc>
    <rc><c>C </c><c>   2</c></rc>
    <rc><c>C </c><c>   2</c></rc>
    <rc><c>C </c><c>   2</c></rc>
    <rc><c>C </c><c>   2</c></rc>
    <rc><c>C </c><c>   2</c></rc>
    <rc><c>C </c><c>   2</c></rc>
    <rc><c>C </c><c>   2</c></rc>
    <rc><c>C </c><c>   2</c></rc>
    <rc><c>C </c><c>   2</c></rc>
    <rc><c>N </c><c>   3</c></rc>
    <rc><c>N </c><c>   3</c></rc>
    <rc><c>N </c><c>   3</c></rc>
    <rc><c>N </c><c>   3</c></rc>
    <rc><c>N </c><c>   3</c></rc>
    <rc><c>N </c><c>   3</c></rc>
    <rc><c>N </c><c>   3</c></rc>
    <rc><c>N </c><c>   3</c></rc>
    <rc><c>N </c><c>   3</c></rc>
    <rc><c>N </c><c>   3</c></rc>
    <rc><c>N </c><c>   3</c></rc>
    <rc><c>N </c><c>   3</c></rc>
    <rc><c>N </c><c>   3</c></rc>
    <rc><c>N </c><c>   3</c></rc>
    <rc><c>N </c><c>   3</c></rc>
    <rc><c>N </c><c>   3</c></rc>
    <rc><c>N </c><c>   3</c></rc>
    <rc><c>N </c><c>   3</c></rc>
    <rc><c>N </c><c>   3</c></rc>
    <rc><c>N </c><c>   3</c></rc>
    <rc><c>N </c><c>   3</c></rc>
    <rc><c>N </c><c>   3</c></rc>
    <rc><c>N </c><c>   3</c></rc>
    <rc><c>N </c><c>   3</c></rc>
    <rc><c>N </c><c>   3</c></rc>
    <rc><c>N </c><c>   3</c></rc>
    <rc><c>N </c><c>   3</c></rc>
    <rc><c>N </c><c>   3</c></rc>
    <rc><c>N </c><c>   3</c></rc>
    <rc><c>N </c><c>   3</c></rc>
    <rc><c>N </c><c>   3</c></rc>
    <rc><c>N </c><c>   3</c></rc>
    <rc><c>N </c><c>   3</c></rc>
    <rc><c>N </c><c>   3</c></rc>
    <rc><c>N </c><c>   3</c></rc>
    <rc><c>N </c><c>   3</c></rc>
    <rc><c>N </c><c>   3</c></rc>
    <rc><c>N </c><c>   3</c></rc>
    <rc><c>N </c><c>   3</c></rc>
    <rc><c>N </c><c>   3</c></rc>
    <rc><c>N </c><c>   3</c></rc>
    <rc><c>N </c><c>   3</c></rc>
    <rc><c>N </c><c>   3</c></rc>
    <rc><c>N </c><c>   3</c></rc>
    <rc><c>N </c><c>   3</c></rc>
    <rc><c>N </c><c>   3</c></rc>
    <rc><c>N </c><c>   3</c></rc>
    <rc><c>I </c><c>   4</c></rc>
    <rc><c>I </c><c>   4</c></rc>
    <rc><c>I </c><c>   4</c></rc>
    <rc><c>I </c><c>   4</c></rc>
    <rc><c>I </c><c>   4</c></rc>
    <rc><c>I </c><c>   4</c></rc>
    <rc><c>I </c><c>   4</c></rc>
    <rc><c>I </c><c>   4</c></rc>
    <rc><c>I </c><c>   4</c></rc>
    <rc><c>I </c><c>   4</c></rc>
    <rc><c>I </c><c>   4</c></rc>
    <rc><c>I </c><c>   4</c></rc>
    <rc><c>I </c><c>   4</c></rc>
    <rc><c>I </c><c>   4</c></rc>
    <rc><c>I </c><c>   4</c></rc>
    <rc><c>I </c><c>   4</c></rc>
    <rc><c>I </c><c>   4</c></rc>
    <rc><c>I </c><c>   4</c></rc>
    <rc><c>I </c><c>   4</c></rc>
    <rc><c>I </c><c>   4</c></rc>
    <rc><c>I </c><c>   4</c></rc>
    <rc><c>I </c><c>   4</c></rc>
    <rc><c>I </c><c>   4</c></rc>
    <rc><c>I </c><c>   4</c></rc>
    <rc><c>I </c><c>   4</c></rc>
    <rc><c>I </c><c>   4</c></rc>
    <rc><c>I </c><c>   4</c></rc>
    <rc><c>I </c><c>   4</c></rc>
    <rc><c>I </c><c>   4</c></rc>
    <rc><c>I </c><c>   4</c></rc>
    <rc><c>I </c><c>   4</c></rc>
    <rc><c>I </c><c>   4</c></rc>
    <rc><c>I </c><c>   4</c></rc>
    <rc><c>I </c><c>   4</c></rc>
    <rc><c>I </c><c>   4</c></rc>
    <rc><c>I </c><c>   4</c></rc>
    <rc><c>I </c><c>   4</c></rc>
    <rc><c>I </c><c>   4</c></rc>
    <rc><c>I </c><c>   4</c></rc>
    <rc><c>I </c><c>   4</c></rc>
    <rc><c>I </c><c>   4</c></rc>
    <rc><c>I </c><c>   4</c></rc>
    <rc><c>I </c><c>   4</c></rc>
    <rc><c>I </c><c>   4</c></rc>
    <rc><c>I </c><c>   4</c></rc>
    <rc><c>I </c><c>   4</c></rc>
    <rc><c>I </c><c>   4</c></rc>
    <rc><c>I </c><c>   4</c></rc>
    <rc><c>I </c><c>   4</c></rc>
    <rc><c>I </c><c>   4</c></rc>
    <rc><c>I </c><c>   4</c></rc>
    <rc><c>I </c><c>   4</c></rc>
    <rc><c>I </c><c>   4</c></rc>
    <rc><c>I </c><c>   4</c></rc>
    <rc><c>I </c><c>   4</c></rc>
    <rc><c>I </c><c>   4</c></rc>
    <rc><c>I </c><c>   4</c></rc>
    <rc><c>I </c><c>   4</c></rc>
    <rc><c>I </c><c>   4</c></rc>
    <rc><c>I </c><c>   4</c></rc>
    <rc><c>I </c><c>   4</c></rc>
    <rc><c>I </c><c>   4</c></rc>
    <rc><c>I </c><c>   4</c></rc>
    <rc><c>I </c><c>   4</c></rc>
    <rc><c>I </c><c>   4</c></rc>
    <rc><c>I </c><c>   4</c></rc>
    <rc><c>I </c><c>   4</c></rc>
    <rc><c>I </c><c>   4</c></rc>
    <rc><c>I </c><c>   4</c></rc>
    <rc><c>I </c><c>   4</c></rc>
    <rc><c>I </c><c>   4</c></rc>
    <rc><c>I </c><c>   4</c></rc>
    <rc><c>Pb</c><c>   5</c></rc>
    <rc><c>Pb</c><c>   5</c></rc>
    <rc><c>Pb</c><c>   5</c></rc>
    <rc><c>Pb</c><c>   5</c></rc>
    <rc><c>Pb</c><c>   5</c></rc>
    <rc><c>Pb</c><c>   5</c></rc>
    <rc><c>Pb</c><c>   5</c></rc>
    <rc><c>Pb</c><c>   5</c></rc>
    <rc><c>Pb</c><c>   5</c></rc>
    <rc><c>Pb</c><c>   5</c></rc>
    <rc><c>Pb</c><c>   5</c></rc>
    <rc><c>Pb</c><c>   5</c></rc>
    <rc><c>Pb</c><c>   5</c></rc>
    <rc><c>Pb</c><c>   5</c></rc>
    <rc><c>Pb</c><c>   5</c></rc>
    <rc><c>Pb</c><c>   5</c></rc>
    <rc><c>Pb</c><c>   5</c></rc>
    <rc><c>Pb</c><c>   5</c></rc>
    <rc><c>Pb</c><c>   5</c></rc>
    <rc><c>Pb</c><c>   5</c></rc>
    <rc><c>Pb</c><c>   5</c></rc>
    <rc><c>Pb</c><c>   5</c></rc>
    <rc><c>Pb</c><c>   5</c></rc>
    <rc><c>Pb</c><c>   5</c></rc>
   </set>
  </array>
  <array name="atomtypes" >
   <dimension dim="1">type</dimension>
   <field type="int">atomspertype</field>
   <field type="string">element</field>
   <field>mass</field>
   <field>valence</field>
   <field type="string">pseudopotential</field>
   <set>
    <rc><c> 143</c><c>H </c><c>      1.00000000</c><c>      1.00000000</c><c>  PAW_PBE H 15Jun2001                   </c></rc>
    <rc><c>  39</c><c>C </c><c>     12.01100000</c><c>      4.00000000</c><c>  PAW_PBE C 08Apr2002                   </c></rc>
    <rc><c>  47</c><c>N </c><c>     14.00100000</c><c>      5.00000000</c><c>  PAW_PBE N 08Apr2002                   </c></rc>
    <rc><c>  72</c><c>I </c><c>    126.90400000</c><c>      7.00000000</c><c>  PAW_PBE I 08Apr2002                   </c></rc>
    <rc><c>  24</c><c>Pb</c><c>    207.20000000</c><c>      4.00000000</c><c>  PAW_PBE Pb 08Apr2002                  </c></rc>
   </set>
  </array>
 </atominfo>
 <structure name="initialpos" >
  <crystal>
   <varray name="basis" >
    <v>      18.06080055       0.00000000       0.00000000 </v>
    <v>      -0.00491865      18.06279945       0.00000000 </v>
    <v>       0.00000000       0.00000000      62.48749924 </v>
   </varray>
   <i name="volume">  20385.21054034 </i>
   <varray name="rec_basis" >
    <v>       0.05536853       0.00001508      -0.00000000 </v>
    <v>       0.00000000       0.05536240       0.00000000 </v>
    <v>       0.00000000      -0.00000000       0.01600320 </v>
   </varray>
  </crystal>
  <varray name="positions" >
   <v>       0.45644213       0.30512339       0.58106581 </v>
   <v>       0.44594469       0.80733897       0.58101367 </v>
   <v>       0.95519456       0.30463670       0.57786949 </v>
   <v>       0.96472419       0.81092382       0.58155199 </v>
   <v>       0.30943887       0.04527823       0.58022109 </v>
   <v>       0.30176607       0.55175838       0.58139693 </v>
   <v>       0.79143138       0.05197395       0.58178165 </v>
   <v>       0.07772964       0.15925083       0.56037398 </v>
   <v>       0.07498617       0.66644613       0.55781067 </v>
   <v>       0.58482598       0.18103489       0.55678208 </v>
   <v>       0.56869903       0.67001937       0.55894059 </v>
   <v>       0.33202864       0.07209945       0.55475305 </v>
   <v>       0.32594688       0.58008519       0.55617875 </v>
   <v>       0.82359430       0.08033116       0.55726844 </v>
   <v>       0.04153908       0.19778477       0.58234023 </v>
   <v>       0.05392441       0.70672186       0.58160064 </v>
   <v>       0.55965305       0.21863985       0.58094762 </v>
   <v>       0.53664117       0.70108153       0.58303867 </v>
   <v>       0.20110385       0.44918802       0.58226093 </v>
   <v>       0.20065316       0.95164652       0.58223566 </v>
   <v>       0.69944454       0.94203092       0.58035589 </v>
   <v>       0.41312614       0.32462274       0.55649760 </v>
   <v>       0.42719048       0.84040986       0.55559196 </v>
   <v>       0.93754440       0.32540085       0.55062154 </v>
   <v>       0.92800407       0.83534566       0.55711100 </v>
   <v>       0.17061720       0.42152387       0.55751330 </v>
   <v>       0.16387834       0.92753779       0.55787898 </v>
   <v>       0.68126602       0.91002317       0.55504107 </v>
   <v>       0.49390076       0.24832887       0.53801075 </v>
   <v>       0.50282593       0.75418530       0.53881816 </v>
   <v>       0.01373378       0.23847334       0.53731920 </v>
   <v>       0.99880677       0.75045467       0.53837379 </v>
   <v>       0.24669587       0.50189438       0.53890039 </v>
   <v>       0.24213017       0.00015082       0.53846182 </v>
   <v>       0.75826088       0.99439641       0.53829846 </v>
   <v>       0.44954543       0.30365458       0.67520805 </v>
   <v>       0.45328743       0.78963912       0.67514615 </v>
   <v>       0.94306474       0.30630078       0.67076984 </v>
   <v>       0.94707937       0.80219758       0.67441242 </v>
   <v>       0.29903652       0.05169177       0.67528326 </v>
   <v>       0.29994837       0.54750611       0.67486362 </v>
   <v>       0.80152125       0.05431612       0.67482577 </v>
   <v>       0.80383047       0.55715024       0.67493846 </v>
   <v>       0.07619714       0.17220583       0.65128841 </v>
   <v>       0.07590111       0.66897366       0.65016471 </v>
   <v>       0.57774855       0.17187967       0.64987858 </v>
   <v>       0.57896418       0.67264981       0.64485432 </v>
   <v>       0.16381370       0.42452843       0.64964153 </v>
   <v>       0.17225771       0.92018894       0.64920480 </v>
   <v>       0.67387702       0.41748638       0.65143230 </v>
   <v>       0.66986325       0.92496725       0.64987254 </v>
   <v>       0.04239191       0.20601550       0.67574050 </v>
   <v>       0.04858929       0.69864528       0.67554576 </v>
   <v>       0.55250471       0.20116867       0.67522178 </v>
   <v>       0.55548546       0.69459776       0.67119302 </v>
   <v>       0.19511312       0.45109745       0.67486453 </v>
   <v>       0.19981881       0.94900547       0.67468548 </v>
   <v>       0.70218984       0.45559534       0.67591644 </v>
   <v>       0.69905059       0.95490473       0.67510085 </v>
   <v>       0.42030778       0.33272436       0.64989836 </v>
   <v>       0.41637517       0.82371090       0.65123975 </v>
   <v>       0.92018944       0.32947900       0.64469584 </v>
   <v>       0.91842560       0.83010613       0.64955540 </v>
   <v>       0.32870569       0.08209015       0.65013986 </v>
   <v>       0.32924396       0.57658507       0.64955765 </v>
   <v>       0.83149340       0.08171577       0.64943122 </v>
   <v>       0.83336361       0.57657103       0.64916958 </v>
   <v>       0.00327822       0.24582455       0.63005113 </v>
   <v>       0.99423606       0.74702567       0.63136804 </v>
   <v>       0.49823407       0.25160743       0.63213883 </v>
   <v>       0.49607492       0.74944755       0.63002628 </v>
   <v>       0.25056397       0.00098672       0.63189891 </v>
   <v>       0.24509304       0.49914304       0.63178347 </v>
   <v>       0.75124384       0.00473081       0.63187303 </v>
   <v>       0.76143476       0.49429283       0.63315881 </v>
   <v>       0.44874502       0.30128397       0.76888902 </v>
   <v>       0.44874501       0.80128391       0.76888902 </v>
   <v>       0.94874497       0.30128397       0.76888902 </v>
   <v>       0.94874501       0.80128391       0.76888902 </v>
   <v>       0.30127600       0.05129450       0.76887296 </v>
   <v>       0.30127601       0.55129450       0.76887296 </v>
   <v>       0.80127594       0.05129450       0.76887296 </v>
   <v>       0.80127598       0.55129450       0.76887296 </v>
   <v>       0.07877100       0.17118050       0.74344197 </v>
   <v>       0.07877101       0.67118045       0.74344197 </v>
   <v>       0.57877100       0.17118050       0.74344197 </v>
   <v>       0.57877099       0.67118045       0.74344197 </v>
   <v>       0.17119950       0.42117448       0.74342103 </v>
   <v>       0.17119950       0.92117451       0.74342103 </v>
   <v>       0.67119951       0.42117448       0.74342103 </v>
   <v>       0.67119950       0.92117451       0.74342103 </v>
   <v>       0.05125600       0.19871499       0.76888902 </v>
   <v>       0.05125600       0.69871493       0.76888902 </v>
   <v>       0.55125603       0.19871499       0.76888902 </v>
   <v>       0.55125602       0.69871493       0.76888902 </v>
   <v>       0.19872349       0.44870397       0.76887205 </v>
   <v>       0.19872349       0.94870397       0.76887205 </v>
   <v>       0.69872352       0.44870397       0.76887205 </v>
   <v>       0.69872351       0.94870397       0.76887205 </v>
   <v>       0.42123152       0.32881747       0.74344197 </v>
   <v>       0.42123151       0.82881744       0.74344197 </v>
   <v>       0.92123147       0.32881747       0.74344197 </v>
   <v>       0.92123151       0.82881744       0.74344197 </v>
   <v>       0.32880050       0.07882500       0.74342103 </v>
   <v>       0.32880049       0.57882496       0.74342103 </v>
   <v>       0.82880048       0.07882500       0.74342103 </v>
   <v>       0.82880052       0.57882496       0.74342103 </v>
   <v>       0.00000350       0.25000148       0.72582199 </v>
   <v>       0.00000350       0.75000145       0.72582199 </v>
   <v>       0.50000351       0.25000148       0.72582199 </v>
   <v>       0.50000350       0.75000145       0.72582199 </v>
   <v>       0.25000050       0.00000000       0.72580398 </v>
   <v>       0.25000052       0.50000000       0.72580398 </v>
   <v>       0.75000050       0.00000000       0.72580398 </v>
   <v>       0.75000049       0.50000000       0.72580398 </v>
   <v>       0.79364627       0.56904889       0.53287361 </v>
   <v>       0.74089674       0.48761461       0.53283790 </v>
   <v>       0.87360297       0.50616714       0.55451814 </v>
   <v>       0.84766794       0.47907680       0.58003148 </v>
   <v>       0.74910020       0.63866884       0.57187299 </v>
   <v>       0.80482486       0.58502806       0.58912186 </v>
   <v>       0.66131509       0.53820056       0.57544047 </v>
   <v>       0.68122636       0.45272810       0.56352561 </v>
   <v>       0.62780042       0.55896537       0.54416353 </v>
   <v>       0.68554050       0.63761869       0.54746588 </v>
   <v>       0.63669708       0.66677960       0.51448480 </v>
   <v>       0.70858224       0.61326300       0.50402809 </v>
   <v>       0.81234175       0.39673641       0.53757939 </v>
   <v>       0.75873370       0.38279974       0.56096504 </v>
   <v>       0.85125609       0.36753862       0.56311318 </v>
   <v>       0.87076870       0.68305254       0.56715512 </v>
   <v>       0.85876669       0.63138698       0.54330862 </v>
   <v>       0.91506684       0.59706921       0.56535917 </v>
   <v>       0.77258468       0.49692596       0.60100076 </v>
   <v>       0.73796366       0.40926490       0.59382171 </v>
   <v>       0.68289789       0.47531628       0.60688689 </v>
   <v>       0.55297607       0.55419658       0.51419946 </v>
   <v>       0.58831528       0.57652272       0.48879695 </v>
   <v>       0.71228502       0.50441510       0.47936367 </v>
   <v>       0.56945003       0.43626549       0.52942785 </v>
   <v>       0.76901904       0.38030077       0.47924994 </v>
   <v>       0.62400766       0.31587490       0.53036224 </v>
   <v>       0.72666200       0.28630309       0.50460047 </v>
   <v>       0.00629407       0.24388420       0.55454237 </v>
   <v>       0.00173400       0.75318742       0.55625451 </v>
   <v>       0.50023008       0.25134283       0.55560063 </v>
   <v>       0.49856334       0.75390843       0.55618919 </v>
   <v>       0.24744384       0.50007064       0.55595165 </v>
   <v>       0.24694608       0.99921462       0.55545729 </v>
   <v>       0.75329296       0.99592427       0.55529863 </v>
   <v>       0.99846265       0.25056990       0.64787079 </v>
   <v>       0.99787582       0.74871593       0.64926011 </v>
   <v>       0.49978620       0.25149378       0.64997552 </v>
   <v>       0.49778369       0.74808109       0.64790065 </v>
   <v>       0.24732658       0.50127765       0.64960295 </v>
   <v>       0.24971855       0.00035670       0.64978365 </v>
   <v>       0.75467370       0.49801660       0.65004084 </v>
   <v>       0.74991055       0.00262230       0.64976424 </v>
   <v>       0.49998898       0.24999498       0.74327702 </v>
   <v>       0.49998903       0.74999496       0.74327702 </v>
   <v>       0.99998898       0.24999498       0.74327702 </v>
   <v>       0.99998903       0.74999496       0.74327702 </v>
   <v>       0.25000050       0.00000100       0.74325596 </v>
   <v>       0.25000052       0.50000100       0.74325596 </v>
   <v>       0.75000050       0.00000100       0.74325596 </v>
   <v>       0.75000049       0.50000100       0.74325596 </v>
   <v>       0.63305548       0.48045387       0.50312788 </v>
   <v>       0.69133864       0.46310006       0.48970195 </v>
   <v>       0.61025342       0.42573718       0.51741495 </v>
   <v>       0.72475749       0.39121820       0.48964231 </v>
   <v>       0.64317421       0.35494869       0.51816632 </v>
   <v>       0.70052767       0.33766966       0.50450038 </v>
   <v>       0.74787079       0.54215934       0.53972477 </v>
   <v>       0.82902839       0.48139884       0.56349088 </v>
   <v>       0.79531851       0.60064673       0.57253175 </v>
   <v>       0.70159080       0.49543501       0.57465394 </v>
   <v>       0.67507014       0.58896291       0.53824608 </v>
   <v>       0.66081404       0.60820477       0.51412541 </v>
   <v>       0.80999118       0.40323269       0.55492459 </v>
   <v>       0.86364909       0.62779478       0.56076316 </v>
   <v>       0.72510002       0.46895432       0.59518594 </v>
   <v>       0.60223863       0.55640516       0.50469582 </v>
   <v>       0.04580873       0.19685354       0.56674244 </v>
   <v>       0.04628345       0.70374274       0.56593528 </v>
   <v>       0.55266470       0.21552637       0.56525655 </v>
   <v>       0.53474454       0.70541939       0.56706343 </v>
   <v>       0.45222219       0.29703827       0.56544543 </v>
   <v>       0.45293783       0.80403114       0.56532560 </v>
   <v>       0.96308603       0.29484724       0.56237121 </v>
   <v>       0.96206087       0.80427005       0.56586330 </v>
   <v>       0.20364641       0.45396141       0.56559353 </v>
   <v>       0.20078669       0.95676383       0.56556661 </v>
   <v>       0.70796776       0.94569214       0.56384050 </v>
   <v>       0.29990373       0.04204659       0.56372573 </v>
   <v>       0.29522977       0.54743852       0.56480273 </v>
   <v>       0.79207087       0.04591042       0.56514178 </v>
   <v>       0.03975475       0.20885871       0.65958017 </v>
   <v>       0.04198890       0.70539721       0.65882275 </v>
   <v>       0.54380422       0.20682741       0.65905192 </v>
   <v>       0.54886265       0.70069737       0.65505118 </v>
   <v>       0.20111384       0.45499344       0.65913269 </v>
   <v>       0.20572623       0.95495851       0.65896090 </v>
   <v>       0.70855261       0.45580167       0.66006592 </v>
   <v>       0.70468616       0.95938869       0.65932682 </v>
   <v>       0.45313699       0.29947586       0.65946601 </v>
   <v>       0.45290183       0.78991150       0.65932841 </v>
   <v>       0.94915515       0.30021135       0.65515777 </v>
   <v>       0.95180633       0.79775851       0.65840275 </v>
   <v>       0.29584581       0.04819425       0.65951820 </v>
   <v>       0.29379932       0.54316978       0.65910534 </v>
   <v>       0.79779759       0.04964764       0.65909716 </v>
   <v>       0.80093792       0.54794306       0.65909051 </v>
   <v>       0.04586250       0.20411950       0.75272599 </v>
   <v>       0.04586250       0.70411946       0.75272599 </v>
   <v>       0.54586251       0.20411950       0.75272599 </v>
   <v>       0.54586250       0.70411946       0.75272599 </v>
   <v>       0.20411900       0.45410100       0.75270499 </v>
   <v>       0.20411899       0.95410095       0.75270499 </v>
   <v>       0.70411898       0.45410100       0.75270499 </v>
   <v>       0.70411896       0.95410095       0.75270499 </v>
   <v>       0.45414002       0.29588849       0.75272697 </v>
   <v>       0.45414001       0.79588852       0.75272697 </v>
   <v>       0.95414002       0.29588849       0.75272697 </v>
[...]
   <v>       0.58482598       0.18103489       0.55678208 </v>
   <v>       0.56869903       0.67001937       0.55894059 </v>
   <v>       0.33202864       0.07209945       0.55475305 </v>
   <v>       0.32594688       0.58008519       0.55617875 </v>
   <v>       0.82359430       0.08033116       0.55726844 </v>
   <v>       0.04153908       0.19778477       0.58234023 </v>
   <v>       0.05392441       0.70672186       0.58160064 </v>
   <v>       0.55965305       0.21863985       0.58094762 </v>
   <v>       0.53664117       0.70108153       0.58303867 </v>
   <v>       0.20110385       0.44918802       0.58226093 </v>
   <v>       0.20065316       0.95164652       0.58223566 </v>
   <v>       0.69944454       0.94203092       0.58035589 </v>
   <v>       0.41312614       0.32462274       0.55649760 </v>
   <v>       0.42719048       0.84040986       0.55559196 </v>
   <v>       0.93754440       0.32540085       0.55062154 </v>
   <v>       0.92800407       0.83534566       0.55711100 </v>
   <v>       0.17061720       0.42152387       0.55751330 </v>
   <v>       0.16387834       0.92753779       0.55787898 </v>
   <v>       0.68126602       0.91002317       0.55504107 </v>
   <v>       0.49390076       0.24832887       0.53801075 </v>
   <v>       0.50282593       0.75418530       0.53881816 </v>
   <v>       0.01373378       0.23847334       0.53731920 </v>
   <v>       0.99880677       0.75045467       0.53837379 </v>
   <v>       0.24669587       0.50189438       0.53890039 </v>
   <v>       0.24213017       0.00015082       0.53846182 </v>
   <v>       0.75826088       0.99439641       0.53829846 </v>
   <v>       0.44954543       0.30365458       0.67520805 </v>
   <v>       0.45328743       0.78963912       0.67514615 </v>
   <v>       0.94306474       0.30630078       0.67076984 </v>
   <v>       0.94707937       0.80219758       0.67441242 </v>
   <v>       0.29903652       0.05169177       0.67528326 </v>
   <v>       0.29994837       0.54750611       0.67486362 </v>
   <v>       0.80152125       0.05431612       0.67482577 </v>
   <v>       0.80383047       0.55715024       0.67493846 </v>
   <v>       0.07619714       0.17220583       0.65128841 </v>
   <v>       0.07590111       0.66897366       0.65016471 </v>
   <v>       0.57774855       0.17187967       0.64987858 </v>
   <v>       0.57896418       0.67264981       0.64485432 </v>
   <v>       0.16381370       0.42452843       0.64964153 </v>
   <v>       0.17225771       0.92018894       0.64920480 </v>
   <v>       0.67387702       0.41748638       0.65143230 </v>
   <v>       0.66986325       0.92496725       0.64987254 </v>
   <v>       0.04239191       0.20601550       0.67574050 </v>
   <v>       0.04858929       0.69864528       0.67554576 </v>
   <v>       0.55250471       0.20116867       0.67522178 </v>
   <v>       0.55548546       0.69459776       0.67119302 </v>
   <v>       0.19511312       0.45109745       0.67486453 </v>
   <v>       0.19981881       0.94900547       0.67468548 </v>
   <v>       0.70218984       0.45559534       0.67591644 </v>
   <v>       0.69905059       0.95490473       0.67510085 </v>
   <v>       0.42030778       0.33272436       0.64989836 </v>
   <v>       0.41637517       0.82371090       0.65123975 </v>
   <v>       0.92018944       0.32947900       0.64469584 </v>
   <v>       0.91842560       0.83010613       0.64955540 </v>
   <v>       0.32870569       0.08209015       0.65013986 </v>
   <v>       0.32924396       0.57658507       0.64955765 </v>
   <v>       0.83149340       0.08171577       0.64943122 </v>
   <v>       0.83336361       0.57657103       0.64916958 </v>
   <v>       0.00327822       0.24582455       0.63005113 </v>
   <v>       0.99423606       0.74702567       0.63136804 </v>
   <v>       0.49823407       0.25160743       0.63213883 </v>
   <v>       0.49607492       0.74944755       0.63002628 </v>
   <v>       0.25056397       0.00098672       0.63189891 </v>
   <v>       0.24509304       0.49914304       0.63178347 </v>
   <v>       0.75124384       0.00473081       0.63187303 </v>
   <v>       0.76143476       0.49429283       0.63315881 </v>
   <v>       0.44874502       0.30128397       0.76888902 </v>
   <v>       0.44874501       0.80128391       0.76888902 </v>
   <v>       0.94874497       0.30128397       0.76888902 </v>
   <v>       0.94874501       0.80128391       0.76888902 </v>
   <v>       0.30127600       0.05129450       0.76887296 </v>
   <v>       0.30127601       0.55129450       0.76887296 </v>
   <v>       0.80127594       0.05129450       0.76887296 </v>
   <v>       0.80127598       0.55129450       0.76887296 </v>
   <v>       0.07877100       0.17118050       0.74344197 </v>
   <v>       0.07877101       0.67118045       0.74344197 </v>
   <v>       0.57877100       0.17118050       0.74344197 </v>
   <v>       0.57877099       0.67118045       0.74344197 </v>
   <v>       0.17119950       0.42117448       0.74342103 </v>
   <v>       0.17119950       0.92117451       0.74342103 </v>
   <v>       0.67119951       0.42117448       0.74342103 </v>
   <v>       0.67119950       0.92117451       0.74342103 </v>
   <v>       0.05125600       0.19871499       0.76888902 </v>
   <v>       0.05125600       0.69871493       0.76888902 </v>
   <v>       0.55125603       0.19871499       0.76888902 </v>
   <v>       0.55125602       0.69871493       0.76888902 </v>
   <v>       0.19872349       0.44870397       0.76887205 </v>
   <v>       0.19872349       0.94870397       0.76887205 </v>
   <v>       0.69872352       0.44870397       0.76887205 </v>
   <v>       0.69872351       0.94870397       0.76887205 </v>
   <v>       0.42123152       0.32881747       0.74344197 </v>
   <v>       0.42123151       0.82881744       0.74344197 </v>
   <v>       0.92123147       0.32881747       0.74344197 </v>
   <v>       0.92123151       0.82881744       0.74344197 </v>
   <v>       0.32880050       0.07882500       0.74342103 </v>
   <v>       0.32880049       0.57882496       0.74342103 </v>
   <v>       0.82880048       0.07882500       0.74342103 </v>
   <v>       0.82880052       0.57882496       0.74342103 </v>
   <v>       0.00000350       0.25000148       0.72582199 </v>
   <v>       0.00000350       0.75000145       0.72582199 </v>
   <v>       0.50000351       0.25000148       0.72582199 </v>
   <v>       0.50000350       0.75000145       0.72582199 </v>
   <v>       0.25000050       0.00000000       0.72580398 </v>
   <v>       0.25000052       0.50000000       0.72580398 </v>
   <v>       0.75000050       0.00000000       0.72580398 </v>
   <v>       0.75000049       0.50000000       0.72580398 </v>
   <v>       0.79364627       0.56904889       0.53287361 </v>
   <v>       0.74089674       0.48761461       0.53283790 </v>
   <v>       0.87360297       0.50616714       0.55451814 </v>
   <v>       0.84766794       0.47907680       0.58003148 </v>
   <v>       0.74910020       0.63866884       0.57187299 </v>
   <v>       0.80482486       0.58502806       0.58912186 </v>
   <v>       0.66131509       0.53820056       0.57544047 </v>
   <v>       0.68122636       0.45272810       0.56352561 </v>
   <v>       0.62780042       0.55896537       0.54416353 </v>
   <v>       0.68554050       0.63761869       0.54746588 </v>
   <v>       0.63669708       0.66677960       0.51448480 </v>
   <v>       0.70858224       0.61326300       0.50402809 </v>
   <v>       0.81234175       0.39673641       0.53757939 </v>
   <v>       0.75873370       0.38279974       0.56096504 </v>
   <v>       0.85125609       0.36753862       0.56311318 </v>
   <v>       0.87076870       0.68305254       0.56715512 </v>
   <v>       0.85876669       0.63138698       0.54330862 </v>
   <v>       0.91506684       0.59706921       0.56535917 </v>
   <v>       0.77258468       0.49692596       0.60100076 </v>
   <v>       0.73796366       0.40926490       0.59382171 </v>
   <v>       0.68289789       0.47531628       0.60688689 </v>
   <v>       0.55297607       0.55419658       0.51419946 </v>
   <v>       0.58831528       0.57652272       0.48879695 </v>
   <v>       0.71228502       0.50441510       0.47936367 </v>
   <v>       0.56945003       0.43626549       0.52942785 </v>
   <v>       0.76901904       0.38030077       0.47924994 </v>
   <v>       0.62400766       0.31587490       0.53036224 </v>
   <v>       0.72666200       0.28630309       0.50460047 </v>
   <v>       0.00629407       0.24388420       0.55454237 </v>
   <v>       0.00173400       0.75318742       0.55625451 </v>
   <v>       0.50023008       0.25134283       0.55560063 </v>
   <v>       0.49856334       0.75390843       0.55618919 </v>
   <v>       0.24744384       0.50007064       0.55595165 </v>
   <v>       0.24694608       0.99921462       0.55545729 </v>
   <v>       0.75329296       0.99592427       0.55529863 </v>
   <v>       0.99846265       0.25056990       0.64787079 </v>
   <v>       0.99787582       0.74871593       0.64926011 </v>
   <v>       0.49978620       0.25149378       0.64997552 </v>
   <v>       0.49778369       0.74808109       0.64790065 </v>
   <v>       0.24732658       0.50127765       0.64960295 </v>
   <v>       0.24971855       0.00035670       0.64978365 </v>
   <v>       0.75467370       0.49801660       0.65004084 </v>
   <v>       0.74991055       0.00262230       0.64976424 </v>
   <v>       0.49998898       0.24999498       0.74327702 </v>
   <v>       0.49998903       0.74999496       0.74327702 </v>
   <v>       0.99998898       0.24999498       0.74327702 </v>
   <v>       0.99998903       0.74999496       0.74327702 </v>
   <v>       0.25000050       0.00000100       0.74325596 </v>
   <v>       0.25000052       0.50000100       0.74325596 </v>
   <v>       0.75000050       0.00000100       0.74325596 </v>
   <v>       0.75000049       0.50000100       0.74325596 </v>
   <v>       0.63305548       0.48045387       0.50312788 </v>
   <v>       0.69133864       0.46310006       0.48970195 </v>
   <v>       0.61025342       0.42573718       0.51741495 </v>
   <v>       0.72475749       0.39121820       0.48964231 </v>
   <v>       0.64317421       0.35494869       0.51816632 </v>
   <v>       0.70052767       0.33766966       0.50450038 </v>
   <v>       0.74787079       0.54215934       0.53972477 </v>
   <v>       0.82902839       0.48139884       0.56349088 </v>
   <v>       0.79531851       0.60064673       0.57253175 </v>
   <v>       0.70159080       0.49543501       0.57465394 </v>
   <v>       0.67507014       0.58896291       0.53824608 </v>
   <v>       0.66081404       0.60820477       0.51412541 </v>
   <v>       0.80999118       0.40323269       0.55492459 </v>
   <v>       0.86364909       0.62779478       0.56076316 </v>
   <v>       0.72510002       0.46895432       0.59518594 </v>
   <v>       0.60223863       0.55640516       0.50469582 </v>
   <v>       0.04580873       0.19685354       0.56674244 </v>
   <v>       0.04628345       0.70374274       0.56593528 </v>
   <v>       0.55266470       0.21552637       0.56525655 </v>
   <v>       0.53474454       0.70541939       0.56706343 </v>
   <v>       0.45222219       0.29703827       0.56544543 </v>
   <v>       0.45293783       0.80403114       0.56532560 </v>
   <v>       0.96308603       0.29484724       0.56237121 </v>
   <v>       0.96206087       0.80427005       0.56586330 </v>
   <v>       0.20364641       0.45396141       0.56559353 </v>
   <v>       0.20078669       0.95676383       0.56556661 </v>
   <v>       0.70796776       0.94569214       0.56384050 </v>
   <v>       0.29990373       0.04204659       0.56372573 </v>
   <v>       0.29522977       0.54743852       0.56480273 </v>
   <v>       0.79207087       0.04591042       0.56514178 </v>
   <v>       0.03975475       0.20885871       0.65958017 </v>
   <v>       0.04198890       0.70539721       0.65882275 </v>
   <v>       0.54380422       0.20682741       0.65905192 </v>
   <v>       0.54886265       0.70069737       0.65505118 </v>
   <v>       0.20111384       0.45499344       0.65913269 </v>
   <v>       0.20572623       0.95495851       0.65896090 </v>
   <v>       0.70855261       0.45580167       0.66006592 </v>
   <v>       0.70468616       0.95938869       0.65932682 </v>
   <v>       0.45313699       0.29947586       0.65946601 </v>
   <v>       0.45290183       0.78991150       0.65932841 </v>
   <v>       0.94915515       0.30021135       0.65515777 </v>
   <v>       0.95180633       0.79775851       0.65840275 </v>
   <v>       0.29584581       0.04819425       0.65951820 </v>
   <v>       0.29379932       0.54316978       0.65910534 </v>
   <v>       0.79779759       0.04964764       0.65909716 </v>
   <v>       0.80093792       0.54794306       0.65909051 </v>
   <v>       0.04586250       0.20411950       0.75272599 </v>
   <v>       0.04586250       0.70411946       0.75272599 </v>
   <v>       0.54586251       0.20411950       0.75272599 </v>
   <v>       0.54586250       0.70411946       0.75272599 </v>
   <v>       0.20411900       0.45410100       0.75270499 </v>
   <v>       0.20411899       0.95410095       0.75270499 </v>
   <v>       0.70411898       0.45410100       0.75270499 </v>
   <v>       0.70411896       0.95410095       0.75270499 </v>
   <v>       0.45414002       0.29588849       0.75272697 </v>
   <v>       0.45414001       0.79588852       0.75272697 </v>
   <v>       0.95414002       0.29588849       0.75272697 </v>
   <v>       0.95414006       0.79588852       0.75272697 </v>
   <v>       0.29588249       0.04590050       0.75270499 </v>
   <v>       0.29588248       0.54590053       0.75270499 </v>
   <v>       0.79588244       0.04590050       0.75270499 </v>
   <v>       0.79588248       0.54590053       0.75270499 </v>
   <v>       0.76891765       0.52899507       0.56277345 </v>
   <v>       0.49798199       0.00167904       0.55330250 </v>
   <v>       0.49035001       0.50921267       0.55467021 </v>
   <v>       0.00499442       0.00125637       0.55240950 </v>
   <v>       0.00993665       0.49018095       0.54967665 </v>
   <v>       0.25091975       0.24882288       0.55334029 </v>
   <v>       0.25097415       0.75008028       0.55326178 </v>
   <v>       0.75732631       0.24024924       0.55436247 </v>
   <v>       0.74157666       0.75951792       0.54950841 </v>
   <v>       0.99471783       0.00090046       0.65402889 </v>
   <v>       0.00081291       0.49506246       0.65368317 </v>
   <v>       0.49536240       0.99874563       0.65414677 </v>
   <v>       0.49974884       0.50015195       0.65442441 </v>
   <v>       0.25112061       0.24931110       0.65403053 </v>
   <v>       0.25047832       0.75053587       0.65500338 </v>
   <v>       0.75081605       0.24857087       0.65437515 </v>
   <v>       0.74868458       0.74994380       0.65418565 </v>
   <v>       0.14444858       0.10788352       0.60765181 </v>
   <v>       0.14443206       0.60731408       0.60701228 </v>
   <v>       0.64453280       0.10777287       0.60726282 </v>
   <v>       0.63402890       0.61591936       0.61007551 </v>
   <v>       0.35527633       0.39185476       0.60739584 </v>
   <v>       0.35808462       0.89456563       0.60722350 </v>
   <v>       0.86674416       0.38325520       0.61020249 </v>
   <v>       0.85760658       0.89364420       0.60728516 </v>
   <v>       0.10841903       0.35552109       0.60736409 </v>
   <v>       0.10519671       0.85560641       0.60738339 </v>
   <v>       0.59731947       0.34726432       0.60863071 </v>
   <v>       0.60583138       0.85826235       0.60752093 </v>
   <v>       0.39436736       0.14341951       0.60761256 </v>
   <v>       0.39377906       0.64408741       0.60771377 </v>
   <v>       0.89191718       0.14393962       0.60738742 </v>
   <v>       0.90263893       0.65304370       0.61025310 </v>
   <v>       0.00000000       0.00000000       0.75492797 </v>
   <v>       0.00000000       0.50000000       0.75492797 </v>
   <v>       0.50000000       0.00000000       0.75492797 </v>
   <v>       0.49999999       0.50000000       0.75492797 </v>
   <v>       0.25000050       0.25000000       0.75493902 </v>
   <v>       0.25000051       0.74999997       0.75493902 </v>
   <v>       0.75000047       0.25000000       0.75493902 </v>
   <v>       0.75000046       0.74999997       0.75493902 </v>
   <v>       0.13579050       0.11421000       0.70478299 </v>
   <v>       0.13579050       0.61420998       0.70478299 </v>
   <v>       0.63579045       0.11421000       0.70478299 </v>
   <v>       0.63579049       0.61420998       0.70478299 </v>
   <v>       0.36420952       0.38578999       0.70478299 </v>
   <v>       0.36420950       0.88578996       0.70478299 </v>
   <v>       0.86420954       0.38578999       0.70478299 </v>
   <v>       0.86420953       0.88578996       0.70478299 </v>
   <v>       0.11421799       0.36421899       0.70478098 </v>
   <v>       0.11421799       0.86421899       0.70478098 </v>
   <v>       0.61421800       0.36421899       0.70478098 </v>
   <v>       0.61421799       0.86421899       0.70478098 </v>
   <v>       0.38578201       0.13578149       0.70478202 </v>
   <v>       0.38578200       0.63578149       0.70478202 </v>
   <v>       0.88578199       0.13578149       0.70478202 </v>
   <v>       0.88578203       0.63578149       0.70478202 </v>
   <v>       0.13466700       0.11533200       0.80125603 </v>
   <v>       0.13466699       0.61533199       0.80125603 </v>
   <v>       0.63466699       0.11533200       0.80125603 </v>
   <v>       0.63466698       0.61533199       0.80125603 </v>
   <v>       0.36533300       0.38466799       0.80125603 </v>
   <v>       0.36533299       0.88466796       0.80125603 </v>
   <v>       0.86533295       0.38466799       0.80125603 </v>
   <v>       0.86533294       0.88466796       0.80125603 </v>
   <v>       0.11532850       0.36533700       0.80126500 </v>
   <v>       0.11532850       0.86533698       0.80126500 </v>
   <v>       0.61532850       0.36533700       0.80126500 </v>
   <v>       0.61532849       0.86533698       0.80126500 </v>
   <v>       0.38467151       0.13466300       0.80126500 </v>
   <v>       0.38467150       0.63466297       0.80126500 </v>
   <v>       0.88467149       0.13466300       0.80126500 </v>
   <v>       0.88467153       0.63466297       0.80126500 </v>
   <v>       0.99893095       0.99879368       0.60306178 </v>
   <v>       0.00191874       0.50154095       0.60343515 </v>
   <v>       0.49843839       0.99905169       0.60399068 </v>
   <v>       0.49764671       0.50102596       0.60318424 </v>
   <v>       0.24885532       0.25134938       0.60333088 </v>
   <v>       0.24880217       0.74847169       0.60333479 </v>
   <v>       0.75121259       0.24577732       0.60288242 </v>
   <v>       0.74706963       0.75653131       0.60412163 </v>
   <v>       0.00000050       0.00000050       0.70482896 </v>
   <v>       0.00000050       0.50000048       0.70482896 </v>
   <v>       0.50000048       0.00000050       0.70482896 </v>
   <v>       0.50000046       0.50000048       0.70482896 </v>
   <v>       0.24999999       0.24999947       0.70482499 </v>
   <v>       0.25000001       0.74999950       0.70482499 </v>
   <v>       0.74999999       0.24999947       0.70482499 </v>
   <v>       0.74999998       0.74999950       0.70482499 </v>
   <v>       0.00000000       0.00000000       0.80731797 </v>
   <v>       0.00000000       0.50000000       0.80731797 </v>
   <v>       0.50000000       0.00000000       0.80731797 </v>
   <v>       0.49999999       0.50000000       0.80731797 </v>
   <v>       0.24999999       0.25000000       0.80731797 </v>
   <v>       0.25000001       0.74999997       0.80731797 </v>
   <v>       0.74999999       0.25000000       0.80731797 </v>
   <v>       0.74999998       0.74999997       0.80731797 </v>
  </varray>
 </structure>
</modeling>
