 vasp.6.2.1 16May21 (build Nov 15 2021 14:57:28) complex                         
 executed on             LinuxPGI date 2023.07.24  23:50:21
 running on    4 total cores
 distrk:  each k-point on    4 cores,    1 groups
 distr:  one band on NCORE=   1 cores,    4 groups


--------------------------------------------------------------------------------------------------------


 INCAR:
   SYSTEM = PSC
   ISTART = 1
   ICHARG = 1
   PREC = Normal
   ENCUT = 500
   GGA_COMPAT = F
   NELM = 600
   ISYM = 0
   LREAL = Auto
   ISMEAR = 0
   SIGMA = 0.05
   AMIN = 0.01
   BMIX = 0.01
   LVTOT = T
   LWAVE = F
   LDIPOL = T
   IDIPOL = 3
   LVDW = T
   IVDW = 12

 POTCAR:    PAW_PBE H 15Jun2001                   
 POTCAR:    PAW_PBE C 08Apr2002                   
 POTCAR:    PAW_PBE N 08Apr2002                   
 POTCAR:    PAW_PBE I 08Apr2002                   
 POTCAR:    PAW_PBE Pb 08Apr2002                  
 WARNING: For LVTOT=.TRUE., VASP.5.x writes the TOTAL local potential to the
     file LOCPOT. If you want only the Hartree contributions, use LVHAR=.TRUE.
     instead. 

 POTCAR:    PAW_PBE H 15Jun2001                   
   SHA256 =  030f79b5d3ab3cf0e668861823c8fb652ff669f3e15e46930bd03bfd63a607b6 H/POTCAR              
   COPYR  = (c) Copyright 15Jun2001 Georg Kresse                                                    
   COPYR  = This file is part of the software VASP. Any use, copying, and all other rights are regul
   COPYR  = If you do not have a valid VASP license, you may not use, copy or distribute this file. 
   VRHFIN =H: ultrasoft test                                                                        
   LEXCH  = PE                                                                                      
   EATOM  =    12.4884 eV,    0.9179 Ry                                                             
                                                                                                    
   TITEL  = PAW_PBE H 15Jun2001                                                                     
   LULTRA =        F    use ultrasoft PP ?                                                          
   IUNSCR =        0    unscreen: 0-lin 1-nonlin 2-no                                               
   RPACOR =    0.000    partial core radius                                                         
   POMASS =    1.000; ZVAL   =    1.000    mass and valenz                                          
   RCORE  =    1.100    outmost cutoff radius                                                       
   RWIGS  =    0.700; RWIGS  =    0.370    wigner-seitz radius (au A)                               
   ENMAX  =  250.000; ENMIN  =  200.000 eV                                                          
   RCLOC  =    0.701    cutoff for local pot                                                        
   LCOR   =        T    correct aug charges                                                         
   LPAW   =        T    paw PP                                                                      
   EAUG   =  400.000                                                                                
   RMAX   =    1.123    core radius for proj-oper                                                   
   RAUG   =    1.200    factor for augmentation sphere                                              
   RDEP   =    1.112    radius for radial grids                                                     
   RDEPT  =    0.926    core radius for aug-charge                                                  
                                                                                                    
   Atomic configuration                                                                             
    2 entries                                                                                       
     n  l   j            E        occ.                                                              
     1  0  0.50        -6.4927   1.0000                                                             
     2  1  0.50        -3.4015   0.0000                                                             
   Description                                                                                      
     l       E           TYP  RCUT    TYP  RCUT                                                     
     0     -6.4927494     23  1.100                                                                 
     0      6.8029130     23  1.100                                                                 
     1     -4.0817478     23  1.100                                                                 
  local pseudopotential read in
  atomic valenz-charges read in
  non local Contribution for L=            0  read in
    real space projection operators read in
  non local Contribution for L=            0  read in
    real space projection operators read in
  non local Contribution for L=            1  read in
    real space projection operators read in
    PAW grid and wavefunctions read in
 
   number of l-projection  operators is LMAX  =            3
   number of lm-projection operators is LMMAX =            5
 
 POTCAR:    PAW_PBE C 08Apr2002                   
   SHA256 =  253f7b50bb8d59471dbedb8285d89021f4a42ed1a2c5d38a03a736e69125dd95 C/POTCAR              
   COPYR  = (c) Copyright 08Apr2002 Georg Kresse                                                    
   COPYR  = This file is part of the software VASP. Any use, copying, and all other rights are regul
   COPYR  = If you do not have a valid VASP license, you may not use, copy or distribute this file. 
   VRHFIN =C: s2p2                                                                                  
   LEXCH  = PE                                                                                      
   EATOM  =   147.1560 eV,   10.8157 Ry                                                             
                                                                                                    
   TITEL  = PAW_PBE C 08Apr2002                                                                     
   LULTRA =        F    use ultrasoft PP ?                                                          
   IUNSCR =        1    unscreen: 0-lin 1-nonlin 2-no                                               
   RPACOR =    1.200    partial core radius                                                         
   POMASS =   12.011; ZVAL   =    4.000    mass and valenz                                          
   RCORE  =    1.500    outmost cutoff radius                                                       
   RWIGS  =    1.630; RWIGS  =    0.863    wigner-seitz radius (au A)                               
   ENMAX  =  400.000; ENMIN  =  300.000 eV                                                          
   ICORE  =        2    local potential                                                             
   LCOR   =        T    correct aug charges                                                         
   LPAW   =        T    paw PP                                                                      
   EAUG   =  644.873                                                                                
   DEXC   =    0.000                                                                                
   RMAX   =    1.529    core radius for proj-oper                                                   
   RAUG   =    1.300    factor for augmentation sphere                                              
   RDEP   =    1.501    radius for radial grids                                                     
   RDEPT  =    1.300    core radius for aug-charge                                                  
                                                                                                    
   Atomic configuration                                                                             
    4 entries                                                                                       
     n  l   j            E        occ.                                                              
     1  0  0.50      -273.3789   2.0000                                                             
     2  0  0.50       -13.7508   2.0000                                                             
     2  1  0.50        -5.2854   2.0000                                                             
     3  2  1.50        -5.4423   0.0000                                                             
   Description                                                                                      
     l       E           TYP  RCUT    TYP  RCUT                                                     
     0    -13.7508458     23  1.200                                                                 
     0     -8.2022199     23  1.200                                                                 
     1     -5.2854383     23  1.500                                                                 
     1     34.0145650     23  1.500                                                                 
     2     -5.4423304      7  1.500                                                                 
  local pseudopotential read in
  partial core-charges read in
  partial kinetic energy density read in
  atomic valenz-charges read in
  non local Contribution for L=            0  read in
    real space projection operators read in
  non local Contribution for L=            0  read in
    real space projection operators read in
  non local Contribution for L=            1  read in
    real space projection operators read in
  non local Contribution for L=            1  read in
    real space projection operators read in
    PAW grid and wavefunctions read in
 
   number of l-projection  operators is LMAX  =            4
   number of lm-projection operators is LMMAX =            8
 
 POTCAR:    PAW_PBE N 08Apr2002                   
   SHA256 =  e053789ff3a61a86a1b75d8a110fcc91f86041011e7b0817c7c99e4e8a6349d7 N/POTCAR              
   COPYR  = (c) Copyright 08Apr2002 Georg Kresse                                                    
   COPYR  = This file is part of the software VASP. Any use, copying, and all other rights are regul
   COPYR  = If you do not have a valid VASP license, you may not use, copy or distribute this file. 
   VRHFIN =N: s2p3                                                                                  
   LEXCH  = PE                                                                                      
   EATOM  =   264.5486 eV,   19.4438 Ry                                                             
                                                                                                    
   TITEL  = PAW_PBE N 08Apr2002                                                                     
   LULTRA =        F    use ultrasoft PP ?                                                          
   IUNSCR =        1    unscreen: 0-lin 1-nonlin 2-no                                               
   RPACOR =    1.200    partial core radius                                                         
   POMASS =   14.001; ZVAL   =    5.000    mass and valenz                                          
   RCORE  =    1.500    outmost cutoff radius                                                       
   RWIGS  =    1.400; RWIGS  =    0.741    wigner-seitz radius (au A)                               
   ENMAX  =  400.000; ENMIN  =  300.000 eV                                                          
   ICORE  =        2    local potential                                                             
   LCOR   =        T    correct aug charges                                                         
   LPAW   =        T    paw PP                                                                      
   EAUG   =  627.112                                                                                
   DEXC   =    0.000                                                                                
   RMAX   =    1.529    core radius for proj-oper                                                   
   RAUG   =    1.300    factor for augmentation sphere                                              
   RDEP   =    1.514    radius for radial grids                                                     
   RDEPT  =    1.338    core radius for aug-charge                                                  
                                                                                                    
   Atomic configuration                                                                             
    4 entries                                                                                       
     n  l   j            E        occ.                                                              
     1  0  0.50      -384.7179   2.0000                                                             
     2  0  0.50       -18.5828   2.0000                                                             
     2  1  0.50        -7.0898   3.0000                                                             
     3  2  1.50        -6.8029   0.0000                                                             
   Description                                                                                      
     l       E           TYP  RCUT    TYP  RCUT                                                     
     0    -18.5828119     23  1.200                                                                 
     0    -13.5018863     23  1.200                                                                 
     1     -7.0897853     23  1.500                                                                 
     1      9.5240782     23  1.500                                                                 
     2     -6.8029130      7  1.500                                                                 
  local pseudopotential read in
  partial core-charges read in
  partial kinetic energy density read in
  atomic valenz-charges read in
  non local Contribution for L=            0  read in
    real space projection operators read in
  non local Contribution for L=            0  read in
    real space projection operators read in
  non local Contribution for L=            1  read in
    real space projection operators read in
  non local Contribution for L=            1  read in
    real space projection operators read in
    PAW grid and wavefunctions read in
 
   number of l-projection  operators is LMAX  =            4
   number of lm-projection operators is LMMAX =            8
 
 POTCAR:    PAW_PBE I 08Apr2002                   
   SHA256 =  e40f3f59b681c1fc3e3091736183c4589116986673d2b852a5012aec72758799 I/POTCAR              
   COPYR  = (c) Copyright 08Apr2002 Georg Kresse                                                    
   COPYR  = This file is part of the software VASP. Any use, copying, and all other rights are regul
   COPYR  = If you do not have a valid VASP license, you may not use, copy or distribute this file. 
   VRHFIN =I : s2p5                                                                                 
   LEXCH  = PE                                                                                      
   EATOM  =   315.8678 eV,   23.2156 Ry                                                             
                                                                                                    
   TITEL  = PAW_PBE I 08Apr2002                                                                     
   LULTRA =        F    use ultrasoft PP ?                                                          
   IUNSCR =        1    unscreen: 0-lin 1-nonlin 2-no                                               
   RPACOR =    2.200    partial core radius                                                         
   POMASS =  126.904; ZVAL   =    7.000    mass and valenz                                          
   RCORE  =    2.300    outmost cutoff radius                                                       
   RWIGS  =    2.810; RWIGS  =    1.487    wigner-seitz radius (au A)                               
   ENMAX  =  175.647; ENMIN  =  131.735 eV                                                          
   ICORE  =        3    local potential                                                             
   LCOR   =        T    correct aug charges                                                         
   LPAW   =        T    paw PP                                                                      
   EAUG   =  370.139                                                                                
   DEXC   =    0.000                                                                                
   RMAX   =    2.359    core radius for proj-oper                                                   
   RAUG   =    1.300    factor for augmentation sphere                                              
   RDEP   =    2.392    radius for radial grids                                                     
   RDEPT  =    2.170    core radius for aug-charge                                                  
                                                                                                    
   Atomic configuration                                                                             
   13 entries                                                                                       
     n  l   j            E        occ.                                                              
     1  0  0.50    -32976.3739   2.0000                                                             
     2  0  0.50     -5094.5933   2.0000                                                             
     2  1  1.50     -4572.0131   6.0000                                                             
     3  0  0.50     -1028.2813   2.0000                                                             
     3  1  1.50      -859.0250   6.0000                                                             
     3  2  2.50      -605.7620  10.0000                                                             
     4  0  0.50      -180.5540   2.0000                                                             
     4  1  1.50      -127.5306   6.0000                                                             
     4  2  2.50       -50.2720  10.0000                                                             
     5  0  0.50       -17.4058   2.0000                                                             
     5  1  0.50        -7.0851   5.0000                                                             
     5  2  1.50        -7.0750   0.0000                                                             
     4  3  2.50        -7.0750   0.0000                                                             
   Description                                                                                      
     l       E           TYP  RCUT    TYP  RCUT                                                     
     0    -17.4058016     23  2.300                                                                 
     0    -18.7663842     23  2.300                                                                 
     1     -7.0850686     23  2.300                                                                 
     1     -4.2150896     23  2.300                                                                 
     2     -7.0750295     23  2.300                                                                 
     3     -1.3605826     23  2.300                                                                 
  local pseudopotential read in
  partial core-charges read in
  partial kinetic energy density read in
  atomic valenz-charges read in
  non local Contribution for L=            0  read in
    real space projection operators read in
  non local Contribution for L=            0  read in
    real space projection operators read in
  non local Contribution for L=            1  read in
    real space projection operators read in
  non local Contribution for L=            1  read in
    real space projection operators read in
  non local Contribution for L=            2  read in
    real space projection operators read in
    PAW grid and wavefunctions read in
 
   number of l-projection  operators is LMAX  =            5
   number of lm-projection operators is LMMAX =           13
 
 POTCAR:    PAW_PBE Pb 08Apr2002                  
   SHA256 =  797118a27cf1bcd06b9881c67a26cdde129e3cd1a551dd4a281f9681ce847303 Pb/POTCAR             
   COPYR  = (c) Copyright 08Apr2002 Georg Kresse                                                    
   COPYR  = This file is part of the software VASP. Any use, copying, and all other rights are regul
   COPYR  = If you do not have a valid VASP license, you may not use, copy or distribute this file. 
   VRHFIN =Pb:                                                                                      
   LEXCH  = PE                                                                                      
   EATOM  =    96.9868 eV,    7.1283 Ry                                                             
                                                                                                    
   TITEL  = PAW_PBE Pb 08Apr2002                                                                    
   LULTRA =        F    use ultrasoft PP ?                                                          
   IUNSCR =        1    unscreen: 0-lin 1-nonlin 2-no                                               
   RPACOR =    2.200    partial core radius                                                         
   POMASS =  207.200; ZVAL   =    4.000    mass and valenz                                          
   RCORE  =    3.100    outmost cutoff radius                                                       
   RWIGS  =    3.260; RWIGS  =    1.725    wigner-seitz radius (au A)                               
   ENMAX  =   97.973; ENMIN  =   73.480 eV                                                          
   ICORE  =        3    local potential                                                             
   LCOR   =        T    correct aug charges                                                         
   LPAW   =        T    paw PP                                                                      
   EAUG   =  234.873                                                                                
   DEXC   =    0.000                                                                                
   RMAX   =    3.158    core radius for proj-oper                                                   
   RAUG   =    1.300    factor for augmentation sphere                                              
   RDEP   =    3.202    radius for radial grids                                                     
   RDEPT  =    2.659    core radius for aug-charge                                                  
                                                                                                    
   Atomic configuration                                                                             
   17 entries                                                                                       
     n  l   j            E        occ.                                                              
     1  0  0.50    -88091.8466   2.0000                                                             
     2  0  0.50    -15753.4197   2.0000                                                             
     2  1  1.50    -13508.1797   6.0000                                                             
     3  0  0.50     -3781.7194   2.0000                                                             
     3  1  1.50     -3138.2529   6.0000                                                             
     3  2  2.50     -2483.2977  10.0000                                                             
     4  0  0.50      -856.2895   2.0000                                                             
     4  1  1.50      -645.4943   6.0000                                                             
     4  2  2.50      -401.8768  10.0000                                                             
     4  3  3.50      -132.9059  14.0000                                                             
     5  0  0.50      -144.0950   2.0000                                                             
     5  1  1.50       -85.7879   6.0000                                                             
     5  2  2.50       -21.1769  10.0000                                                             
     6  0  0.50       -12.0372   2.0000                                                             
     6  1  1.50        -3.4971   2.0000                                                             
     6  2  2.50        -1.3606   0.0000                                                             
     5  3  2.50        -2.7212   0.0000                                                             
   Description                                                                                      
     l       E           TYP  RCUT    TYP  RCUT                                                     
     0    -12.0371566     23  3.100                                                                 
     0    -13.3977392     23  3.100                                                                 
     1     -3.4971341     23  3.100                                                                 
     1     -5.4423304     23  3.100                                                                 
     2     -1.3605826     23  3.100                                                                 
     3     -1.3605826     23  3.100                                                                 
  local pseudopotential read in
  partial core-charges read in
  partial kinetic energy density read in
  atomic valenz-charges read in
  non local Contribution for L=            0  read in
    real space projection operators read in
  non local Contribution for L=            0  read in
    real space projection operators read in
  non local Contribution for L=            1  read in
    real space projection operators read in
  non local Contribution for L=            1  read in
    real space projection operators read in
  non local Contribution for L=            2  read in
    real space projection operators read in
    PAW grid and wavefunctions read in
 
   number of l-projection  operators is LMAX  =            5
   number of lm-projection operators is LMMAX =           13
 
 Optimization of the real space projectors (new method)

 maximal supplied QI-value         = 34.20
 optimisation between [QCUT,QGAM] = [ 11.29, 22.57] = [ 35.68,142.71] Ry 
 Optimized for a Real-space Cutoff    1.16 Angstroem

   l    n(q)    QCUT    max X(q) W(low)/X(q) W(high)/X(q)  e(spline) 
   0      8    11.287    19.460    0.40E-03    0.73E-03    0.16E-06
   0      8    11.287    12.209    0.38E-03    0.70E-03    0.15E-06
   1      7    11.287     4.655    0.22E-03    0.25E-04    0.22E-06
 Optimization of the real space projectors (new method)

 maximal supplied QI-value         = 25.13
 optimisation between [QCUT,QGAM] = [ 11.31, 22.87] = [ 35.82,146.48] Ry 
 Optimized for a Real-space Cutoff    1.00 Angstroem

   l    n(q)    QCUT    max X(q) W(low)/X(q) W(high)/X(q)  e(spline) 
   0      7    11.310   115.676    0.43E-03    0.13E-02    0.19E-06
   0      7    11.310    87.132    0.43E-03    0.13E-02    0.18E-06
   1      6    11.310     4.429    0.42E-03    0.74E-03    0.11E-06
   1      6    11.310     2.733    0.34E-03    0.55E-03    0.92E-07
 Optimization of the real space projectors (new method)

 maximal supplied QI-value         = 25.13
 optimisation between [QCUT,QGAM] = [ 11.31, 22.87] = [ 35.82,146.48] Ry 
 Optimized for a Real-space Cutoff    1.27 Angstroem

   l    n(q)    QCUT    max X(q) W(low)/X(q) W(high)/X(q)  e(spline) 
   0      9    11.310    79.467    0.75E-04    0.16E-03    0.36E-06
   0      9    11.310    66.151    0.74E-04    0.16E-03    0.36E-06
   1      8    11.310    17.416    0.35E-03    0.12E-03    0.95E-06
   1      8    11.310    12.382    0.37E-03    0.13E-03    0.98E-06
 Optimization of the real space projectors (new method)

 maximal supplied QI-value         = 16.25
 optimisation between [QCUT,QGAM] = [ 11.38, 22.75] = [ 36.24,144.96] Ry 
 Optimized for a Real-space Cutoff    1.31 Angstroem

   l    n(q)    QCUT    max X(q) W(low)/X(q) W(high)/X(q)  e(spline) 
   0      9    11.376   194.483    0.24E-03    0.23E-03    0.67E-07
   0      9    11.376   190.334    0.23E-03    0.22E-03    0.65E-07
   1      8    11.376   116.687    0.25E-03    0.63E-04    0.16E-06
   1      8    11.376    88.696    0.25E-03    0.61E-04    0.16E-06
   2      8    11.376     4.877    0.17E-03    0.14E-03    0.29E-07
 Optimization of the real space projectors (new method)

 maximal supplied QI-value         = 12.09
 optimisation between [QCUT,QGAM] = [ 11.37, 22.86] = [ 36.19,146.31] Ry 
 Optimized for a Real-space Cutoff    1.66 Angstroem

   l    n(q)    QCUT    max X(q) W(low)/X(q) W(high)/X(q)  e(spline) 
   0     11    11.369   135.111    0.12E-03    0.69E-04    0.19E-05
   0     11    11.369   146.850    0.11E-03    0.65E-04    0.18E-05
   1     11    11.369   148.016    0.17E-03    0.32E-03    0.89E-06
   1     11    11.369   122.989    0.17E-03    0.32E-03    0.91E-06
   2     10    11.369     8.916    0.12E-03    0.45E-04    0.33E-06
  PAW_PBE H 15Jun2001                   :
 energy of atom  1       EATOM=  -12.4884
 kinetic energy error for atom=    0.0020 (will be added to EATOM!!)
  PAW_PBE C 08Apr2002                   :
 energy of atom  2       EATOM= -147.1560
 kinetic energy error for atom=    0.0076 (will be added to EATOM!!)
  PAW_PBE N 08Apr2002                   :
 energy of atom  3       EATOM= -264.5486
 kinetic energy error for atom=    0.0138 (will be added to EATOM!!)
  PAW_PBE I 08Apr2002                   :
 energy of atom  4       EATOM= -315.8678
 kinetic energy error for atom=    0.0009 (will be added to EATOM!!)
  PAW_PBE Pb 08Apr2002                  :
 energy of atom  5       EATOM=  -96.9868
 kinetic energy error for atom=    0.0000 (will be added to EATOM!!)
 
 
 POSCAR:  H  C  N  I Pb
  positions in cartesian coordinates
  No initial velocities read in
 exchange correlation table for  LEXCH =        8
   RHO(1)=    0.500       N(1)  =     2000
   RHO(2)=  100.500       N(2)  =     4000
 


--------------------------------------------------------------------------------------------------------


 ion  position               nearest neighbor table
   1  0.438  0.312  0.573- 187 1.04
   2  0.427  0.835  0.572- 188 1.05
   3  0.980  0.319  0.582- 189 1.04
   4  0.962  0.811  0.580- 190 1.03
   5  0.313  0.957  0.575- 194 1.03
   6  0.327  0.563  0.574- 195 1.03
   7  0.796  0.073  0.580- 196 1.02
   8  0.031  0.137  0.562- 183 1.02
   9  0.060  0.643  0.563- 184 1.03
  10  0.573  0.181  0.553- 185 1.02
  11  0.526  0.662  0.564- 186 1.01
  12  0.356  0.021  0.558- 194 1.02
  13  0.280  0.625  0.557- 195 1.03
  14  0.868  0.035  0.565- 196 1.03
  15  0.001  0.184  0.585- 183 1.03
  16  0.010  0.682  0.585- 184 1.04
  17  0.562  0.256  0.570- 185 1.04
  18  0.457  0.699  0.579- 186 1.02
  19  0.279  0.434  0.576- 191 1.03
  20  0.177  0.940  0.572- 192 1.03
  21  0.676  0.014  0.577- 193 1.03
  22  0.367  0.269  0.558- 187 1.03
  23  0.487  0.881  0.555- 188 1.03
  24  0.018  0.361  0.559- 189 1.03
  25  0.990  0.858  0.558- 190 1.02
  26  0.196  0.418  0.563- 191 1.02
  27  0.131  0.999  0.554- 192 1.03
  28  0.672  0.931  0.562- 193 1.01
  29  0.447  0.182  0.543- 146 1.09
  30  0.556  0.774  0.548- 147 1.09
  31  0.046  0.248  0.543- 144 1.09
  32  0.053  0.754  0.543- 145 1.09
  33  0.192  0.536  0.548- 148 1.10
  34  0.240  0.056  0.543- 149 1.10
  35  0.793  0.938  0.552- 150 1.10
  36  0.471  0.324  0.672- 205 1.03
  37  0.433  0.817  0.672- 206 1.03
  38  0.970  0.277  0.682- 207 1.02
  39  0.918  0.766  0.673- 208 1.02
  40  0.301  0.055  0.674- 209 1.04
  41  0.306  0.546  0.675- 210 1.04
  42  0.791  0.066  0.675- 211 1.03
  43  0.789  0.593  0.668- 212 1.02
  44  0.086  0.167  0.645- 197 1.03
  45  0.100  0.698  0.655- 198 1.01
  46  0.580  0.169  0.652- 199 1.02
  47  0.571  0.678  0.656- 200 1.01
  48  0.183  0.410  0.650- 201 1.01
  49  0.172  0.921  0.650- 202 0.99
  50  0.706  0.408  0.661- 203 1.03
  51  0.675  0.920  0.651- 204 1.00
  52  0.069  0.179  0.672- 197 1.02
  53  0.035  0.684  0.675- 198 1.02
  54  0.587  0.243  0.670- 199 1.03
  55  0.530  0.714  0.679- 200 1.02
  56  0.211  0.437  0.675- 201 1.03
  57  0.198  0.953  0.675- 202 1.03
  58  0.695  0.488  0.676- 203 1.03
  59  0.691  0.962  0.676- 204 1.04
  60  0.398  0.295  0.656- 205 1.02
  61  0.421  0.838  0.645- 206 1.03
  62  0.933  0.321  0.659- 207 1.01
  63  0.917  0.826  0.651- 208 1.02
  64  0.330  0.076  0.648- 209 1.01
  65  0.325  0.580  0.650- 210 1.00
  66  0.830  0.078  0.650- 211 1.02
  67  0.843  0.578  0.645- 212 1.05
  68  0.003  0.255  0.635- 151 1.07
  69  0.032  0.786  0.638- 152 1.08
  70  0.460  0.197  0.641- 153 1.10
  71  0.507  0.753  0.633- 154 1.09
  72  0.253  0.996  0.631- 156 1.08
  73  0.252  0.499  0.632- 155 1.08
  74  0.760  0.987  0.633- 158 1.08
  75  0.798  0.458  0.639- 157 1.10
  76  0.449  0.301  0.769- 221 1.02
  77  0.449  0.801  0.769- 222 1.02
  78  0.949  0.301  0.769- 223 1.02
  79  0.949  0.801  0.769- 224 1.02
  80  0.301  0.051  0.769- 225 1.02
  81  0.301  0.551  0.769- 226 1.02
  82  0.801  0.051  0.769- 227 1.02
  83  0.801  0.551  0.769- 228 1.02
  84  0.079  0.171  0.743- 213 1.02
  85  0.079  0.671  0.743- 214 1.02
  86  0.579  0.171  0.743- 215 1.02
  87  0.579  0.671  0.743- 216 1.02
  88  0.171  0.421  0.743- 217 1.02
  89  0.171  0.921  0.743- 218 1.02
  90  0.671  0.421  0.743- 219 1.02
  91  0.671  0.921  0.743- 220 1.02
  92  0.051  0.199  0.769- 213 1.02
  93  0.051  0.699  0.769- 214 1.02
  94  0.551  0.199  0.769- 215 1.02
  95  0.551  0.699  0.769- 216 1.02
  96  0.199  0.449  0.769- 217 1.02
  97  0.199  0.949  0.769- 218 1.02
  98  0.699  0.449  0.769- 219 1.02
  99  0.699  0.949  0.769- 220 1.02
 100  0.421  0.329  0.743- 221 1.02
 101  0.421  0.829  0.743- 222 1.02
 102  0.921  0.329  0.743- 223 1.02
 103  0.921  0.829  0.743- 224 1.02
 104  0.329  0.079  0.743- 225 1.02
 105  0.329  0.579  0.743- 226 1.02
 106  0.829  0.079  0.743- 227 1.02
 107  0.829  0.579  0.743- 228 1.02
 108  0.000  0.250  0.726- 161 1.09
 109  0.000  0.750  0.726- 162 1.09
 110  0.500  0.250  0.726- 159 1.09
 111  0.500  0.750  0.726- 160 1.09
 112  0.250  0.000  0.726- 163 1.09
 113  0.250  0.500  0.726- 164 1.09
 114  0.750  0.000  0.726- 165 1.09
 115  0.750  0.500  0.726- 166 1.09
 116  0.776  0.555  0.521- 173 1.10
 117  0.720  0.475  0.527- 173 1.09
 118  0.874  0.501  0.543- 174 1.09
 119  0.856  0.477  0.570- 174 1.10
 120  0.742  0.640  0.560- 175 1.11
 121  0.802  0.596  0.579- 175 1.10
 122  0.668  0.547  0.571- 176 1.09
 123  0.678  0.454  0.561- 176 1.10
 124  0.613  0.551  0.538- 177 1.11
 125  0.668  0.633  0.538- 177 1.10
 126  0.606  0.647  0.506- 178 1.12
 127  0.687  0.603  0.497- 178 1.10
 128  0.813  0.388  0.530- 179 1.10
 129  0.768  0.373  0.555- 179 1.10
 130  0.865  0.362  0.553- 179 1.10
 131  0.864  0.692  0.557- 180 1.10
 132  0.848  0.646  0.533- 180 1.10
 133  0.908  0.606  0.553- 180 1.10
 134  0.755  0.523  0.601- 181 1.09
 135  0.776  0.433  0.590- 181 1.10
 136  0.687  0.452  0.600- 181 1.09
 137  0.534  0.531  0.505- 182 1.10
 138  0.577  0.550  0.480- 182 1.09
 139  0.693  0.477  0.469- 168 1.10
 140  0.561  0.418  0.524- 169 1.08
 141  0.761  0.359  0.472- 170 1.09
 142  0.629  0.300  0.527- 171 1.09
 143  0.729  0.270  0.501- 172 1.08
 144  0.022  0.249  0.559-  31 1.09 189 1.32 183 1.33
 145  0.026  0.751  0.559-  32 1.09 190 1.31 184 1.31
 146  0.468  0.224  0.554-  29 1.09 187 1.31 185 1.32
 147  0.509  0.771  0.558-  30 1.09 188 1.30 186 1.31
 148  0.237  0.521  0.559-  33 1.10 195 1.31 191 1.32
 149  0.243  0.013  0.555-  34 1.10 194 1.32 192 1.32
 150  0.770  0.981  0.563-  35 1.10 196 1.31 193 1.31
 151  0.009  0.244  0.652-  68 1.07 197 1.32 207 1.32
 152  0.009  0.762  0.652-  69 1.08 208 1.31 198 1.33
 153  0.488  0.232  0.653-  70 1.10 205 1.30 199 1.32
 154  0.496  0.758  0.650-  71 1.09 206 1.31 200 1.32
 155  0.253  0.495  0.649-  73 1.08 201 1.30 210 1.33
 156  0.251  0.999  0.648-  72 1.08 209 1.30 202 1.33
 157  0.774  0.492  0.652-  75 1.10 212 1.29 203 1.32
 158  0.753  0.999  0.650-  74 1.08 211 1.30 204 1.32
 159  0.500  0.250  0.743- 110 1.09 221 1.31 215 1.31
 160  0.500  0.750  0.743- 111 1.09 222 1.31 216 1.31
 161  1.000  0.250  0.743- 108 1.09 223 1.31 213 1.31
 162  1.000  0.750  0.743- 109 1.09 224 1.31 214 1.31
 163  0.250  0.000  0.743- 112 1.09 225 1.31 218 1.31
 164  0.250  0.500  0.743- 113 1.09 226 1.31 217 1.31
 165  0.750  0.000  0.743- 114 1.09 227 1.31 220 1.31
 166  0.750  0.500  0.743- 115 1.09 228 1.31 219 1.31
 167  0.623  0.456  0.497- 169 1.39 168 1.40 182 1.51
 168  0.679  0.439  0.482- 139 1.10 170 1.39 167 1.40
 169  0.605  0.406  0.512- 140 1.08 171 1.39 167 1.39
 170  0.717  0.372  0.484- 141 1.09 168 1.39 172 1.41
 171  0.642  0.339  0.514- 142 1.09 169 1.39 172 1.39
 172  0.699  0.322  0.500- 143 1.08 171 1.39 170 1.41
 173  0.732  0.533  0.531- 117 1.09 116 1.10 229 1.52 177 1.56
 174  0.833  0.476  0.553- 118 1.09 119 1.10 229 1.52 179 1.53
 175  0.790  0.603  0.561- 121 1.10 120 1.11 180 1.51 229 1.51
 176  0.705  0.500  0.570- 122 1.09 123 1.10 181 1.51 229 1.55
 177  0.660  0.578  0.530- 125 1.10 124 1.11 178 1.54 173 1.56
 178  0.637  0.593  0.506- 127 1.10 126 1.12 182 1.54 177 1.54
 179  0.818  0.395  0.547- 129 1.10 128 1.10 130 1.10 174 1.53
 180  0.856  0.636  0.550- 131 1.10 132 1.10 133 1.10 175 1.51
 181  0.734  0.476  0.591- 136 1.09 134 1.09 135 1.10 176 1.51
 182  0.588  0.532  0.497- 138 1.09 137 1.10 167 1.51 178 1.54
 183  0.018  0.185  0.569-   8 1.02  15 1.03 144 1.33
 184  0.034  0.689  0.570-   9 1.03  16 1.04 145 1.31
 185  0.539  0.221  0.559-  10 1.02  17 1.04 146 1.32
 186  0.496  0.708  0.568-  11 1.01  18 1.02 147 1.31
 187  0.423  0.274  0.561-  22 1.03   1 1.04 146 1.31
 188  0.470  0.831  0.561-  23 1.03   2 1.05 147 1.30
 189  0.001  0.313  0.567-  24 1.03   3 1.04 144 1.32
 190  0.986  0.808  0.566-  25 1.02   4 1.03 145 1.31
 191  0.238  0.453  0.566-  26 1.02  19 1.03 148 1.32
 192  0.181  0.980  0.561-  20 1.03  27 1.03 149 1.32
 193  0.699  0.977  0.567-  28 1.01  21 1.03 150 1.31
 194  0.308  0.998  0.564-  12 1.02   5 1.03 149 1.32
 195  0.285  0.573  0.564-  13 1.03   6 1.03 148 1.31
 196  0.814  0.032  0.570-   7 1.02  14 1.03 150 1.31
 197  0.058  0.193  0.657-  52 1.02  44 1.03 151 1.32
 198  0.050  0.711  0.662-  45 1.01  53 1.02 152 1.33
 199  0.556  0.214  0.659-  46 1.02  54 1.03 153 1.32
 200  0.535  0.714  0.663-  47 1.01  55 1.02 154 1.32
 201  0.214  0.444  0.659-  48 1.01  56 1.03 155 1.30
 202  0.204  0.955  0.658-  49 0.99  57 1.03 156 1.33
 203  0.722  0.462  0.664-  58 1.03  50 1.03 157 1.32
 204  0.703  0.957  0.660-  51 1.00  59 1.04 158 1.32
 205  0.451  0.288  0.661-  60 1.02  36 1.03 153 1.30
 206  0.447  0.807  0.656-  37 1.03  61 1.03 154 1.31
 207  0.969  0.283  0.665-  62 1.01  38 1.02 151 1.32
 208  0.944  0.786  0.659-  63 1.02  39 1.02 152 1.31
 209  0.296  0.046  0.657-  64 1.01  40 1.04 156 1.30
 210  0.297  0.544  0.659-  65 1.00  41 1.04 155 1.33
 211  0.793  0.050  0.659-  66 1.02  42 1.03 158 1.30
 212  0.802  0.558  0.655-  43 1.02  67 1.05 157 1.29
 213  0.046  0.204  0.753-  92 1.02  84 1.02 161 1.31
 214  0.046  0.704  0.753-  93 1.02  85 1.02 162 1.31
 215  0.546  0.204  0.753-  94 1.02  86 1.02 159 1.31
 216  0.546  0.704  0.753-  95 1.02  87 1.02 160 1.31
 217  0.204  0.454  0.753-  96 1.02  88 1.02 164 1.31
 218  0.204  0.954  0.753-  97 1.02  89 1.02 163 1.31
 219  0.704  0.454  0.753-  98 1.02  90 1.02 166 1.31
 220  0.704  0.954  0.753-  99 1.02  91 1.02 165 1.31
 221  0.454  0.296  0.753-  76 1.02 100 1.02 159 1.31
 222  0.454  0.796  0.753-  77 1.02 101 1.02 160 1.31
 223  0.954  0.296  0.753-  78 1.02 102 1.02 161 1.31
 224  0.954  0.796  0.753-  79 1.02 103 1.02 162 1.31
 225  0.296  0.046  0.753-  80 1.02 104 1.02 163 1.31
 226  0.296  0.546  0.753-  81 1.02 105 1.02 164 1.31
 227  0.796  0.046  0.753-  82 1.02 106 1.02 165 1.31
 228  0.796  0.546  0.753-  83 1.02 107 1.02 166 1.31
 229  0.766  0.527  0.554- 175 1.51 174 1.52 173 1.52 176 1.55
 230  0.505  0.019  0.553- 304 3.22
 231  0.472  0.506  0.556- 305 3.11
 232  0.991  0.999  0.550- 302 3.51
 233  0.038  0.495  0.553- 303 3.37
 234  0.231  0.234  0.554- 306 3.14
 235  0.256  0.762  0.553- 307 3.16
 236  0.740  0.206  0.555- 308 3.06
 237  0.710  0.790  0.549- 309 3.40
 238  0.002  0.989  0.655- 302 3.06 310 3.13
 239  0.011  0.495  0.656- 311 3.08 303 3.08
 240  0.500  0.009  0.655- 304 3.13 312 3.14
 241  0.508  0.492  0.656- 313 3.08 305 3.16
 242  0.257  0.244  0.655- 314 3.14 306 3.20
 243  0.249  0.752  0.655- 315 3.11 307 3.22
 244  0.746  0.267  0.655- 316 3.15 308 3.27
 245  0.750  0.752  0.654- 317 3.17 309 3.26
 246  0.138  0.105  0.609- 306 3.13 302 3.26
 247  0.147  0.607  0.610- 307 3.13 303 3.18
 248  0.649  0.103  0.612- 308 3.11 304 3.17
 249  0.617  0.636  0.614- 309 3.09 305 3.43
 250  0.359  0.389  0.609- 305 3.12 306 3.40
 251  0.365  0.888  0.607- 304 3.31 307 3.33
 252  0.893  0.363  0.614- 303 3.27 308 3.55
 253  0.871  0.876  0.610- 302 3.13 309 3.33
 254  0.121  0.358  0.611- 306 3.11 303 3.25
 255  0.121  0.871  0.607- 307 3.21 302 3.28
 256  0.580  0.330  0.604- 308 3.24 305 3.30
 257  0.615  0.870  0.611- 309 3.05 304 3.26
 258  0.385  0.133  0.606- 304 3.09 306 3.21
 259  0.387  0.637  0.611- 307 3.23 305 3.29
 260  0.890  0.139  0.614- 302 3.18 308 3.42
 261  0.911  0.644  0.615- 303 3.22 309 3.84
 262  0.000  0.000  0.755- 310 3.13 318 3.27
 263  0.000  0.500  0.755- 311 3.13 319 3.27
 264  0.500  0.000  0.755- 312 3.13 320 3.27
 265  0.500  0.500  0.755- 313 3.13 321 3.27
 266  0.250  0.250  0.755- 314 3.13 322 3.27
 267  0.250  0.750  0.755- 315 3.13 323 3.27
 268  0.750  0.250  0.755- 316 3.13 324 3.27
 269  0.750  0.750  0.755- 317 3.13 325 3.27
 270  0.136  0.114  0.705- 310 3.20 314 3.20
 271  0.136  0.614  0.705- 311 3.20 315 3.20
 272  0.636  0.114  0.705- 312 3.20 316 3.20
 273  0.636  0.614  0.705- 313 3.20 317 3.20
 274  0.364  0.386  0.705- 313 3.20 314 3.20
 275  0.364  0.886  0.705- 312 3.20 315 3.20
 276  0.864  0.386  0.705- 311 3.20 316 3.20
 277  0.864  0.886  0.705- 310 3.20 317 3.20
 278  0.114  0.364  0.705- 314 3.21 311 3.21
 279  0.114  0.864  0.705- 315 3.21 310 3.21
 280  0.614  0.364  0.705- 316 3.21 313 3.21
 281  0.614  0.864  0.705- 317 3.21 312 3.21
 282  0.386  0.136  0.705- 314 3.21 312 3.21
 283  0.386  0.636  0.705- 315 3.21 313 3.21
 284  0.886  0.136  0.705- 316 3.21 310 3.21
 285  0.886  0.636  0.705- 317 3.21 311 3.21
 286  0.135  0.115  0.801- 318 3.22 322 3.22
 287  0.135  0.615  0.801- 319 3.22 323 3.22
 288  0.635  0.115  0.801- 320 3.22 324 3.22
 289  0.635  0.615  0.801- 321 3.22 325 3.22
 290  0.365  0.385  0.801- 321 3.22 322 3.22
 291  0.365  0.885  0.801- 320 3.22 323 3.22
 292  0.865  0.385  0.801- 319 3.22 324 3.22
 293  0.865  0.885  0.801- 318 3.22 325 3.22
 294  0.115  0.365  0.801- 319 3.23 322 3.23
 295  0.115  0.865  0.801- 318 3.23 323 3.23
 296  0.615  0.365  0.801- 321 3.23 324 3.23
 297  0.615  0.865  0.801- 320 3.23 325 3.23
 298  0.385  0.135  0.801- 320 3.23 322 3.23
 299  0.385  0.635  0.801- 321 3.23 323 3.23
 300  0.885  0.135  0.801- 318 3.23 324 3.23
 301  0.885  0.635  0.801- 319 3.23 325 3.23
 302  0.993  0.998  0.606- 238 3.06 253 3.13 260 3.18 246 3.26 255 3.28 232 3.51
 303  0.010  0.499  0.606- 239 3.08 247 3.18 261 3.22 254 3.25 252 3.27 233 3.37
 304  0.503  0.009  0.605- 258 3.09 240 3.13 248 3.17 230 3.22 257 3.26 251 3.31
 305  0.497  0.493  0.605- 231 3.11 250 3.12 241 3.16 259 3.29 256 3.30 249 3.43
 306  0.244  0.241  0.604- 254 3.11 246 3.13 234 3.14 242 3.20 258 3.21 250 3.40
 307  0.248  0.746  0.604- 247 3.13 235 3.16 255 3.21 243 3.22 259 3.23 251 3.33
 308  0.739  0.247  0.603- 236 3.06 248 3.11 256 3.24 244 3.27 260 3.42 252 3.55
 309  0.734  0.754  0.602- 257 3.05 249 3.09 245 3.26 253 3.33 237 3.40 261 3.84
 310  0.000  0.000  0.705- 238 3.13 262 3.13 270 3.20 277 3.20 279 3.21 284 3.21
 311  0.000  0.500  0.705- 239 3.08 263 3.13 271 3.20 276 3.20 278 3.21 285 3.21
 312  0.500  0.000  0.705- 264 3.13 240 3.14 272 3.20 275 3.20 281 3.21 282 3.21
 313  0.500  0.500  0.705- 241 3.08 265 3.13 273 3.20 274 3.20 280 3.21 283 3.21
 314  0.250  0.250  0.705- 266 3.13 242 3.14 270 3.20 274 3.20 282 3.21 278 3.21
 315  0.250  0.750  0.705- 243 3.11 267 3.13 271 3.20 275 3.20 283 3.21 279 3.21
 316  0.750  0.250  0.705- 268 3.13 244 3.15 272 3.20 276 3.20 284 3.21 280 3.21
 317  0.750  0.750  0.705- 269 3.13 245 3.17 273 3.20 277 3.20 285 3.21 281 3.21
 318  0.000  0.000  0.807- 286 3.22 293 3.22 300 3.23 295 3.23 262 3.27
 319  0.000  0.500  0.807- 287 3.22 292 3.22 301 3.23 294 3.23 263 3.27
 320  0.500  0.000  0.807- 288 3.22 291 3.22 298 3.23 297 3.23 264 3.27
 321  0.500  0.500  0.807- 289 3.22 290 3.22 299 3.23 296 3.23 265 3.27
 322  0.250  0.250  0.807- 290 3.22 286 3.22 294 3.23 298 3.23 266 3.27
 323  0.250  0.750  0.807- 291 3.22 287 3.22 299 3.23 295 3.23 267 3.27
 324  0.750  0.250  0.807- 292 3.22 288 3.22 296 3.23 300 3.23 268 3.27
 325  0.750  0.750  0.807- 293 3.22 289 3.22 297 3.23 301 3.23 269 3.27
 

IMPORTANT INFORMATION: All symmetrisations will be switched off!
NOSYMM: (Re-)initialisation of all symmetry stuff for point group C_1.


----------------------------------------------------------------------------------------

                                     Primitive cell                                     

  volume of cell :   20385.2105

  direct lattice vectors                    reciprocal lattice vectors
    18.060800552  0.000000000  0.000000000     0.055368531  0.000015077 -0.000000000
    -0.004918649 18.062799454  0.000000000     0.000000000  0.055362404  0.000000000
     0.000000000  0.000000000 62.487499237     0.000000000 -0.000000000  0.016003201

  length of vectors
    18.060800552 18.062800123 62.487499237     0.055368533  0.055362404  0.016003201

  position of ions in fractional coordinates (direct lattice)
     0.437853173  0.312415332  0.572738761
     0.426870749  0.835047041  0.572402268
     0.979506366  0.318960400  0.581924864
     0.962125296  0.810503448  0.580492143
     0.312979739  0.956954010  0.575343347
     0.327141083  0.563006455  0.574430689
     0.795525269  0.073019731  0.579985389
     0.031227956  0.137047829  0.561921717
     0.059646063  0.643017203  0.563271597
     0.573468535  0.181301253  0.552577441
     0.526054663  0.662013975  0.564351647
     0.355776757  0.020576209  0.558257777
     0.280286855  0.625130239  0.557382296
     0.868379159  0.035377942  0.564913038
     0.000634577  0.183748849  0.585133208
     0.010185891  0.682034441  0.584525848
     0.561538338  0.256042143  0.570053410
     0.456576060  0.698802622  0.579243053
     0.278922128  0.434466726  0.576483102
     0.176565839  0.940456520  0.572387495
     0.675614435  0.014464848  0.577396065
     0.366708419  0.269365775  0.558314978
     0.486733258  0.881000789  0.554805914
     0.017612037  0.361198007  0.559298634
     0.990188186  0.857897148  0.557959560
     0.195711174  0.417945876  0.562538479
     0.131237018  0.998574832  0.554360818
     0.671756415  0.930965624  0.562180741
     0.447200912  0.181758164  0.542835563
     0.556275413  0.774325301  0.547745420
     0.045727713  0.248373910  0.542679404
     0.053241400  0.754255099  0.543466061
     0.191589188  0.536087705  0.547689073
     0.240497248  0.056272056  0.542919870
     0.792984818  0.938001275  0.551857143
     0.471195306  0.323638118  0.672252318
     0.433353177  0.817213508  0.671989631
     0.970195529  0.277126245  0.681502825
     0.918438960  0.766363196  0.672638747
     0.301227529  0.054520228  0.673822822
     0.305663690  0.545943399  0.675058177
     0.790543262  0.065678798  0.674782731
     0.788573664  0.592577287  0.667624805
     0.086219813  0.166520127  0.644975011
     0.099523436  0.697804429  0.655126822
     0.580413610  0.168831768  0.651656890
     0.570959560  0.678379943  0.656239776
     0.182572382  0.410231155  0.649861853
     0.171953178  0.921283773  0.649926380
     0.705901982  0.407916662  0.660936578
     0.675043386  0.919534123  0.651318809
     0.068674711  0.178584138  0.672444373
     0.034811571  0.683634898  0.675380324
     0.586715800  0.242828435  0.669832400
     0.529948990  0.714214905  0.679234549
     0.211423664  0.437055661  0.675185460
     0.197652825  0.953429097  0.674881994
     0.695266047  0.488063654  0.676356349
     0.691082527  0.962425347  0.675864918
     0.397672907  0.295007718  0.656141185
     0.420880345  0.837858730  0.644744069
     0.933176985  0.320953698  0.659249412
     0.917110968  0.826046934  0.650894896
     0.329996327  0.076236952  0.647993376
     0.324862780  0.580399867  0.649734325
     0.830235079  0.078177624  0.649554052
     0.843001120  0.577801269  0.644991860
     0.002638169  0.255340329  0.634968310
     0.031521107  0.785751516  0.637899438
     0.459851550  0.197137884  0.641319861
     0.506565162  0.752646300  0.633081824
     0.252656340  0.995654933  0.631214263
     0.251733869  0.499019599  0.632023202
     0.760331969  0.986540318  0.633157462
     0.797794473  0.457786653  0.639484350
     0.448745018  0.301283966  0.768889017
     0.448745007  0.801283913  0.768889017
     0.948744965  0.301283966  0.768889017
     0.948745007  0.801283913  0.768889017
     0.301275995  0.051294496  0.768872961
     0.301276011  0.551294499  0.768872961
     0.801275943  0.051294496  0.768872961
     0.801275984  0.551294499  0.768872961
     0.078771004  0.171180501  0.743441971
     0.078771006  0.671180448  0.743441971
     0.578771004  0.171180501  0.743441971
     0.578770992  0.671180448  0.743441971
     0.171199499  0.421174482  0.743421032
     0.171199501  0.921174508  0.743421032
     0.671199512  0.421174482  0.743421032
     0.671199501  0.921174508  0.743421032
     0.051256000  0.198714991  0.768889017
     0.051256002  0.698714925  0.768889017
     0.551256027  0.198714991  0.768889017
     0.551256016  0.698714925  0.768889017
     0.198723491  0.448703970  0.768872046
     0.198723493  0.948703970  0.768872046
     0.698723518  0.448703970  0.768872046
     0.698723507  0.948703970  0.768872046
     0.421231519  0.328817467  0.743441971
     0.421231508  0.828817440  0.743441971
     0.921231466  0.328817467  0.743441971
     0.921231508  0.828817440  0.743441971
     0.328800503  0.078824997  0.743421032
     0.328800492  0.578824964  0.743421032
     0.828800477  0.078824997  0.743421032
     0.828800519  0.578824964  0.743421032
     0.000003500  0.250001478  0.725821992
     0.000003500  0.750001452  0.725821992
     0.500003506  0.250001478  0.725821992
     0.500003495  0.750001452  0.725821992
     0.250000502  0.000000000  0.725803983
     0.250000517  0.500000000  0.725803983
     0.750000502  0.000000000  0.725803983
     0.750000490  0.500000000  0.725803983
     0.775685398  0.554853804  0.520863395
     0.720180727  0.475314012  0.526918867
     0.873737322  0.500815302  0.542737033
     0.856023207  0.476760669  0.569710385
     0.742336062  0.640397856  0.560038833
     0.802251468  0.595661676  0.578552729
     0.667867191  0.547028973  0.570928157
     0.678025769  0.454036432  0.561379006
     0.613201274  0.550555965  0.538086567
     0.668307573  0.632535433  0.537523710
     0.605798774  0.646637436  0.506084499
     0.686668242  0.602596760  0.496595175
     0.812692608  0.388121562  0.529689379
     0.768140628  0.373223265  0.554814461
     0.864593978  0.361648081  0.553030535
     0.864081172  0.691538028  0.557157520
     0.847766327  0.645872186  0.532962068
     0.908203555  0.605658604  0.552603508
     0.755021289  0.522782103  0.600553407
     0.775741642  0.432734829  0.590204901
     0.686643186  0.452426472  0.599927366
     0.534425243  0.530569764  0.505142905
     0.576967458  0.549698794  0.480125145
     0.692626103  0.477479615  0.469238079
     0.561188720  0.418499777  0.523803925
     0.761105584  0.358579875  0.472146498
     0.628675482  0.299941981  0.526924117
     0.728997811  0.269987019  0.501484916
     0.022004581  0.248846053  0.558741211
     0.025682017  0.750968864  0.558955975
     0.468012205  0.223793042  0.553890875
     0.508634005  0.771260500  0.558475166
     0.236953594  0.521480481  0.558667465
     0.243120424  0.012941261  0.555251194
     0.770186804  0.980543149  0.562571811
     0.009436763  0.243908755  0.651627221
     0.008706485  0.762295133  0.652431337
     0.488307510  0.231930197  0.653133320
     0.496244603  0.757882671  0.650147921
     0.253233363  0.494870017  0.649335502
     0.251284647  0.999185885  0.648481022
     0.774392925  0.492226013  0.652346420
     0.753361802  0.998780262  0.650022591
     0.499988984  0.249994984  0.743277021
     0.499989025  0.749994958  0.743277021
     0.999988984  0.249994984  0.743277021
     0.999989025  0.749994958  0.743277021
     0.250000502  0.000001000  0.743255960
     0.250000517  0.500001003  0.743255960
     0.750000502  0.000001000  0.743255960
     0.750000491  0.500001003  0.743255960
     0.622934369  0.456431916  0.496648164
     0.679055868  0.438747537  0.482176519
     0.604580349  0.405500824  0.512439286
     0.717098222  0.372000153  0.483530397
     0.642324160  0.338978569  0.514220770
     0.699030371  0.321750573  0.499920883
     0.732456559  0.532551368  0.531392418
     0.832844943  0.476025778  0.553460797
     0.790302889  0.602711384  0.561426135
     0.705438020  0.500097412  0.569585604
     0.659733676  0.578342393  0.529724787
     0.636731500  0.592880874  0.506343981
     0.818054319  0.395438400  0.547087452
     0.856206083  0.636396318  0.550161125
     0.733506434  0.476063792  0.591313216
     0.587607830  0.531989495  0.496511112
     0.017906708  0.185245743  0.569367726
     0.034017017  0.688778292  0.569576141
     0.539186468  0.221249130  0.558565883
     0.496380879  0.707820575  0.567994770
     0.422502803  0.274184648  0.561221931
     0.470226946  0.831451148  0.561258682
     0.000565841  0.312930295  0.566614184
     0.986444064  0.807749942  0.565552265
     0.238219299  0.453147055  0.566255104
     0.180699057  0.979841959  0.560580934
     0.698990545  0.977357595  0.566841525
     0.307836252  0.997866048  0.563879629
     0.284930615  0.572989867  0.563798069
     0.814386287  0.031769972  0.570265610
     0.057711880  0.192702521  0.657038398
     0.049984775  0.710704650  0.661681539
     0.556293400  0.213524681  0.658648522
     0.534643609  0.714267228  0.662961641
     0.213995129  0.444415001  0.658816952
     0.203603229  0.955267239  0.658426432
     0.721877546  0.461656988  0.663998164
     0.703183195  0.957371577  0.659737730
     0.451243470  0.287711630  0.660841161
     0.447057449  0.807066001  0.656308516
     0.968509888  0.282554430  0.665199088
     0.944364462  0.785839054  0.659188792
     0.296354420  0.045595370  0.657479710
     0.297427178  0.543798546  0.658675627
     0.793223956  0.050422697  0.658843508
     0.801542875  0.557770771  0.655259600
     0.045862501  0.204119496  0.752725994
     0.045862500  0.704119456  0.752725994
     0.545862507  0.204119496  0.752725994
     0.545862496  0.704119456  0.752725994
     0.204119002  0.454101003  0.752704994
     0.204118991  0.954100951  0.752704994
     0.704118976  0.454101003  0.752704994
     0.704118964  0.954100951  0.752704994
     0.454140018  0.295888490  0.752726971
     0.454140007  0.795888516  0.752726971
     0.954140018  0.295888490  0.752726971
     0.954140060  0.795888516  0.752726971
     0.295882492  0.045900498  0.752704994
     0.295882481  0.545900528  0.752704994
     0.795882439  0.045900498  0.752704994
     0.795882481  0.545900528  0.752704994
     0.765832298  0.527085908  0.553721652
     0.505386935  0.019280464  0.553142374
     0.472444030  0.505600147  0.556040658
     0.990988574  0.998729314  0.549954236
     0.038350108  0.495221913  0.553142679
     0.231319451  0.233827245  0.553630630
     0.256455544  0.761573652  0.553247741
     0.739937389  0.205820809  0.555233673
     0.710231616  0.790290587  0.549035778
     0.001672197  0.989488561  0.654853757
     0.011026639  0.494986541  0.655699080
     0.500060489  0.008831758  0.654702604
     0.507827663  0.492330870  0.655637666
     0.257388001  0.244178367  0.654719270
     0.249450984  0.752227245  0.655042149
     0.746242899  0.266803450  0.654721101
     0.750047687  0.752021545  0.654020216
     0.137637393  0.105085162  0.609000286
     0.147275331  0.607443483  0.610074842
     0.648721517  0.103387320  0.611799369
     0.617390911  0.636227577  0.614165199
     0.358843191  0.389260145  0.608817999
     0.365390366  0.887980698  0.607492417
     0.893325033  0.362660952  0.613830537
     0.870558795  0.875539553  0.609555818
     0.120596065  0.358113935  0.610691848
     0.121439534  0.870508777  0.607351092
     0.579920332  0.329609987  0.603998065
     0.614836407  0.870153870  0.611277231
     0.384722242  0.132862673  0.605954511
     0.387145226  0.636737708  0.610710101
     0.890022083  0.138592029  0.613734693
     0.910506348  0.644157528  0.614637461
     0.000000000  0.000000000  0.754927972
     0.000000000  0.500000000  0.754927972
     0.500000000  0.000000000  0.754927972
     0.499999989  0.500000000  0.754927972
     0.250000496  0.250000000  0.754939022
     0.250000511  0.749999974  0.754939022
     0.750000470  0.250000000  0.754939022
     0.750000458  0.749999974  0.754939022
     0.135790500  0.114209997  0.704782994
     0.135790502  0.614209984  0.704782994
     0.635790447  0.114209997  0.704782994
     0.635790488  0.614209984  0.704782994
     0.364209516  0.385789989  0.704782994
     0.364209505  0.885789963  0.704782994
     0.864209542  0.385789989  0.704782994
     0.864209531  0.885789963  0.704782994
     0.114217990  0.364218986  0.704780979
     0.114217992  0.864218986  0.704780979
     0.614218004  0.364218986  0.704780979
     0.614217992  0.864218986  0.704780979
     0.385782012  0.135781489  0.704782017
     0.385782001  0.635781489  0.704782017
     0.885781985  0.135781489  0.704782017
     0.885782027  0.635781489  0.704782017
     0.134667000  0.115332001  0.801256025
     0.134666989  0.615331988  0.801256025
     0.634666987  0.115332001  0.801256025
     0.634666976  0.615331988  0.801256025
     0.365333002  0.384667985  0.801256025
     0.365332990  0.884667959  0.801256025
     0.865332949  0.384667985  0.801256025
     0.865332938  0.884667959  0.801256025
     0.115328503  0.365337004  0.801264999
     0.115328505  0.865336978  0.801264999
     0.615328503  0.365337004  0.801264999
     0.615328492  0.865336978  0.801264999
     0.384671513  0.134662996  0.801264999
     0.384671501  0.634662970  0.801264999
     0.884671486  0.134662996  0.801264999
     0.884671528  0.634662970  0.801264999
     0.992528242  0.998284663  0.606058170
     0.009592547  0.498771239  0.606432573
     0.502520077  0.009213984  0.604650478
     0.496904159  0.492593802  0.605086967
     0.244086605  0.240790312  0.603698017
     0.248231550  0.746354451  0.603559318
     0.739020447  0.246703100  0.602825651
     0.733792921  0.754398761  0.602088687
     0.000000500  0.000000500  0.704828963
     0.000000500  0.500000475  0.704828963
     0.500000475  0.000000500  0.704828963
     0.500000464  0.500000475  0.704828963
     0.249999994  0.249999472  0.704824995
     0.250000010  0.749999498  0.704824995
     0.749999994  0.249999472  0.704824995
     0.749999983  0.749999498  0.704824995
     0.000000000  0.000000000  0.807317968
     0.000000000  0.500000000  0.807317968
     0.500000000  0.000000000  0.807317968
     0.499999989  0.500000000  0.807317968
     0.249999994  0.250000000  0.807317968
     0.250000010  0.749999974  0.807317968
     0.749999994  0.250000000  0.807317968
     0.749999983  0.749999974  0.807317968

  ion indices of the primitive-cell ions
   primitive index   ion index
                 1           1
                 2           2
                 3           3
                 4           4
                 5           5
                 6           6
                 7           7
                 8           8
                 9           9
                10          10
                11          11
                12          12
                13          13
                14          14
                15          15
                16          16
                17          17
                18          18
                19          19
                20          20
                21          21
                22          22
                23          23
                24          24
                25          25
                26          26
                27          27
                28          28
                29          29
                30          30
                31          31
                32          32
                33          33
                34          34
                35          35
                36          36
                37          37
                38          38
                39          39
                40          40
                41          41
                42          42
                43          43
                44          44
                45          45
                46          46
                47          47
                48          48
                49          49
                50          50
                51          51
                52          52
                53          53
                54          54
                55          55
                56          56
                57          57
                58          58
                59          59
                60          60
                61          61
                62          62
                63          63
                64          64
                65          65
                66          66
                67          67
                68          68
                69          69
                70          70
                71          71
                72          72
                73          73
                74          74
                75          75
                76          76
                77          77
                78          78
                79          79
                80          80
                81          81
                82          82
                83          83
                84          84
                85          85
                86          86
                87          87
                88          88
                89          89
                90          90
                91          91
                92          92
                93          93
                94          94
                95          95
                96          96
                97          97
                98          98
                99          99
               100         100
               101         101
               102         102
               103         103
               104         104
               105         105
               106         106
               107         107
               108         108
               109         109
               110         110
               111         111
               112         112
               113         113
               114         114
               115         115
               116         116
               117         117
               118         118
               119         119
               120         120
               121         121
               122         122
               123         123
               124         124
               125         125
               126         126
               127         127
               128         128
               129         129
               130         130
               131         131
               132         132
               133         133
               134         134
               135         135
               136         136
               137         137
               138         138
               139         139
               140         140
               141         141
               142         142
               143         143
               144         144
               145         145
               146         146
               147         147
               148         148
               149         149
               150         150
               151         151
               152         152
               153         153
               154         154
               155         155
               156         156
               157         157
               158         158
               159         159
               160         160
               161         161
               162         162
               163         163
               164         164
               165         165
               166         166
               167         167
               168         168
               169         169
               170         170
               171         171
               172         172
               173         173
               174         174
               175         175
               176         176
               177         177
               178         178
               179         179
               180         180
               181         181
               182         182
               183         183
               184         184
               185         185
               186         186
               187         187
               188         188
               189         189
               190         190
               191         191
               192         192
               193         193
               194         194
               195         195
               196         196
               197         197
               198         198
               199         199
               200         200
               201         201
               202         202
               203         203
               204         204
               205         205
               206         206
               207         207
               208         208
               209         209
               210         210
               211         211
               212         212
               213         213
               214         214
               215         215
               216         216
               217         217
               218         218
               219         219
               220         220
               221         221
               222         222
               223         223
               224         224
               225         225
               226         226
               227         227
               228         228
               229         229
               230         230
               231         231
               232         232
               233         233
               234         234
               235         235
               236         236
               237         237
               238         238
               239         239
               240         240
               241         241
               242         242
               243         243
               244         244
               245         245
               246         246
               247         247
               248         248
               249         249
               250         250
               251         251
               252         252
               253         253
               254         254
               255         255
               256         256
               257         257
               258         258
               259         259
               260         260
               261         261
               262         262
               263         263
               264         264
               265         265
               266         266
               267         267
               268         268
               269         269
               270         270
               271         271
               272         272
               273         273
               274         274
               275         275
               276         276
               277         277
               278         278
               279         279
               280         280
               281         281
               282         282
               283         283
               284         284
               285         285
               286         286
               287         287
               288         288
               289         289
               290         290
               291         291
               292         292
               293         293
               294         294
               295         295
               296         296
               297         297
               298         298
               299         299
               300         300
               301         301
               302         302
               303         303
               304         304
               305         305
               306         306
               307         307
               308         308
               309         309
               310         310
               311         311
               312         312
               313         313
               314         314
               315         315
               316         316
               317         317
               318         318
               319         319
               320         320
               321         321
               322         322
               323         323
               324         324
               325         325

----------------------------------------------------------------------------------------

 
 
 KPOINTS: Automatic Mesh                          

Automatic generation of k-mesh.
 Grid dimensions read from file:
 generate k-points for:    3    3    1

 Generating k-lattice:

  Cartesian coordinates                     Fractional coordinates (reciprocal lattice)
     0.018456177  0.000005026 -0.000000000     0.333333333  0.000000000  0.000000000
     0.000000000  0.018454135  0.000000000     0.000000000  0.333333333  0.000000000
     0.000000000 -0.000000000  0.016003201     0.000000000  0.000000000  1.000000000

  Length of vectors
     0.018456178  0.018454135  0.016003201

  Shift w.r.t. Gamma in fractional coordinates (k-lattice)
     0.000000000  0.000000000  0.000000000

 
 Subroutine IBZKPT returns following result:
 ===========================================
 
 Found      5 irreducible k-points:
 
 Following reciprocal coordinates:
            Coordinates               Weight
  0.000000  0.000000  0.000000      1.000000
  0.333333  0.000000  0.000000      2.000000
  0.000000  0.333333  0.000000      2.000000
  0.333333  0.333333  0.000000      2.000000
 -0.333333  0.333333  0.000000      2.000000
 
 Following cartesian coordinates:
            Coordinates               Weight
  0.000000  0.000000  0.000000      1.000000
  0.018456  0.000005  0.000000      2.000000
  0.000000  0.018454  0.000000      2.000000
  0.018456  0.018459  0.000000      2.000000
 -0.018456  0.018449  0.000000      2.000000
 


--------------------------------------------------------------------------------------------------------




 Dimension of arrays:
   k-points           NKPTS =      5   k-points in BZ     NKDIM =      5   number of bands    NBANDS=    732
   number of dos      NEDOS =    301   number of ions     NIONS =    325
   non local maximal  LDIM  =      5   non local SUM 2l+1 LMDIM =     13
   total plane-waves  NPLWV = ******
   max r-space proj   IRMAX =   3336   max aug-charges    IRDMAX=  19845
   dimension x,y,z NGX =   100 NGY =  100 NGZ =  350
   dimension x,y,z NGXF=   200 NGYF=  200 NGZF=  700
   support grid    NGXF=   200 NGYF=  200 NGZF=  700
   ions per type =             143  39  47  72  24
   NGX,Y,Z   is equivalent  to a cutoff of   9.20,  9.20,  9.31 a.u.
   NGXF,Y,Z  is equivalent  to a cutoff of  18.41, 18.41, 18.62 a.u.

 SYSTEM =  PSC                                     
 POSCAR =   H  C  N  I Pb                          

 Startparameter for this run:
   NWRITE =      2    write-flag & timer
   PREC   = normal    normal or accurate (medium, high low for compatibility)
   ISTART =      0    job   : 0-new  1-cont  2-samecut
   ICHARG =      1    charge: 1-file 2-atom 10-const
   ISPIN  =      1    spin polarized calculation?
   LNONCOLLINEAR =      F non collinear calculations
   LSORBIT =      F    spin-orbit coupling
   INIWAV =      1    electr: 0-lowe 1-rand  2-diag
   LASPH  =      F    aspherical Exc in radial PAW
 Electronic Relaxation 1
   ENCUT  =  500.0 eV  36.75 Ry    6.06 a.u.  32.93 32.93113.93*2*pi/ulx,y,z
   ENINI  =  500.0     initial cutoff
   ENAUG  =  644.9 eV  augmentation charge cutoff
   NELM   =    600;   NELMIN=  2; NELMDL=  0     # of ELM steps 
   EDIFF  = 0.1E-03   stopping-criterion for ELM
   LREAL  =      T    real-space projection
   NLSPLINE    = F    spline interpolate recip. space projectors
   LCOMPAT=      F    compatible to vasp.4.4
   GGA_COMPAT  = F    GGA compatible to vasp.4.4-vasp.4.6
   LMAXPAW     = -100 max onsite density
   LMAXMIX     =    2 max onsite mixed and CHGCAR
   VOSKOWN=      0    Vosko Wilk Nusair interpolation
   ROPT   =   -0.00050  -0.00050  -0.00050  -0.00050
   ROPT   =   -0.00050
 Ionic relaxation
   EDIFFG = 0.1E-02   stopping-criterion for IOM
   NSW    =      0    number of steps for IOM
   NBLOCK =      1;   KBLOCK =      1    inner block; outer block 
   IBRION =     -1    ionic relax: 0-MD 1-quasi-New 2-CG
   NFREE  =      0    steps in history (QN), initial steepest desc. (CG)
   ISIF   =      2    stress and relaxation
   IWAVPR =     10    prediction:  0-non 1-charg 2-wave 3-comb
   ISYM   =      0    0-nonsym 1-usesym 2-fastsym
   LCORR  =      T    Harris-Foulkes like correction to forces

   POTIM  = 0.5000    time-step for ionic-motion
   TEIN   =    0.0    initial temperature
   TEBEG  =    0.0;   TEEND  =   0.0 temperature during run
   SMASS  =  -3.00    Nose mass-parameter (am)
   estimated Nose-frequenzy (Omega)   =  0.10E-29 period in steps = 0.13E+47 mass=  -0.745E-26a.u.
   SCALEE = 1.0000    scale energy and forces
   NPACO  =    256;   APACO  = 16.0  distance and # of slots for P.C.
   PSTRESS=    0.0 pullay stress

  Mass of Ions in am
   POMASS =   1.00 12.01 14.00126.90207.20
  Ionic Valenz
   ZVAL   =   1.00  4.00  5.00  7.00  4.00
  Atomic Wigner-Seitz radii
   RWIGS  =  -1.00 -1.00 -1.00 -1.00 -1.00
  virtual crystal weights 
   VCA    =   1.00  1.00  1.00  1.00  1.00
   NELECT =    1134.0000    total number of electrons
   NUPDOWN=      -1.0000    fix difference up-down

 DOS related values:
   EMIN   =  10.00;   EMAX   =-10.00  energy-range for DOS
   EFERMI =   0.00
   ISMEAR =     0;   SIGMA  =   0.05  broadening in eV -4-tet -1-fermi 0-gaus

 Electronic relaxation 2 (details)
   IALGO  =     38    algorithm
   LDIAG  =      T    sub-space diagonalisation (order eigenvalues)
   LSUBROT=      F    optimize rotation matrix (better conditioning)
   TURBO    =      0    0=normal 1=particle mesh
   IRESTART =      0    0=no restart 2=restart with 2 vectors
   NREBOOT  =      0    no. of reboots
   NMIN     =      0    reboot dimension
   EREF     =   0.00    reference energy to select bands
   IMIX   =      4    mixing-type and parameters
     AMIX     =   0.40;   BMIX     =  0.01
     AMIX_MAG =   1.60;   BMIX_MAG =  0.01
     AMIN     =   0.01
     WC   =   100.;   INIMIX=   1;  MIXPRE=   1;  MAXMIX= -45

 Intra band minimization:
   WEIMIN = 0.0000     energy-eigenvalue tresh-hold
   EBREAK =  0.34E-07  absolut break condition
   DEPER  =   0.30     relativ break condition  

   TIME   =   0.40     timestep for ELM

  volume/ion in A,a.u.               =      62.72       423.28
  Fermi-wavevector in a.u.,A,eV,Ry     =   0.624944  1.180972  5.313816  0.390554
  Thomas-Fermi vector in A             =   1.685677
 
 Write flags
   LWAVE        =      F    write WAVECAR
   LDOWNSAMPLE  =      F    k-point downsampling of WAVECAR
   LCHARG       =      T    write CHGCAR
   LVTOT        =      T    write LOCPOT, total local potential
   LVHAR        =      F    write LOCPOT, Hartree potential only
   LELF         =      F    write electronic localiz. function (ELF)
   LORBIT       =      0    0 simple, 1 ext, 2 COOP (PROOUT), +10 PAW based schemes


 Dipole corrections
   LMONO  =      F    monopole corrections only (constant potential shift)
   LDIPOL =      T    correct potential (dipole corrections)
   IDIPOL =      3    1-x, 2-y, 3-z, 4-all directions 
   EPSILON=  1.0000000 bulk dielectric constant

 Exchange correlation treatment:
   GGA     =    --    GGA type
   LEXCH   =     8    internal setting for exchange type
   VOSKOWN=      0    Vosko Wilk Nusair interpolation
   LHFCALC =     F    Hartree Fock is set to
   LHFONE  =     F    Hartree Fock one center treatment
   AEXX    =    0.0000 exact exchange contribution

 Linear response parameters
   LEPSILON=     F    determine dielectric tensor
   LRPA    =     F    only Hartree local field effects (RPA)
   LNABLA  =     F    use nabla operator in PAW spheres
   LVEL    =     F    velocity operator in full k-point grid
   LINTERFAST=   F  fast interpolation
   KINTER  =     0    interpolate to denser k-point grid
   CSHIFT  =0.1000    complex shift for real part using Kramers Kronig
   OMEGAMAX=  -1.0    maximum frequency
   DEG_THRESHOLD= 0.2000000E-02 threshold for treating states as degnerate
   RTIME   =   -0.100 relaxation time in fs
  (WPLASMAI=    0.000 imaginary part of plasma frequency in eV, 0.658/RTIME)
   DFIELD  = 0.0000000 0.0000000 0.0000000 field for delta impulse in time
 
 Orbital magnetization related:
   ORBITALMAG=     F  switch on orbital magnetization
   LCHIMAG   =     F  perturbation theory with respect to B field
   DQ        =  0.001000  dq finite difference perturbation B field
   LLRAUG    =     F  two centre corrections for induced B field



--------------------------------------------------------------------------------------------------------


 Static calculation
 charge density and potential will be updated during run
 non-spin polarized calculation
 Variant of blocked Davidson
 Davidson routine will perform the subspace rotation
 perform sub-space diagonalisation
    after iterative eigenvector-optimisation
 modified Broyden-mixing scheme, WC =      100.0
 initial mixing is a Kerker type mixing with AMIX =  0.4000 and BMIX =      0.0100
 Hartree-type preconditioning will be used
 using additional bands           165
 real space projection scheme for non local part
[...]
     13.54561      0.00000     45.35368         0.001559     -0.003709      0.014313
     13.54315      9.03140     45.35368         0.009155     -0.006833      0.008546
     14.00677     10.02221     32.54745        -0.024398     -0.011910      0.036746
     13.00470      8.58550     32.92584         0.164181     -0.055068     -0.179279
     15.77793      9.04613     33.91428        -0.022016      0.069212      0.005565
     15.45812      8.61163     35.59978        -0.025206      0.226892     -0.052334
     13.40403     11.56738     34.99543         0.148372     -0.251910     -0.010327
     14.48637     10.75932     36.15231         0.122677      0.060946     -0.043698
     12.05953      9.88087     35.67587        -0.283700      0.033677      0.025267
     12.24345      8.20117     35.07917        -0.178647      0.034805     -0.005839
     11.07220      9.94458     33.62368         0.320769      0.060203     -0.084061
     12.06706     11.42536     33.58851        -0.042148     -0.081703     -0.059378
     10.93803     11.68008     31.62395         0.210636     -0.536170     -0.058280
     12.39881     10.88458     31.03099        -0.040623     -0.091346     -0.094679
     14.67597      7.01056     33.09896        -0.007451     -0.050774      0.137844
     13.87140      6.74146     34.66897         0.054044     -0.038726     -0.095456
     15.61348      6.53238     34.55750        -0.122713      0.124020     -0.183748
     15.60260     12.49111     34.81538        -0.026790      0.061891      0.033830
     15.30816     11.66626     33.30347        -0.085509     -0.094454      0.019586
     16.39990     10.93989     34.53081        -0.169598      0.012433     -0.019559
     13.63372      9.44291     37.52708         0.079298      0.002676      0.138967
     14.00839      7.81640     36.88043         0.004643      0.004335      0.063366
     12.39910      8.17209     37.48796        -0.194312     -0.023372      0.166309
      9.64954      9.58358     31.56512         0.064313     -0.018660     -0.038893
     10.41779      9.92910     30.00182        -0.248966     -0.043986     -0.386667
     12.50703      8.62462     29.32151        -0.004771     -0.007603      0.138846
     10.13346      7.55928     32.73120        -0.244464      0.109134      0.187688
     13.74441      6.47696     29.50325        -0.090876      0.041150      0.033984
     11.35291      5.41779     32.92617        -0.019626     -0.001555      0.032943
     13.16496      4.87672     31.33654         0.092738     -0.177432      0.028389
      0.39620      4.49486     34.91434        -0.061397     -0.469845      0.729506
      0.46014     13.56460     34.92776         0.164898     -0.414086     -0.044439
      8.45157      4.04233     34.61126         0.624246     -0.043605     -0.055819
      9.18254     13.93112     34.89772         0.345495     -0.273753     -0.140396
      4.27701      9.41940     34.90973        -0.014656     -0.184127      0.179548
      4.39089      0.23376     34.69626        -0.043765     -0.085244      0.067254
     13.90537     17.71135     35.15371         0.066768      0.164696     -0.010847
      0.16924      4.40567     40.71856        -0.002621     -0.099232      1.327386
      0.15350     13.76918     40.76880         0.447059     -0.768964      0.444871
      8.81808      4.18931     40.81267         0.414282     -0.488330     -0.034264
      8.95885     13.68948     40.62612        -0.009253     -0.019437      0.507324
      4.57116      8.93874     40.57535         0.984788      1.088975     -0.013587
      4.53349     18.04809     40.52196        -0.925774     -0.921332      0.229505
     13.98374      8.89098     40.76350        -0.416514     -0.995156      0.088844
     13.60140     18.04077     40.61829        -0.958962     -0.918288      0.169691
      9.02897      4.51561     46.44552         0.008889      0.002473      0.016226
      9.02651     13.54701     46.44552         0.003770      0.010745      0.048907
     18.05937      4.51561     46.44552        -0.007889      0.026096      0.067414
     18.05691     13.54701     46.44552         0.023226     -0.000901      0.031588
      4.51521      0.00002     46.44421         0.000745     -0.001813      0.066208
      4.51275      9.03142     46.44421         0.000247      0.002776      0.041859
     13.54561      0.00002     46.44421        -0.002681     -0.006022      0.030439
     13.54315      9.03142     46.44421        -0.005501     -0.011332      0.026914
     11.24845      8.24444     31.03430        -0.089310      0.554726     -0.032438
     12.26213      7.92501     30.13000         0.160972      0.186888     -0.551258
     10.91721      7.32448     32.02105        -0.160716     -0.084514      0.165325
     12.94954      6.71936     30.21461         0.020489     -0.429028      0.348560
     11.59922      6.12290     32.13237         0.237817     -0.442270     -0.006995
     12.62347      5.81172     31.23881         0.113439      0.278953     -0.302406
     13.22613      9.61937     33.20538        -0.757706     -0.084131      0.157414
     15.03951      8.59836     34.58438        -0.131783     -0.508516     -0.010754
     14.27054     10.88665     35.08212        -0.065064      0.122228      0.231813
     12.73832      9.03316     35.59198         0.530749     -0.237082     -0.476275
     11.91247     10.44648     33.10118         0.495738     -0.016524      0.257950
     11.49696     10.70909     31.64017        -0.132950      0.452009      0.392343
     14.77277      7.14272     34.18613        -0.086829      0.385360      0.139094
     15.46064     11.49510     34.37819         0.326382      0.132733     -0.040344
     13.24537      8.59904     36.94968         0.190348      0.200937     -0.385109
     10.61005      9.60922     31.02574         0.128970      0.184520      0.017610
      0.32250      3.34606     35.57837        -0.128732      1.093620     -0.156469
      0.61099     12.44126     35.59139        -0.230495      0.090945      0.389786
      9.73705      3.99638     34.90339        -0.000967      0.092517      0.064274
      8.96155     12.78522     35.49257         0.013141     -0.130578     -0.080209
      7.62939      4.95254     35.06936        -0.040692      0.432020      0.471665
      8.48859     15.01834     35.07165        -1.064735      0.389484      0.737962
      0.00868      5.65240     35.40630         0.151155     -0.151802     -0.046733
     17.81200     14.59023     35.33995        -0.031740      0.115111      0.305396
      4.30020      8.18510     35.38387        -0.174827      0.108227     -0.365482
      3.25875     17.69869     35.02930         0.050229      0.321278     -0.263962
     12.61952     17.65381     35.42051         0.367985      0.284603      0.197208
      5.55486     18.02425     35.23543        -0.422956     -0.294973     -0.121837
      5.14326     10.34980     35.23033         0.074979     -0.391307     -0.047657
     14.70831      0.57385     35.63447         0.193495     -0.021945     -0.240526
      1.04137      3.48075     41.05669        -0.274221      0.341219     -0.654924
      0.89927     12.83732     41.34682        -0.920515      0.478366     -0.013576
     10.04605      3.85685     41.15730        -0.070754      0.405118      0.294181
      9.65258     12.90167     41.42682        -0.336850      0.337230     -0.119132
      3.86274      8.02738     41.16782        -0.105603     -0.175623      0.986219
      3.67254     17.25480     41.14342         1.064257      1.110039      0.992934
     13.03542      8.33882     41.49158        -0.355795     -0.121041      0.057486
     12.69534     17.29281     41.22536         0.705593      1.030794      1.020185
      8.14840      5.19688     41.29431        -0.028201      0.665507      0.400950
      8.07025     14.57787     41.01108         0.083495     -0.013862     -0.180148
     17.49067      5.10372     41.56663         0.337496     -0.343293     -0.169846
     17.05211     14.19445     41.19106        -0.130652      0.022874      0.282098
      5.35217      0.82358     41.08426         0.440697      0.478588      1.021858
      5.36910      9.82252     41.15899        -0.818780     -1.123397      1.164560
     14.32601      0.91078     41.16948         0.235449      0.456296      0.686305
     14.47376     10.07490     40.94553         1.167665      1.234102     -0.417952
      0.82731      3.68697     47.03596         0.029710     -0.037508     -0.100104
      0.82485     12.71837     47.03596         0.012180     -0.019190     -0.078253
      9.85771      3.68697     47.03596         0.022602     -0.026774     -0.080964
      9.85525     12.71837     47.03596         0.028432     -0.026894     -0.100172
      3.68432      8.20234     47.03465        -0.012579     -0.013823     -0.068933
      3.68186     17.23373     47.03465        -0.009226     -0.003832     -0.069687
     12.71472      8.20234     47.03465        -0.011922     -0.009593     -0.081265
     12.71226     17.23373     47.03465        -0.010919     -0.012036     -0.067223
      8.20068      5.34457     47.03603        -0.022196      0.019153     -0.084252
      8.19822     14.37597     47.03603        -0.013905      0.013679     -0.100327
     17.23108      5.34457     47.03603        -0.001582     -0.001734     -0.095893
     17.22862     14.37597     47.03603        -0.023811      0.020304     -0.074448
      5.34365      0.82909     47.03465         0.005339      0.006057     -0.066656
      5.34119      9.86049     47.03465         0.010925      0.009641     -0.071575
     14.37405      0.82909     47.03465         0.018865      0.014721     -0.066451
     14.37159      9.86049     47.03465         0.017787      0.023102     -0.077971
     13.82895      9.52065     34.60068        -0.199471      0.142384      0.224525
      9.12760      0.34826     34.56448        -0.020230      0.061888     -0.067103
      8.53023      9.13255     34.74559         0.051682     -0.023595      0.045468
     17.89313     18.03985     34.36526         0.085248      0.016211      0.011678
      0.69020      8.94509     34.56450         0.018561      0.108966     -0.026400
      4.17666      4.22357     34.59499        -0.043280      0.034500     -0.112405
      4.62805     13.75615     34.57107        -0.059440      0.090250      0.047111
     13.36285      3.71770     34.69516        -0.012474     -0.037391      0.030585
     12.82346     14.27486     34.30787         0.016791     -0.030779      0.276480
      0.02533     17.87293     40.92017        -0.001371     -0.010664     -0.057845
      0.19672      8.94084     40.97300         0.010003      0.000825     -0.029678
      9.03145      0.15953     40.91073        -0.032877     -0.002909      0.035448
      9.16935      8.89287     40.96916         0.018792     -0.015893     -0.005749
      4.64743      4.41054     40.91177         0.000426      0.005908      0.017768
      4.50158     13.58733     40.93195        -0.017087      0.008942     -0.067473
     13.47643      4.81922     40.91188         0.018763     -0.078007     -0.001630
     13.54276     13.58361     40.86809        -0.022490      0.036108     -0.007076
      2.48532      1.89813     38.05490         0.009642      0.028609      0.030412
      2.65692     10.97213     38.12205        -0.000423     -0.011148     -0.002267
     11.71592      1.86746     38.22981         0.064197      0.057389     -0.008442
     11.14744     11.49205     38.37765         0.001125     -0.249131     -0.228336
      6.47908      7.03113     38.04351        -0.063361     -0.082306     -0.082844
      6.59487     16.03942     37.96068         0.045897     -0.056371      0.052296
     16.13238      6.55067     38.35674        -0.079337      0.048700     -0.239774
     15.71868     15.81470     38.08962        -0.017882     -0.000050     -0.072136
      2.17630      6.46854     38.16061         0.018769      0.066591      0.017149
      2.18901     15.72383     37.95185        -0.005661     -0.010068     -0.053831
     10.47220      5.95368     37.74233         0.112258      0.041628      0.027800
     11.10016     15.71741     38.19719         0.047875     -0.046333      0.004346
      6.94774      2.39987     37.86458         0.008155      0.000404      0.045081
      6.98902     11.50127     38.16175        -0.020433     -0.074710      0.075484
     16.07383      2.50336     38.35075        -0.072104      0.015796     -0.073394
     16.44131     11.63529     38.40716        -0.121770     -0.011371     -0.352248
      0.00000      0.00000     47.17356         0.000447      0.006360      0.345964
     -0.00246      9.03140     47.17356        -0.002588      0.001648      0.442244
      9.03040      0.00000     47.17356         0.000573     -0.001352      0.405001
      9.02794      9.03140     47.17356         0.005431      0.000016      0.504284
      4.51398      4.51570     47.17425        -0.002546     -0.004656      0.429002
      4.51152     13.54710     47.17425         0.004611      0.002491      0.474587
     13.54438      4.51570     47.17425         0.001032      0.000455      0.437795
     13.54192     13.54710     47.17425        -0.002870     -0.005191      0.371648
      2.45192      2.06295     44.04013         0.023255     -0.044710      0.009740
      2.44946     11.09435     44.04013         0.041299     -0.046215      0.054004
     11.48232      2.06295     44.04013         0.081463     -0.045537     -0.041519
     11.47986     11.09435     44.04013         0.061578     -0.041666     -0.045552
      6.57602      6.96845     44.04013        -0.052149      0.048621     -0.004755
      6.57356     15.99985     44.04013         0.016947      0.020229     -0.032871
     15.60642      6.96845     44.04013         0.035137     -0.011809      0.057332
     15.60396     15.99985     44.04013        -0.033448      0.010242      0.011791
      2.06108      6.57881     44.04000         0.050341     -0.039487      0.013914
      2.05862     15.61021     44.04000         0.021014      0.064953      0.020143
     11.09148      6.57881     44.04000        -0.053924     -0.080519     -0.003831
     11.08902     15.61021     44.04000        -0.028846     -0.011363     -0.005728
      6.96686      2.45259     44.04007        -0.056816     -0.065095      0.006160
      6.96440     11.48399     44.04007         0.030362     -0.003604     -0.025369
     15.99726      2.45259     44.04007         0.001341      0.012596     -0.042652
     15.99481     11.48399     44.04007         0.010163      0.078724     -0.095746
      2.43163      2.08322     50.06849         0.001270     -0.018676      0.020873
      2.42917     11.11462     50.06849         0.007856     -0.012443      0.024275
     11.46203      2.08322     50.06849         0.008503     -0.014092      0.023936
     11.45957     11.11462     50.06849         0.021838      0.001748      0.021129
      6.59631      6.94818     50.06849        -0.016506      0.003363      0.023571
      6.59385     15.97958     50.06849        -0.003381      0.015870      0.021955
     15.62671      6.94818     50.06849        -0.010118      0.008793      0.022600
     15.62425     15.97958     50.06849        -0.008183      0.013150      0.022898
      2.08113      6.59901     50.06905        -0.010693     -0.012002      0.023026
      2.07867     15.63041     50.06905        -0.021849      0.002298      0.023025
     11.11153      6.59901     50.06905        -0.002775     -0.015955      0.022762
     11.10907     15.63041     50.06905        -0.006274     -0.014726      0.022606
      6.94681      2.43239     50.06905         0.012077      0.006328      0.023431
      6.94435     11.46379     50.06905         0.008465      0.012861      0.023524
     15.97721      2.43239     50.06905         0.018825      0.001711      0.022591
     15.97475     11.46379     50.06905         0.003083      0.015845      0.022101
     17.92094     18.03182     37.87106         0.067228     -0.032467     -0.032160
      0.17080      9.00920     37.89445        -0.043902      0.024377     -0.020534
      9.07587      0.16643     37.78310        -0.119760     -0.099256     -0.100299
      8.97206      8.89762     37.81037         0.000692      0.041933     -0.058031
      4.40722      4.34935     37.72358         0.025740      0.040301     -0.017091
      4.47959     13.48125     37.71491         0.011644      0.035890     -0.036539
     13.34609      4.45615     37.66907         0.079736      0.073805      0.035520
     13.24918     13.62655     37.62302         0.044726      0.081630     -0.007782
      0.00001      0.00001     44.04300        -0.046354     -0.127678      0.237297
     -0.00245      9.03141     44.04300         0.001850     -0.059856      0.209259
      9.03041      0.00001     44.04300        -0.007156      0.066935      0.143686
      9.02795      9.03141     44.04300        -0.065553      0.007832      0.134202
      4.51397      4.51569     44.04275         0.066139      0.015234      0.135455
      4.51151     13.54709     44.04275        -0.080399     -0.020608      0.093640
     13.54437      4.51569     44.04275         0.034280      0.054786      0.130904
     13.54191     13.54709     44.04275        -0.029041      0.128181      0.066467
      0.00000      0.00000     50.44728         0.004753     -0.000531     -0.609681
     -0.00246      9.03140     50.44728         0.006067     -0.001471     -0.636126
      9.03040      0.00000     50.44728        -0.004840      0.003384     -0.626883
      9.02794      9.03140     50.44728        -0.005748     -0.002815     -0.650267
      4.51397      4.51570     50.44728         0.007786      0.010423     -0.633063
      4.51151     13.54710     50.44728         0.005932     -0.011044     -0.646623
     13.54437      4.51570     50.44728        -0.008526      0.009000     -0.637035
     13.54191     13.54710     50.44728        -0.004784     -0.009995     -0.616416
 -----------------------------------------------------------------------------------
    total drift:                               -0.030263      0.139136      0.332306


--------------------------------------------------------------------------------------------------------



  FREE ENERGIE OF THE ION-ELECTRON SYSTEM (eV)
  ---------------------------------------------------
  free  energy   TOTEN  =     -1574.93406495 eV

  energy  without entropy=    -1574.93406495  energy(sigma->0) =    -1574.93406495
 


--------------------------------------------------------------------------------------------------------


    POTLOK:  cpu time    0.5005: real time    0.5004


--------------------------------------------------------------------------------------------------------


     LOOP+:  cpu time  303.7181: real time  304.2884
 vacuum level on the upper side and lower side of the slab         2.277         1.596
    4ORBIT:  cpu time    0.0000: real time    0.0000

 total amount of memory used by VASP MPI-rank0  8653579. kBytes
=======================================================================

   base      :      30000. kBytes
   nonlr-proj:      53617. kBytes
   fftplans  :     249280. kBytes
   grid      :     701440. kBytes
   one-center:       2636. kBytes
   wavefun   :    7616606. kBytes
 
  
  
 General timing and accounting informations for this job:
 ========================================================
  
                  Total CPU time used (sec):      518.152
                            User time (sec):      419.574
                          System time (sec):       98.579
                         Elapsed time (sec):      519.393
  
                   Maximum memory used (kb):    10306500.
                   Average memory used (kb):          N/A
  
                          Minor page faults:      3685046
                          Major page faults:           12
                 Voluntary context switches:        11091
