<?xml version="1.0" encoding="ISO-8859-1"?>
<modeling>
 <generator>
  <i name="program" type="string">vasp </i>
  <i name="version" type="string">6.2.1  </i>
  <i name="subversion" type="string">16May21 (build Nov 15 2021 14:57:28) complex                          parallel </i>
  <i name="platform" type="string">LinuxPGI </i>
  <i name="date" type="string">2023 07 24 </i>
  <i name="time" type="string">23:50:21 </i>
 </generator>
 <incar>
  <i type="string" name="SYSTEM">PSC</i>
  <i type="int" name="ISTART">     1</i>
  <i type="string" name="PREC">Normal</i>
  <i name="BMIX">      0.01000000</i>
  <i name="AMIN">      0.01000000</i>
  <i type="int" name="ICHARG">     1</i>
  <i type="int" name="NELM">   600</i>
  <i type="int" name="ISYM">     0</i>
  <i name="ENCUT">    500.00000000</i>
  <i type="string" name="LREAL">Auto</i>
  <i type="int" name="ISMEAR">     0</i>
  <i name="SIGMA">      0.05000000</i>
  <i type="logical" name="LWAVE"> F  </i>
  <i type="logical" name="LVTOT"> T  </i>
  <i type="logical" name="GGA_COMPAT"> F  </i>
  <i type="logical" name="LDIPOL"> T  </i>
  <i type="int" name="IDIPOL">     3</i>
  <i type="int" name="IVDW">    12</i>
 </incar>
 <primitive_cell>
  <structure name="primitive_cell" >
   <crystal>
    <varray name="basis" >
     <v>      18.06080055       0.00000000       0.00000000 </v>
     <v>      -0.00491865      18.06279945       0.00000000 </v>
     <v>       0.00000000       0.00000000      62.48749924 </v>
    </varray>
    <i name="volume">  20385.21054034 </i>
    <varray name="rec_basis" >
     <v>       0.05536853       0.00001508      -0.00000000 </v>
     <v>       0.00000000       0.05536240       0.00000000 </v>
     <v>       0.00000000      -0.00000000       0.01600320 </v>
    </varray>
   </crystal>
   <varray name="positions" >
    <v>       0.43785317       0.31241533       0.57273876 </v>
    <v>       0.42687075       0.83504704       0.57240227 </v>
    <v>       0.97950637       0.31896040       0.58192486 </v>
    <v>       0.96212530       0.81050345       0.58049214 </v>
    <v>       0.31297974       0.95695401       0.57534335 </v>
    <v>       0.32714108       0.56300646       0.57443069 </v>
    <v>       0.79552527       0.07301973       0.57998539 </v>
    <v>       0.03122796       0.13704783       0.56192172 </v>
    <v>       0.05964606       0.64301720       0.56327160 </v>
    <v>       0.57346853       0.18130125       0.55257744 </v>
    <v>       0.52605466       0.66201397       0.56435165 </v>
    <v>       0.35577676       0.02057621       0.55825778 </v>
    <v>       0.28028686       0.62513024       0.55738230 </v>
    <v>       0.86837916       0.03537794       0.56491304 </v>
    <v>       0.00063458       0.18374885       0.58513321 </v>
    <v>       0.01018589       0.68203444       0.58452585 </v>
    <v>       0.56153834       0.25604214       0.57005341 </v>
    <v>       0.45657606       0.69880262       0.57924305 </v>
    <v>       0.27892213       0.43446673       0.57648310 </v>
    <v>       0.17656584       0.94045652       0.57238749 </v>
    <v>       0.67561444       0.01446485       0.57739606 </v>
    <v>       0.36670842       0.26936577       0.55831498 </v>
    <v>       0.48673326       0.88100079       0.55480591 </v>
    <v>       0.01761204       0.36119801       0.55929863 </v>
    <v>       0.99018819       0.85789715       0.55795956 </v>
    <v>       0.19571117       0.41794588       0.56253848 </v>
    <v>       0.13123702       0.99857483       0.55436082 </v>
    <v>       0.67175642       0.93096562       0.56218074 </v>
    <v>       0.44720091       0.18175816       0.54283556 </v>
    <v>       0.55627541       0.77432530       0.54774542 </v>
    <v>       0.04572771       0.24837391       0.54267940 </v>
    <v>       0.05324140       0.75425510       0.54346606 </v>
    <v>       0.19158919       0.53608771       0.54768907 </v>
    <v>       0.24049725       0.05627206       0.54291987 </v>
    <v>       0.79298482       0.93800127       0.55185714 </v>
    <v>       0.47119531       0.32363812       0.67225232 </v>
    <v>       0.43335318       0.81721351       0.67198963 </v>
    <v>       0.97019553       0.27712625       0.68150282 </v>
    <v>       0.91843896       0.76636320       0.67263875 </v>
    <v>       0.30122753       0.05452023       0.67382282 </v>
    <v>       0.30566369       0.54594340       0.67505818 </v>
    <v>       0.79054326       0.06567880       0.67478273 </v>
    <v>       0.78857366       0.59257729       0.66762481 </v>
    <v>       0.08621981       0.16652013       0.64497501 </v>
    <v>       0.09952344       0.69780443       0.65512682 </v>
    <v>       0.58041361       0.16883177       0.65165689 </v>
    <v>       0.57095956       0.67837994       0.65623978 </v>
    <v>       0.18257238       0.41023115       0.64986185 </v>
    <v>       0.17195318       0.92128377       0.64992638 </v>
    <v>       0.70590198       0.40791666       0.66093658 </v>
    <v>       0.67504339       0.91953412       0.65131881 </v>
    <v>       0.06867471       0.17858414       0.67244437 </v>
    <v>       0.03481157       0.68363490       0.67538032 </v>
    <v>       0.58671580       0.24282844       0.66983240 </v>
    <v>       0.52994899       0.71421491       0.67923455 </v>
    <v>       0.21142366       0.43705566       0.67518546 </v>
    <v>       0.19765282       0.95342910       0.67488199 </v>
    <v>       0.69526605       0.48806365       0.67635635 </v>
    <v>       0.69108253       0.96242535       0.67586492 </v>
    <v>       0.39767291       0.29500772       0.65614118 </v>
    <v>       0.42088035       0.83785873       0.64474407 </v>
    <v>       0.93317699       0.32095370       0.65924941 </v>
    <v>       0.91711097       0.82604693       0.65089490 </v>
    <v>       0.32999633       0.07623695       0.64799338 </v>
    <v>       0.32486278       0.58039987       0.64973432 </v>
    <v>       0.83023508       0.07817762       0.64955405 </v>
    <v>       0.84300112       0.57780127       0.64499186 </v>
    <v>       0.00263817       0.25534033       0.63496831 </v>
    <v>       0.03152111       0.78575152       0.63789944 </v>
    <v>       0.45985155       0.19713788       0.64131986 </v>
    <v>       0.50656516       0.75264630       0.63308182 </v>
    <v>       0.25265634       0.99565493       0.63121426 </v>
    <v>       0.25173387       0.49901960       0.63202320 </v>
    <v>       0.76033197       0.98654032       0.63315746 </v>
    <v>       0.79779447       0.45778665       0.63948435 </v>
    <v>       0.44874502       0.30128397       0.76888902 </v>
    <v>       0.44874501       0.80128391       0.76888902 </v>
    <v>       0.94874497       0.30128397       0.76888902 </v>
    <v>       0.94874501       0.80128391       0.76888902 </v>
    <v>       0.30127600       0.05129450       0.76887296 </v>
    <v>       0.30127601       0.55129450       0.76887296 </v>
    <v>       0.80127594       0.05129450       0.76887296 </v>
    <v>       0.80127598       0.55129450       0.76887296 </v>
    <v>       0.07877100       0.17118050       0.74344197 </v>
    <v>       0.07877101       0.67118045       0.74344197 </v>
    <v>       0.57877100       0.17118050       0.74344197 </v>
    <v>       0.57877099       0.67118045       0.74344197 </v>
    <v>       0.17119950       0.42117448       0.74342103 </v>
    <v>       0.17119950       0.92117451       0.74342103 </v>
    <v>       0.67119951       0.42117448       0.74342103 </v>
    <v>       0.67119950       0.92117451       0.74342103 </v>
    <v>       0.05125600       0.19871499       0.76888902 </v>
    <v>       0.05125600       0.69871493       0.76888902 </v>
    <v>       0.55125603       0.19871499       0.76888902 </v>
    <v>       0.55125602       0.69871493       0.76888902 </v>
    <v>       0.19872349       0.44870397       0.76887205 </v>
    <v>       0.19872349       0.94870397       0.76887205 </v>
    <v>       0.69872352       0.44870397       0.76887205 </v>
    <v>       0.69872351       0.94870397       0.76887205 </v>
    <v>       0.42123152       0.32881747       0.74344197 </v>
    <v>       0.42123151       0.82881744       0.74344197 </v>
    <v>       0.92123147       0.32881747       0.74344197 </v>
    <v>       0.92123151       0.82881744       0.74344197 </v>
    <v>       0.32880050       0.07882500       0.74342103 </v>
    <v>       0.32880049       0.57882496       0.74342103 </v>
    <v>       0.82880048       0.07882500       0.74342103 </v>
    <v>       0.82880052       0.57882496       0.74342103 </v>
    <v>       0.00000350       0.25000148       0.72582199 </v>
    <v>       0.00000350       0.75000145       0.72582199 </v>
    <v>       0.50000351       0.25000148       0.72582199 </v>
    <v>       0.50000350       0.75000145       0.72582199 </v>
    <v>       0.25000050       0.00000000       0.72580398 </v>
    <v>       0.25000052       0.50000000       0.72580398 </v>
    <v>       0.75000050       0.00000000       0.72580398 </v>
    <v>       0.75000049       0.50000000       0.72580398 </v>
    <v>       0.77568540       0.55485380       0.52086340 </v>
    <v>       0.72018073       0.47531401       0.52691887 </v>
    <v>       0.87373732       0.50081530       0.54273703 </v>
    <v>       0.85602321       0.47676067       0.56971038 </v>
    <v>       0.74233606       0.64039786       0.56003883 </v>
    <v>       0.80225147       0.59566168       0.57855273 </v>
    <v>       0.66786719       0.54702897       0.57092816 </v>
    <v>       0.67802577       0.45403643       0.56137901 </v>
    <v>       0.61320127       0.55055597       0.53808657 </v>
    <v>       0.66830757       0.63253543       0.53752371 </v>
    <v>       0.60579877       0.64663744       0.50608450 </v>
    <v>       0.68666824       0.60259676       0.49659517 </v>
    <v>       0.81269261       0.38812156       0.52968938 </v>
    <v>       0.76814063       0.37322326       0.55481446 </v>
    <v>       0.86459398       0.36164808       0.55303053 </v>
    <v>       0.86408117       0.69153803       0.55715752 </v>
    <v>       0.84776633       0.64587219       0.53296207 </v>
    <v>       0.90820356       0.60565860       0.55260351 </v>
    <v>       0.75502129       0.52278210       0.60055341 </v>
    <v>       0.77574164       0.43273483       0.59020490 </v>
    <v>       0.68664319       0.45242647       0.59992737 </v>
    <v>       0.53442524       0.53056976       0.50514290 </v>
    <v>       0.57696746       0.54969879       0.48012514 </v>
    <v>       0.69262610       0.47747962       0.46923808 </v>
    <v>       0.56118872       0.41849978       0.52380392 </v>
    <v>       0.76110558       0.35857987       0.47214650 </v>
    <v>       0.62867548       0.29994198       0.52692412 </v>
    <v>       0.72899781       0.26998702       0.50148492 </v>
    <v>       0.02200458       0.24884605       0.55874121 </v>
    <v>       0.02568202       0.75096886       0.55895598 </v>
    <v>       0.46801220       0.22379304       0.55389088 </v>
    <v>       0.50863400       0.77126050       0.55847517 </v>
    <v>       0.23695359       0.52148048       0.55866747 </v>
    <v>       0.24312042       0.01294126       0.55525119 </v>
    <v>       0.77018680       0.98054315       0.56257181 </v>
    <v>       0.00943676       0.24390876       0.65162722 </v>
    <v>       0.00870648       0.76229513       0.65243134 </v>
    <v>       0.48830751       0.23193020       0.65313332 </v>
    <v>       0.49624460       0.75788267       0.65014792 </v>
    <v>       0.25323336       0.49487002       0.64933550 </v>
    <v>       0.25128465       0.99918589       0.64848102 </v>
    <v>       0.77439293       0.49222601       0.65234642 </v>
    <v>       0.75336180       0.99878026       0.65002259 </v>
    <v>       0.49998898       0.24999498       0.74327702 </v>
    <v>       0.49998903       0.74999496       0.74327702 </v>
    <v>       0.99998898       0.24999498       0.74327702 </v>
    <v>       0.99998903       0.74999496       0.74327702 </v>
    <v>       0.25000050       0.00000100       0.74325596 </v>
    <v>       0.25000052       0.50000100       0.74325596 </v>
    <v>       0.75000050       0.00000100       0.74325596 </v>
    <v>       0.75000049       0.50000100       0.74325596 </v>
    <v>       0.62293437       0.45643192       0.49664816 </v>
    <v>       0.67905587       0.43874754       0.48217652 </v>
    <v>       0.60458035       0.40550082       0.51243929 </v>
    <v>       0.71709822       0.37200015       0.48353040 </v>
    <v>       0.64232416       0.33897857       0.51422077 </v>
    <v>       0.69903037       0.32175057       0.49992088 </v>
    <v>       0.73245656       0.53255137       0.53139242 </v>
    <v>       0.83284494       0.47602578       0.55346080 </v>
    <v>       0.79030289       0.60271138       0.56142613 </v>
    <v>       0.70543802       0.50009741       0.56958560 </v>
    <v>       0.65973368       0.57834239       0.52972479 </v>
    <v>       0.63673150       0.59288087       0.50634398 </v>
    <v>       0.81805432       0.39543840       0.54708745 </v>
    <v>       0.85620608       0.63639632       0.55016113 </v>
    <v>       0.73350643       0.47606379       0.59131322 </v>
    <v>       0.58760783       0.53198949       0.49651111 </v>
    <v>       0.01790671       0.18524574       0.56936773 </v>
    <v>       0.03401702       0.68877829       0.56957614 </v>
    <v>       0.53918647       0.22124913       0.55856588 </v>
    <v>       0.49638088       0.70782058       0.56799477 </v>
    <v>       0.42250280       0.27418465       0.56122193 </v>
    <v>       0.47022695       0.83145115       0.56125868 </v>
    <v>       0.00056584       0.31293029       0.56661418 </v>
    <v>       0.98644406       0.80774994       0.56555227 </v>
    <v>       0.23821930       0.45314705       0.56625510 </v>
    <v>       0.18069906       0.97984196       0.56058093 </v>
    <v>       0.69899055       0.97735759       0.56684152 </v>
    <v>       0.30783625       0.99786605       0.56387963 </v>
    <v>       0.28493061       0.57298987       0.56379807 </v>
    <v>       0.81438629       0.03176997       0.57026561 </v>
    <v>       0.05771188       0.19270252       0.65703840 </v>
    <v>       0.04998477       0.71070465       0.66168154 </v>
    <v>       0.55629340       0.21352468       0.65864852 </v>
    <v>       0.53464361       0.71426723       0.66296164 </v>
    <v>       0.21399513       0.44441500       0.65881695 </v>
    <v>       0.20360323       0.95526724       0.65842643 </v>
    <v>       0.72187755       0.46165699       0.66399816 </v>
    <v>       0.70318320       0.95737158       0.65973773 </v>
    <v>       0.45124347       0.28771163       0.66084116 </v>
    <v>       0.44705745       0.80706600       0.65630852 </v>
    <v>       0.96850989       0.28255443       0.66519909 </v>
    <v>       0.94436446       0.78583905       0.65918879 </v>
    <v>       0.29635442       0.04559537       0.65747971 </v>
    <v>       0.29742718       0.54379855       0.65867563 </v>
    <v>       0.79322396       0.05042270       0.65884351 </v>
    <v>       0.80154287       0.55777077       0.65525960 </v>
    <v>       0.04586250       0.20411950       0.75272599 </v>
    <v>       0.04586250       0.70411946       0.75272599 </v>
    <v>       0.54586251       0.20411950       0.75272599 </v>
    <v>       0.54586250       0.70411946       0.75272599 </v>
    <v>       0.20411900       0.45410100       0.75270499 </v>
    <v>       0.20411899       0.95410095       0.75270499 </v>
    <v>       0.70411898       0.45410100       0.75270499 </v>
    <v>       0.70411896       0.95410095       0.75270499 </v>
    <v>       0.45414002       0.29588849       0.75272697 </v>
    <v>       0.45414001       0.79588852       0.75272697 </v>
    <v>       0.95414002       0.29588849       0.75272697 </v>
    <v>       0.95414006       0.79588852       0.75272697 </v>
    <v>       0.29588249       0.04590050       0.75270499 </v>
    <v>       0.29588248       0.54590053       0.75270499 </v>
    <v>       0.79588244       0.04590050       0.75270499 </v>
    <v>       0.79588248       0.54590053       0.75270499 </v>
    <v>       0.76583230       0.52708591       0.55372165 </v>
    <v>       0.50538694       0.01928046       0.55314237 </v>
    <v>       0.47244403       0.50560015       0.55604066 </v>
    <v>       0.99098857       0.99872931       0.54995424 </v>
    <v>       0.03835011       0.49522191       0.55314268 </v>
    <v>       0.23131945       0.23382725       0.55363063 </v>
    <v>       0.25645554       0.76157365       0.55324774 </v>
    <v>       0.73993739       0.20582081       0.55523367 </v>
    <v>       0.71023162       0.79029059       0.54903578 </v>
    <v>       0.00167220       0.98948856       0.65485376 </v>
    <v>       0.01102664       0.49498654       0.65569908 </v>
    <v>       0.50006049       0.00883176       0.65470260 </v>
    <v>       0.50782766       0.49233087       0.65563767 </v>
    <v>       0.25738800       0.24417837       0.65471927 </v>
    <v>       0.24945098       0.75222724       0.65504215 </v>
    <v>       0.74624290       0.26680345       0.65472110 </v>
    <v>       0.75004769       0.75202154       0.65402022 </v>
    <v>       0.13763739       0.10508516       0.60900029 </v>
    <v>       0.14727533       0.60744348       0.61007484 </v>
    <v>       0.64872152       0.10338732       0.61179937 </v>
    <v>       0.61739091       0.63622758       0.61416520 </v>
    <v>       0.35884319       0.38926014       0.60881800 </v>
    <v>       0.36539037       0.88798070       0.60749242 </v>
    <v>       0.89332503       0.36266095       0.61383054 </v>
    <v>       0.87055879       0.87553955       0.60955582 </v>
    <v>       0.12059607       0.35811394       0.61069185 </v>
    <v>       0.12143953       0.87050878       0.60735109 </v>
    <v>       0.57992033       0.32960999       0.60399807 </v>
    <v>       0.61483641       0.87015387       0.61127723 </v>
    <v>       0.38472224       0.13286267       0.60595451 </v>
    <v>       0.38714523       0.63673771       0.61071010 </v>
    <v>       0.89002208       0.13859203       0.61373469 </v>
    <v>       0.91050635       0.64415753       0.61463746 </v>
    <v>       0.00000000       0.00000000       0.75492797 </v>
    <v>       0.00000000       0.50000000       0.75492797 </v>
    <v>       0.50000000       0.00000000       0.75492797 </v>
    <v>       0.49999999       0.50000000       0.75492797 </v>
    <v>       0.25000050       0.25000000       0.75493902 </v>
    <v>       0.25000051       0.74999997       0.75493902 </v>
    <v>       0.75000047       0.25000000       0.75493902 </v>
    <v>       0.75000046       0.74999997       0.75493902 </v>
    <v>       0.13579050       0.11421000       0.70478299 </v>
    <v>       0.13579050       0.61420998       0.70478299 </v>
    <v>       0.63579045       0.11421000       0.70478299 </v>
    <v>       0.63579049       0.61420998       0.70478299 </v>
    <v>       0.36420952       0.38578999       0.70478299 </v>
    <v>       0.36420950       0.88578996       0.70478299 </v>
    <v>       0.86420954       0.38578999       0.70478299 </v>
    <v>       0.86420953       0.88578996       0.70478299 </v>
    <v>       0.11421799       0.36421899       0.70478098 </v>
    <v>       0.11421799       0.86421899       0.70478098 </v>
    <v>       0.61421800       0.36421899       0.70478098 </v>
    <v>       0.61421799       0.86421899       0.70478098 </v>
    <v>       0.38578201       0.13578149       0.70478202 </v>
    <v>       0.38578200       0.63578149       0.70478202 </v>
    <v>       0.88578199       0.13578149       0.70478202 </v>
    <v>       0.88578203       0.63578149       0.70478202 </v>
    <v>       0.13466700       0.11533200       0.80125603 </v>
    <v>       0.13466699       0.61533199       0.80125603 </v>
    <v>       0.63466699       0.11533200       0.80125603 </v>
    <v>       0.63466698       0.61533199       0.80125603 </v>
    <v>       0.36533300       0.38466799       0.80125603 </v>
    <v>       0.36533299       0.88466796       0.80125603 </v>
    <v>       0.86533295       0.38466799       0.80125603 </v>
    <v>       0.86533294       0.88466796       0.80125603 </v>
    <v>       0.11532850       0.36533700       0.80126500 </v>
    <v>       0.11532850       0.86533698       0.80126500 </v>
    <v>       0.61532850       0.36533700       0.80126500 </v>
    <v>       0.61532849       0.86533698       0.80126500 </v>
    <v>       0.38467151       0.13466300       0.80126500 </v>
    <v>       0.38467150       0.63466297       0.80126500 </v>
    <v>       0.88467149       0.13466300       0.80126500 </v>
    <v>       0.88467153       0.63466297       0.80126500 </v>
    <v>       0.99252824       0.99828466       0.60605817 </v>
    <v>       0.00959255       0.49877124       0.60643257 </v>
    <v>       0.50252008       0.00921398       0.60465048 </v>
    <v>       0.49690416       0.49259380       0.60508697 </v>
    <v>       0.24408660       0.24079031       0.60369802 </v>
    <v>       0.24823155       0.74635445       0.60355932 </v>
    <v>       0.73902045       0.24670310       0.60282565 </v>
    <v>       0.73379292       0.75439876       0.60208869 </v>
    <v>       0.00000050       0.00000050       0.70482896 </v>
    <v>       0.00000050       0.50000048       0.70482896 </v>
    <v>       0.50000048       0.00000050       0.70482896 </v>
    <v>       0.50000046       0.50000048       0.70482896 </v>
    <v>       0.24999999       0.24999947       0.70482499 </v>
    <v>       0.25000001       0.74999950       0.70482499 </v>
    <v>       0.74999999       0.24999947       0.70482499 </v>
    <v>       0.74999998       0.74999950       0.70482499 </v>
    <v>       0.00000000       0.00000000       0.80731797 </v>
    <v>       0.00000000       0.50000000       0.80731797 </v>
    <v>       0.50000000       0.00000000       0.80731797 </v>
    <v>       0.49999999       0.50000000       0.80731797 </v>
    <v>       0.24999999       0.25000000       0.80731797 </v>
    <v>       0.25000001       0.74999997       0.80731797 </v>
    <v>       0.74999999       0.25000000       0.80731797 </v>
    <v>       0.74999998       0.74999997       0.80731797 </v>
   </varray>
  </structure>
  <varray name="primitive_index" >
   <v type="int" >        1 </v>
   <v type="int" >        2 </v>
   <v type="int" >        3 </v>
   <v type="int" >        4 </v>
   <v type="int" >        5 </v>
   <v type="int" >        6 </v>
   <v type="int" >        7 </v>
   <v type="int" >        8 </v>
   <v type="int" >        9 </v>
   <v type="int" >       10 </v>
   <v type="int" >       11 </v>
   <v type="int" >       12 </v>
   <v type="int" >       13 </v>
   <v type="int" >       14 </v>
   <v type="int" >       15 </v>
   <v type="int" >       16 </v>
   <v type="int" >       17 </v>
   <v type="int" >       18 </v>
   <v type="int" >       19 </v>
   <v type="int" >       20 </v>
   <v type="int" >       21 </v>
   <v type="int" >       22 </v>
   <v type="int" >       23 </v>
   <v type="int" >       24 </v>
   <v type="int" >       25 </v>
   <v type="int" >       26 </v>
   <v type="int" >       27 </v>
   <v type="int" >       28 </v>
   <v type="int" >       29 </v>
   <v type="int" >       30 </v>
   <v type="int" >       31 </v>
   <v type="int" >       32 </v>
   <v type="int" >       33 </v>
   <v type="int" >       34 </v>
   <v type="int" >       35 </v>
   <v type="int" >       36 </v>
   <v type="int" >       37 </v>
   <v type="int" >       38 </v>
   <v type="int" >       39 </v>
   <v type="int" >       40 </v>
   <v type="int" >       41 </v>
   <v type="int" >       42 </v>
   <v type="int" >       43 </v>
   <v type="int" >       44 </v>
   <v type="int" >       45 </v>
   <v type="int" >       46 </v>
   <v type="int" >       47 </v>
   <v type="int" >       48 </v>
   <v type="int" >       49 </v>
   <v type="int" >       50 </v>
   <v type="int" >       51 </v>
   <v type="int" >       52 </v>
   <v type="int" >       53 </v>
   <v type="int" >       54 </v>
   <v type="int" >       55 </v>
   <v type="int" >       56 </v>
   <v type="int" >       57 </v>
   <v type="int" >       58 </v>
   <v type="int" >       59 </v>
   <v type="int" >       60 </v>
   <v type="int" >       61 </v>
   <v type="int" >       62 </v>
   <v type="int" >       63 </v>
   <v type="int" >       64 </v>
   <v type="int" >       65 </v>
   <v type="int" >       66 </v>
   <v type="int" >       67 </v>
   <v type="int" >       68 </v>
   <v type="int" >       69 </v>
   <v type="int" >       70 </v>
   <v type="int" >       71 </v>
   <v type="int" >       72 </v>
   <v type="int" >       73 </v>
   <v type="int" >       74 </v>
   <v type="int" >       75 </v>
   <v type="int" >       76 </v>
   <v type="int" >       77 </v>
   <v type="int" >       78 </v>
   <v type="int" >       79 </v>
   <v type="int" >       80 </v>
   <v type="int" >       81 </v>
   <v type="int" >       82 </v>
   <v type="int" >       83 </v>
   <v type="int" >       84 </v>
   <v type="int" >       85 </v>
   <v type="int" >       86 </v>
   <v type="int" >       87 </v>
   <v type="int" >       88 </v>
   <v type="int" >       89 </v>
   <v type="int" >       90 </v>
   <v type="int" >       91 </v>
   <v type="int" >       92 </v>
   <v type="int" >       93 </v>
   <v type="int" >       94 </v>
   <v type="int" >       95 </v>
   <v type="int" >       96 </v>
   <v type="int" >       97 </v>
   <v type="int" >       98 </v>
   <v type="int" >       99 </v>
   <v type="int" >      100 </v>
   <v type="int" >      101 </v>
   <v type="int" >      102 </v>
   <v type="int" >      103 </v>
   <v type="int" >      104 </v>
   <v type="int" >      105 </v>
   <v type="int" >      106 </v>
   <v type="int" >      107 </v>
   <v type="int" >      108 </v>
   <v type="int" >      109 </v>
   <v type="int" >      110 </v>
   <v type="int" >      111 </v>
   <v type="int" >      112 </v>
   <v type="int" >      113 </v>
   <v type="int" >      114 </v>
   <v type="int" >      115 </v>
   <v type="int" >      116 </v>
   <v type="int" >      117 </v>
   <v type="int" >      118 </v>
   <v type="int" >      119 </v>
   <v type="int" >      120 </v>
   <v type="int" >      121 </v>
   <v type="int" >      122 </v>
   <v type="int" >      123 </v>
   <v type="int" >      124 </v>
   <v type="int" >      125 </v>
   <v type="int" >      126 </v>
   <v type="int" >      127 </v>
   <v type="int" >      128 </v>
   <v type="int" >      129 </v>
   <v type="int" >      130 </v>
   <v type="int" >      131 </v>
   <v type="int" >      132 </v>
   <v type="int" >      133 </v>
   <v type="int" >      134 </v>
   <v type="int" >      135 </v>
   <v type="int" >      136 </v>
   <v type="int" >      137 </v>
   <v type="int" >      138 </v>
   <v type="int" >      139 </v>
   <v type="int" >      140 </v>
   <v type="int" >      141 </v>
   <v type="int" >      142 </v>
   <v type="int" >      143 </v>
   <v type="int" >      144 </v>
   <v type="int" >      145 </v>
   <v type="int" >      146 </v>
   <v type="int" >      147 </v>
   <v type="int" >      148 </v>
   <v type="int" >      149 </v>
   <v type="int" >      150 </v>
   <v type="int" >      151 </v>
   <v type="int" >      152 </v>
   <v type="int" >      153 </v>
   <v type="int" >      154 </v>
   <v type="int" >      155 </v>
   <v type="int" >      156 </v>
   <v type="int" >      157 </v>
   <v type="int" >      158 </v>
   <v type="int" >      159 </v>
   <v type="int" >      160 </v>
   <v type="int" >      161 </v>
   <v type="int" >      162 </v>
   <v type="int" >      163 </v>
   <v type="int" >      164 </v>
   <v type="int" >      165 </v>
   <v type="int" >      166 </v>
   <v type="int" >      167 </v>
   <v type="int" >      168 </v>
   <v type="int" >      169 </v>
   <v type="int" >      170 </v>
   <v type="int" >      171 </v>
   <v type="int" >      172 </v>
   <v type="int" >      173 </v>
   <v type="int" >      174 </v>
   <v type="int" >      175 </v>
   <v type="int" >      176 </v>
   <v type="int" >      177 </v>
   <v type="int" >      178 </v>
   <v type="int" >      179 </v>
   <v type="int" >      180 </v>
   <v type="int" >      181 </v>
   <v type="int" >      182 </v>
   <v type="int" >      183 </v>
   <v type="int" >      184 </v>
   <v type="int" >      185 </v>
   <v type="int" >      186 </v>
   <v type="int" >      187 </v>
   <v type="int" >      188 </v>
   <v type="int" >      189 </v>
   <v type="int" >      190 </v>
   <v type="int" >      191 </v>
   <v type="int" >      192 </v>
   <v type="int" >      193 </v>
   <v type="int" >      194 </v>
   <v type="int" >      195 </v>
   <v type="int" >      196 </v>
   <v type="int" >      197 </v>
   <v type="int" >      198 </v>
   <v type="int" >      199 </v>
   <v type="int" >      200 </v>
   <v type="int" >      201 </v>
   <v type="int" >      202 </v>
   <v type="int" >      203 </v>
   <v type="int" >      204 </v>
   <v type="int" >      205 </v>
   <v type="int" >      206 </v>
   <v type="int" >      207 </v>
   <v type="int" >      208 </v>
   <v type="int" >      209 </v>
   <v type="int" >      210 </v>
   <v type="int" >      211 </v>
   <v type="int" >      212 </v>
   <v type="int" >      213 </v>
   <v type="int" >      214 </v>
   <v type="int" >      215 </v>
   <v type="int" >      216 </v>
   <v type="int" >      217 </v>
   <v type="int" >      218 </v>
   <v type="int" >      219 </v>
   <v type="int" >      220 </v>
   <v type="int" >      221 </v>
   <v type="int" >      222 </v>
   <v type="int" >      223 </v>
   <v type="int" >      224 </v>
   <v type="int" >      225 </v>
   <v type="int" >      226 </v>
   <v type="int" >      227 </v>
   <v type="int" >      228 </v>
   <v type="int" >      229 </v>
   <v type="int" >      230 </v>
   <v type="int" >      231 </v>
   <v type="int" >      232 </v>
   <v type="int" >      233 </v>
   <v type="int" >      234 </v>
   <v type="int" >      235 </v>
   <v type="int" >      236 </v>
   <v type="int" >      237 </v>
   <v type="int" >      238 </v>
   <v type="int" >      239 </v>
   <v type="int" >      240 </v>
   <v type="int" >      241 </v>
   <v type="int" >      242 </v>
   <v type="int" >      243 </v>
   <v type="int" >      244 </v>
   <v type="int" >      245 </v>
   <v type="int" >      246 </v>
   <v type="int" >      247 </v>
   <v type="int" >      248 </v>
   <v type="int" >      249 </v>
   <v type="int" >      250 </v>
   <v type="int" >      251 </v>
   <v type="int" >      252 </v>
   <v type="int" >      253 </v>
   <v type="int" >      254 </v>
   <v type="int" >      255 </v>
   <v type="int" >      256 </v>
   <v type="int" >      257 </v>
   <v type="int" >      258 </v>
   <v type="int" >      259 </v>
   <v type="int" >      260 </v>
   <v type="int" >      261 </v>
   <v type="int" >      262 </v>
   <v type="int" >      263 </v>
   <v type="int" >      264 </v>
   <v type="int" >      265 </v>
   <v type="int" >      266 </v>
   <v type="int" >      267 </v>
   <v type="int" >      268 </v>
   <v type="int" >      269 </v>
   <v type="int" >      270 </v>
   <v type="int" >      271 </v>
   <v type="int" >      272 </v>
   <v type="int" >      273 </v>
   <v type="int" >      274 </v>
   <v type="int" >      275 </v>
   <v type="int" >      276 </v>
   <v type="int" >      277 </v>
   <v type="int" >      278 </v>
   <v type="int" >      279 </v>
   <v type="int" >      280 </v>
   <v type="int" >      281 </v>
   <v type="int" >      282 </v>
   <v type="int" >      283 </v>
   <v type="int" >      284 </v>
   <v type="int" >      285 </v>
   <v type="int" >      286 </v>
   <v type="int" >      287 </v>
   <v type="int" >      288 </v>
   <v type="int" >      289 </v>
   <v type="int" >      290 </v>
   <v type="int" >      291 </v>
   <v type="int" >      292 </v>
   <v type="int" >      293 </v>
   <v type="int" >      294 </v>
   <v type="int" >      295 </v>
   <v type="int" >      296 </v>
   <v type="int" >      297 </v>
   <v type="int" >      298 </v>
   <v type="int" >      299 </v>
   <v type="int" >      300 </v>
   <v type="int" >      301 </v>
   <v type="int" >      302 </v>
   <v type="int" >      303 </v>
   <v type="int" >      304 </v>
   <v type="int" >      305 </v>
   <v type="int" >      306 </v>
   <v type="int" >      307 </v>
   <v type="int" >      308 </v>
   <v type="int" >      309 </v>
   <v type="int" >      310 </v>
   <v type="int" >      311 </v>
   <v type="int" >      312 </v>
   <v type="int" >      313 </v>
   <v type="int" >      314 </v>
   <v type="int" >      315 </v>
   <v type="int" >      316 </v>
   <v type="int" >      317 </v>
   <v type="int" >      318 </v>
   <v type="int" >      319 </v>
   <v type="int" >      320 </v>
   <v type="int" >      321 </v>
   <v type="int" >      322 </v>
   <v type="int" >      323 </v>
   <v type="int" >      324 </v>
   <v type="int" >      325 </v>
  </varray>
 </primitive_cell>
 <kpoints>
  <generation param="Gamma">
   <v type="int" name="divisions">       3        3        1 </v>
   <v name="usershift">      0.00000000       0.00000000       0.00000000 </v>
   <v name="genvec1">      0.33333333       0.00000000       0.00000000 </v>
   <v name="genvec2">      0.00000000       0.33333333       0.00000000 </v>
   <v name="genvec3">      0.00000000       0.00000000       1.00000000 </v>
   <v name="shift">      0.00000000       0.00000000       0.00000000 </v>
  </generation>
  <varray name="kpointlist" >
   <v>       0.00000000       0.00000000       0.00000000 </v>
   <v>       0.33333333       0.00000000       0.00000000 </v>
   <v>       0.00000000       0.33333333       0.00000000 </v>
   <v>       0.33333333       0.33333333       0.00000000 </v>
   <v>      -0.33333333       0.33333333       0.00000000 </v>
  </varray>
  <varray name="weights" >
   <v>       0.11111111 </v>
   <v>       0.22222222 </v>
   <v>       0.22222222 </v>
   <v>       0.22222222 </v>
   <v>       0.22222222 </v>
  </varray>
 </kpoints>
 <parameters>
  <separator name="general" >
   <i type="string" name="SYSTEM">PSC</i>
   <i type="logical" name="LCOMPAT"> F  </i>
  </separator>
  <separator name="electronic" >
   <i type="string" name="PREC">normal</i>
   <i name="ENMAX">    500.00000000</i>
   <i name="ENAUG">    644.87300000</i>
   <i name="EDIFF">      0.00010000</i>
   <i type="int" name="IALGO">    38</i>
   <i type="int" name="IWAVPR">    10</i>
   <i type="int" name="NBANDS">   732</i>
   <i type="int" name="NBANDSLOW">    -1</i>
   <i type="int" name="NBANDSHIGH">    -1</i>
   <i name="NELECT">   1134.00000000</i>
   <i type="int" name="TURBO">     0</i>
   <i type="int" name="IRESTART">     0</i>
   <i type="int" name="NREBOOT">     0</i>
   <i type="int" name="NMIN">     0</i>
   <i name="EREF">      0.00000000</i>
   <separator name="electronic smearing" >
    <i type="int" name="ISMEAR">     0</i>
    <i name="SIGMA">      0.05000000</i>
    <i name="KSPACING">      0.50000000</i>
    <i type="logical" name="KGAMMA"> T  </i>
    <i type="logical" name="KBLOWUP"> T  </i>
   </separator>
   <separator name="electronic projectors" >
    <i type="logical" name="LREAL"> T  </i>
    <v name="ROPT">     -0.00050000     -0.00050000     -0.00050000     -0.00050000     -0.00050000</v>
    <i type="int" name="LMAXPAW">  -100</i>
    <i type="int" name="LMAXMIX">     2</i>
    <i type="logical" name="NLSPLINE"> F  </i>
   </separator>
   <separator name="electronic startup" >
    <i type="int" name="ISTART">     0</i>
    <i type="int" name="ICHARG">     1</i>
    <i type="int" name="INIWAV">     1</i>
   </separator>
   <separator name="electronic spin" >
    <i type="int" name="ISPIN">     1</i>
    <i type="logical" name="LNONCOLLINEAR"> F  </i>
    <v name="MAGMOM">      1.00000000      1.00000000      1.00000000      1.00000000      1.00000000      1.00000000      1.00000000      1.00000000      1.00000000      1.00000000      1.00000000      1.00000000      1.00000000      1.00000000      1.00000000      1.00000000      1.00000000      1.00000000      1.00000000      1.00000000
      1.00000000      1.00000000      1.00000000      1.00000000      1.00000000      1.00000000      1.00000000      1.00000000      1.00000000      1.00000000      1.00000000      1.00000000      1.00000000      1.00000000      1.00000000      1.00000000      1.00000000      1.00000000      1.00000000      1.00000000
      1.00000000      1.00000000      1.00000000      1.00000000      1.00000000      1.00000000      1.00000000      1.00000000      1.00000000      1.00000000      1.00000000      1.00000000      1.00000000      1.00000000      1.00000000      1.00000000      1.00000000      1.00000000      1.00000000      1.00000000
      1.00000000      1.00000000      1.00000000      1.00000000      1.00000000      1.00000000      1.00000000      1.00000000      1.00000000      1.00000000      1.00000000      1.00000000      1.00000000      1.00000000      1.00000000      1.00000000      1.00000000      1.00000000      1.00000000      1.00000000
      1.00000000      1.00000000      1.00000000      1.00000000      1.00000000      1.00000000      1.00000000      1.00000000      1.00000000      1.00000000      1.00000000      1.00000000      1.00000000      1.00000000      1.00000000      1.00000000      1.00000000      1.00000000      1.00000000      1.00000000
      1.00000000      1.00000000      1.00000000      1.00000000      1.00000000      1.00000000      1.00000000      1.00000000      1.00000000      1.00000000      1.00000000      1.00000000      1.00000000      1.00000000      1.00000000      1.00000000      1.00000000      1.00000000      1.00000000      1.00000000
      1.00000000      1.00000000      1.00000000      1.00000000      1.00000000      1.00000000      1.00000000      1.00000000      1.00000000      1.00000000      1.00000000      1.00000000      1.00000000      1.00000000      1.00000000      1.00000000      1.00000000      1.00000000      1.00000000      1.00000000
      1.00000000      1.00000000      1.00000000      1.00000000      1.00000000      1.00000000      1.00000000      1.00000000      1.00000000      1.00000000      1.00000000      1.00000000      1.00000000      1.00000000      1.00000000      1.00000000      1.00000000      1.00000000      1.00000000      1.00000000
      1.00000000      1.00000000      1.00000000      1.00000000      1.00000000      1.00000000      1.00000000      1.00000000      1.00000000      1.00000000      1.00000000      1.00000000      1.00000000      1.00000000      1.00000000      1.00000000      1.00000000      1.00000000      1.00000000      1.00000000
      1.00000000      1.00000000      1.00000000      1.00000000      1.00000000      1.00000000      1.00000000      1.00000000      1.00000000      1.00000000      1.00000000      1.00000000      1.00000000      1.00000000      1.00000000      1.00000000      1.00000000      1.00000000      1.00000000      1.00000000
      1.00000000      1.00000000      1.00000000      1.00000000      1.00000000      1.00000000      1.00000000      1.00000000      1.00000000      1.00000000      1.00000000      1.00000000      1.00000000      1.00000000      1.00000000      1.00000000      1.00000000      1.00000000      1.00000000      1.00000000
      1.00000000      1.00000000      1.00000000      1.00000000      1.00000000      1.00000000      1.00000000      1.00000000      1.00000000      1.00000000      1.00000000      1.00000000      1.00000000      1.00000000      1.00000000      1.00000000      1.00000000      1.00000000      1.00000000      1.00000000
      1.00000000      1.00000000      1.00000000      1.00000000      1.00000000      1.00000000      1.00000000      1.00000000      1.00000000      1.00000000      1.00000000      1.00000000      1.00000000      1.00000000      1.00000000      1.00000000      1.00000000      1.00000000      1.00000000      1.00000000
      1.00000000      1.00000000      1.00000000      1.00000000      1.00000000      1.00000000      1.00000000      1.00000000      1.00000000      1.00000000      1.00000000      1.00000000      1.00000000      1.00000000      1.00000000      1.00000000      1.00000000      1.00000000      1.00000000      1.00000000
      1.00000000      1.00000000      1.00000000      1.00000000      1.00000000      1.00000000      1.00000000      1.00000000      1.00000000      1.00000000      1.00000000      1.00000000      1.00000000      1.00000000      1.00000000      1.00000000      1.00000000      1.00000000      1.00000000      1.00000000
      1.00000000      1.00000000      1.00000000      1.00000000      1.00000000      1.00000000      1.00000000      1.00000000      1.00000000      1.00000000      1.00000000      1.00000000      1.00000000      1.00000000      1.00000000      1.00000000      1.00000000      1.00000000      1.00000000      1.00000000
      1.00000000      1.00000000      1.00000000      1.00000000      1.00000000</v>
    <i name="NUPDOWN">     -1.00000000</i>
    <i type="logical" name="LSORBIT"> F  </i>
    <v name="SAXIS">      0.00000000      0.00000000      1.00000000</v>
    <i type="logical" name="LSPIRAL"> F  </i>
    <v name="QSPIRAL">      0.00000000      0.00000000      0.00000000</v>
    <i type="logical" name="LZEROZ"> F  </i>
   </separator>
   <separator name="electronic exchange-correlation" >
    <i type="logical" name="LASPH"> F  </i>
    <i type="logical" name="LMETAGGA"> F  </i>
   </separator>
   <separator name="electronic convergence" >
    <i type="int" name="NELM">   600</i>
    <i type="int" name="NELMDL">     0</i>
    <i type="int" name="NELMIN">     2</i>
    <i name="ENINI">    500.00000000</i>
    <separator name="electronic convergence detail" >
     <i type="logical" name="LDIAG"> T  </i>
     <i type="logical" name="LSUBROT"> F  </i>
     <i name="WEIMIN">      0.00000000</i>
     <i name="EBREAK">      0.00000003</i>
     <i name="DEPER">      0.30000000</i>
     <i type="int" name="NRMM">     4</i>
     <i name="TIME">      0.40000000</i>
    </separator>
   </separator>
   <separator name="electronic mixer" >
    <i name="AMIX">      0.40000000</i>
    <i name="BMIX">      0.01000000</i>
    <i name="AMIN">      0.01000000</i>
    <i name="AMIX_MAG">      1.60000000</i>
    <i name="BMIX_MAG">      0.01000000</i>
    <separator name="electronic mixer details" >
     <i type="int" name="IMIX">     4</i>
     <i type="logical" name="MIXFIRST"> F  </i>
     <i type="int" name="MAXMIX">   -45</i>
     <i name="WC">    100.00000000</i>
     <i type="int" name="INIMIX">     1</i>
     <i type="int" name="MIXPRE">     1</i>
     <i type="int" name="MREMOVE">     5</i>
    </separator>
   </separator>
   <separator name="electronic dipolcorrection" >
    <i type="logical" name="LDIPOL"> T  </i>
    <i type="logical" name="LMONO"> F  </i>
    <i type="int" name="IDIPOL">     3</i>
    <i name="EPSILON">      1.00000000</i>
    <v name="DIPOL">   -100.00000000   -100.00000000   -100.00000000</v>
    <i name="EFIELD">      0.00000000</i>
   </separator>
  </separator>
  <separator name="grids" >
   <i type="int" name="NGX">   100</i>
   <i type="int" name="NGY">   100</i>
   <i type="int" name="NGZ">   350</i>
   <i type="int" name="NGXF">   200</i>
   <i type="int" name="NGYF">   200</i>
   <i type="int" name="NGZF">   700</i>
   <i type="logical" name="ADDGRID"> F  </i>
  </separator>
  <separator name="ionic" >
   <i type="int" name="NSW">     0</i>
   <i type="int" name="IBRION">    -1</i>
   <i type="int" name="MDALGO">     0</i>
   <i type="int" name="ISIF">     2</i>
   <i name="PSTRESS">      0.00000000</i>
   <i name="EDIFFG">      0.00100000</i>
   <i type="int" name="NFREE">     0</i>
   <i name="POTIM">      0.50000000</i>
   <i name="SMASS">     -3.00000000</i>
   <i name="SCALEE">      1.00000000</i>
  </separator>
  <separator name="ionic md" >
   <i name="TEBEG">      0.00010000</i>
   <i name="TEEND">      0.00010000</i>
   <i type="int" name="NBLOCK">     1</i>
   <i type="int" name="KBLOCK">     1</i>
   <i type="int" name="NPACO">   256</i>
   <i name="APACO">     16.00000000</i>
  </separator>
  <separator name="symmetry" >
   <i type="int" name="ISYM">     0</i>
   <i name="SYMPREC">      0.00001000</i>
  </separator>
  <separator name="dos" >
   <i type="int" name="LORBIT">     0</i>
   <v name="RWIGS">     -1.00000000     -1.00000000     -1.00000000     -1.00000000     -1.00000000</v>
   <i type="int" name="NEDOS">   301</i>
   <i name="EMIN">     10.00000000</i>
   <i name="EMAX">    -10.00000000</i>
   <i name="EFERMI">      0.00000000</i>
  </separator>
  <separator name="writing" >
   <i type="int" name="NWRITE">     2</i>
   <i type="logical" name="LWAVE"> F  </i>
   <i type="logical" name="LDOWNSAMPLE"> F  </i>
   <i type="logical" name="LCHARG"> T  </i>
   <i type="logical" name="LPARD"> F  </i>
   <i type="logical" name="LVTOT"> T  </i>
   <i type="logical" name="LVHAR"> F  </i>
   <i type="logical" name="LELF"> F  </i>
   <i type="logical" name="LOPTICS"> F  </i>
   <v name="STM">      0.00000000      0.00000000      0.00000000      0.00000000      0.00000000      0.00000000      0.00000000</v>
  </separator>
  <separator name="performance" >
   <i type="int" name="NPAR">     4</i>
   <i type="int" name="NSIM">     4</i>
   <i type="int" name="NBLK">    -1</i>
   <i type="logical" name="LPLANE"> T  </i>
   <i type="logical" name="LSCALAPACK"> T  </i>
   <i type="logical" name="LSCAAWARE"> F  </i>
   <i type="logical" name="LSCALU"> F  </i>
   <i type="logical" name="LASYNC"> F  </i>
   <i type="logical" name="LORBITALREAL"> F  </i>
  </separator>
  <separator name="miscellaneous" >
   <i type="int" name="IDIOT">     3</i>
   <i type="int" name="PHON_NSTRUCT">    -1</i>
   <i type="logical" name="LMUSIC"> F  </i>
   <v name="POMASS">      1.00000000     12.01100000     14.00100000    126.90400000    207.20000000</v>
   <v name="DARWINR">      0.00000000      0.00000000      0.00000000      0.00000000      0.00000000</v>
   <v name="DARWINV">      1.00000000      1.00000000      1.00000000      1.00000000      1.00000000</v>
   <i type="logical" name="LCORR"> T  </i>
  </separator>
  <i type="logical" name="GGA_COMPAT"> F  </i>
  <i type="logical" name="LBERRY"> F  </i>
  <i type="int" name="ICORELEVEL">     0</i>
  <i type="logical" name="LDAU"> F  </i>
  <i type="int" name="I_CONSTRAINED_M">     0</i>
  <separator name="electronic exchange-correlation" >
   <i type="string" name="GGA">--</i>
   <i type="int" name="VOSKOWN">     0</i>
   <i type="logical" name="LHFCALC"> F  </i>
   <i type="string" name="PRECFOCK"></i>
   <i type="logical" name="LSYMGRAD"> F  </i>
   <i type="logical" name="LHFONE"> F  </i>
   <i type="logical" name="LRHFCALC"> F  </i>
   <i type="logical" name="LTHOMAS"> F  </i>
   <i type="logical" name="LMODELHF"> F  </i>
   <i type="logical" name="LFOCKACE"> F  </i>
   <i name="ENCUT4O">     -1.00000000</i>
   <i type="int" name="EXXOEP">     0</i>
   <i type="int" name="FOURORBIT">     0</i>
   <i name="AEXX">      0.00000000</i>
   <i name="HFALPHA">      0.00000000</i>
   <i name="MCALPHA">      0.00000000</i>
   <i name="ALDAX">      1.00000000</i>
   <i name="AGGAX">      1.00000000</i>
   <i name="ALDAC">      1.00000000</i>
   <i name="AGGAC">      1.00000000</i>
   <i type="int" name="NKREDX">     1</i>
   <i type="int" name="NKREDY">     1</i>
   <i type="int" name="NKREDZ">     1</i>
   <i type="logical" name="SHIFTRED"> F  </i>
   <i type="logical" name="ODDONLY"> F  </i>
   <i type="logical" name="EVENONLY"> F  </i>
   <i type="int" name="LMAXFOCK">     0</i>
   <i type="int" name="NMAXFOCKAE">     0</i>
   <i type="logical" name="LFOCKAEDFT"> F  </i>
   <i name="HFSCREEN">      0.00000000</i>
   <i name="HFSCREENC">      0.00000000</i>
   <i type="int" name="NBANDSGWLOW">     0</i>
  </separator>
  <separator name="vdW DFT" >
   <i type="logical" name="LUSE_VDW"> F  </i>
   <i name="Zab_VDW">     -0.84910000</i>
   <i name="PARAM1">      0.12340000</i>
   <i name="PARAM2">      1.00000000</i>
   <i name="PARAM3">      0.00000000</i>
  </separator>
  <separator name="model GW" >
   <i type="int" name="MODEL_GW">     0</i>
   <i name="MODEL_EPS0">     37.63423484</i>
   <i name="MODEL_ALPHA">      1.00000000</i>
  </separator>
  <separator name="linear response parameters" >
   <i type="logical" name="LEPSILON"> F  </i>
   <i type="logical" name="LRPA"> F  </i>
   <i type="logical" name="LNABLA"> F  </i>
   <i type="logical" name="LVEL"> F  </i>
   <i type="int" name="KINTER">     0</i>
   <i name="CSHIFT">      0.10000000</i>
   <i name="OMEGAMAX">     -1.00000000</i>
   <i name="DEG_THRESHOLD">      0.00200000</i>
   <i name="RTIME">     -0.10000000</i>
   <i name="WPLASMAI">      0.00000000</i>
   <v name="DFIELD">      0.00000000      0.00000000      0.00000000</v>
   <v name="WPLASMA">      0.00000000      0.00000000      0.00000000      0.00000000      0.00000000      0.00000000      0.00000000      0.00000000      0.00000000</v>
  </separator>
  <separator name="orbital magnetization" >
   <i type="logical" name="NUCIND"> F  </i>
   <v name="MAGPOS">      0.00000000      0.00000000      0.00000000</v>
   <i type="logical" name="LNICSALL"> T  </i>
   <i type="logical" name="ORBITALMAG"> F  </i>
   <i type="logical" name="LMAGBLOCH"> F  </i>
   <i type="logical" name="LCHIMAG"> F  </i>
   <i type="logical" name="LGAUGE"> T  </i>
   <i type="int" name="MAGATOM">     0</i>
   <v name="MAGDIPOL">      0.00000000      0.00000000      0.00000000</v>
   <v name="AVECCONST">      0.00000000      0.00000000      0.00000000</v>
  </separator>
  <separator name="response functions" >
   <i type="logical" name="LFINITE_TEMPERATURE"> F  </i>
   <i type="logical" name="LADDER"> F  </i>
   <i type="logical" name="LRPAFORCE"> F  </i>
   <i type="logical" name="LFXC"> F  </i>
   <i type="logical" name="LHARTREE"> T  </i>
   <i type="int" name="IBSE">     0</i>
   <v type="int" name="KPOINT">    -1     0     0     0</v>
   <i type="logical" name="LTCTC"> F  </i>
   <i type="logical" name="LTCTE"> F  </i>
   <i type="logical" name="LTETE"> F  </i>
   <i type="logical" name="LTRIPLET"> F  </i>
   <i type="logical" name="LFXCEPS"> F  </i>
   <i type="logical" name="LFXHEG"> F  </i>
   <i type="int" name="NATURALO">     2</i>
   <i type="logical" name="LHOLEGF"> F  </i>
   <i type="logical" name="L2ORDER"> F  </i>
   <i type="logical" name="LDMP1"> F  </i>
   <i type="logical" name="LMP2LT"> F  </i>
   <i type="logical" name="LSMP2LT"> F  </i>
   <i type="logical" name="LGWLF"> F  </i>
   <i name="ENCUTGW">     -2.00000000</i>
   <i name="ENCUTGWSOFT">     -2.00000000</i>
   <i name="ENCUTLF">     -1.00000000</i>
   <i type="logical" name="LESF_SPLINES"> F  </i>
   <i type="int" name="LMAXMP2">    -1</i>
   <i name="SCISSOR">      0.00000000</i>
   <i type="int" name="NOMEGA">     0</i>
   <i type="int" name="NOMEGAR">     0</i>
   <i type="int" name="NBANDSGW">    -1</i>
   <i type="int" name="NBANDSO">    -1</i>
   <i type="int" name="NBANDSV">    -1</i>
   <i type="int" name="NELM">   600</i>
   <i type="int" name="NELMHF">     1</i>
   <i type="int" name="DIM">     3</i>
   <i type="int" name="IESPILON">     4</i>
   <i type="int" name="ANTIRES">     0</i>
   <i name="OMEGAMAX">    -30.00000000</i>
   <i name="OMEGAMIN">    -30.00000000</i>
   <i name="OMEGATL">   -200.00000000</i>
   <i type="int" name="OMEGAGRID">     0</i>
   <i name="CSHIFT">     -0.10000000</i>
   <i type="logical" name="LSELFENERGY"> F  </i>
   <i type="logical" name="LSPECTRAL"> F  </i>
   <i type="logical" name="LSPECTRALGW"> F  </i>
   <i type="logical" name="LSINGLES"> F  </i>
   <i type="logical" name="LFERMIGW"> F  </i>
   <i type="logical" name="ODDONLYGW"> F  </i>
   <i type="logical" name="EVENONLYGW"> F  </i>
   <i type="int" name="NKREDLFX">     1</i>
   <i type="int" name="NKREDLFY">     1</i>
   <i type="int" name="NKREDLFZ">     1</i>
   <i type="int" name="MAXMEM">  2800</i>
   <i type="int" name="TELESCOPE">     0</i>
   <i type="int" name="NTAUPAR">    -1</i>
   <i type="int" name="NOMEGAPAR">    -1</i>
   <i name="DAMP_NEWTON">      0.80000001</i>
   <i name="LAMBDA">      1.00000000</i>
  </separator>
  <separator name="External order field" >
   <i name="OFIELD_KAPPA">      0.00000000</i>
   <v name="OFIELD_K">      0.00000000      0.00000000      0.00000000</v>
   <i name="OFIELD_Q6_NEAR">      0.00000000</i>
   <i name="OFIELD_Q6_FAR">      0.00000000</i>
   <i name="OFIELD_A">      0.00000000</i>
  </separator>
 </parameters>
 <atominfo>
  <atoms>     325 </atoms>
  <types>       5 </types>
  <array name="atoms" >
   <dimension dim="1">ion</dimension>
   <field type="string">element</field>
   <field type="int">atomtype</field>
   <set>
    <rc><c>H </c><c>   1</c></rc>
    <rc><c>H </c><c>   1</c></rc>
    <rc><c>H </c><c>   1</c></rc>
    <rc><c>H </c><c>   1</c></rc>
    <rc><c>H </c><c>   1</c></rc>
    <rc><c>H </c><c>   1</c></rc>
    <rc><c>H </c><c>   1</c></rc>
    <rc><c>H </c><c>   1</c></rc>
    <rc><c>H </c><c>   1</c></rc>
    <rc><c>H </c><c>   1</c></rc>
    <rc><c>H </c><c>   1</c></rc>
    <rc><c>H </c><c>   1</c></rc>
    <rc><c>H </c><c>   1</c></rc>
    <rc><c>H </c><c>   1</c></rc>
    <rc><c>H </c><c>   1</c></rc>
    <rc><c>H </c><c>   1</c></rc>
    <rc><c>H </c><c>   1</c></rc>
    <rc><c>H </c><c>   1</c></rc>
    <rc><c>H </c><c>   1</c></rc>
    <rc><c>H </c><c>   1</c></rc>
    <rc><c>H </c><c>   1</c></rc>
    <rc><c>H </c><c>   1</c></rc>
    <rc><c>H </c><c>   1</c></rc>
    <rc><c>H </c><c>   1</c></rc>
    <rc><c>H </c><c>   1</c></rc>
    <rc><c>H </c><c>   1</c></rc>
    <rc><c>H </c><c>   1</c></rc>
    <rc><c>H </c><c>   1</c></rc>
    <rc><c>H </c><c>   1</c></rc>
    <rc><c>H </c><c>   1</c></rc>
    <rc><c>H </c><c>   1</c></rc>
    <rc><c>H </c><c>   1</c></rc>
    <rc><c>H </c><c>   1</c></rc>
    <rc><c>H </c><c>   1</c></rc>
    <rc><c>H </c><c>   1</c></rc>
    <rc><c>H </c><c>   1</c></rc>
    <rc><c>H </c><c>   1</c></rc>
    <rc><c>H </c><c>   1</c></rc>
    <rc><c>H </c><c>   1</c></rc>
    <rc><c>H </c><c>   1</c></rc>
    <rc><c>H </c><c>   1</c></rc>
    <rc><c>H </c><c>   1</c></rc>
    <rc><c>H </c><c>   1</c></rc>
    <rc><c>H </c><c>   1</c></rc>
    <rc><c>H </c><c>   1</c></rc>
    <rc><c>H </c><c>   1</c></rc>
    <rc><c>H </c><c>   1</c></rc>
    <rc><c>H </c><c>   1</c></rc>
    <rc><c>H </c><c>   1</c></rc>
    <rc><c>H </c><c>   1</c></rc>
    <rc><c>H </c><c>   1</c></rc>
    <rc><c>H </c><c>   1</c></rc>
    <rc><c>H </c><c>   1</c></rc>
    <rc><c>H </c><c>   1</c></rc>
    <rc><c>H </c><c>   1</c></rc>
    <rc><c>H </c><c>   1</c></rc>
    <rc><c>H </c><c>   1</c></rc>
    <rc><c>H </c><c>   1</c></rc>
    <rc><c>H </c><c>   1</c></rc>
    <rc><c>H </c><c>   1</c></rc>
    <rc><c>H </c><c>   1</c></rc>
    <rc><c>H </c><c>   1</c></rc>
    <rc><c>H </c><c>   1</c></rc>
    <rc><c>H </c><c>   1</c></rc>
    <rc><c>H </c><c>   1</c></rc>
    <rc><c>H </c><c>   1</c></rc>
    <rc><c>H </c><c>   1</c></rc>
    <rc><c>H </c><c>   1</c></rc>
    <rc><c>H </c><c>   1</c></rc>
    <rc><c>H </c><c>   1</c></rc>
    <rc><c>H </c><c>   1</c></rc>
    <rc><c>H </c><c>   1</c></rc>
    <rc><c>H </c><c>   1</c></rc>
    <rc><c>H </c><c>   1</c></rc>
    <rc><c>H </c><c>   1</c></rc>
    <rc><c>H </c><c>   1</c></rc>
    <rc><c>H </c><c>   1</c></rc>
    <rc><c>H </c><c>   1</c></rc>
    <rc><c>H </c><c>   1</c></rc>
    <rc><c>H </c><c>   1</c></rc>
    <rc><c>H </c><c>   1</c></rc>
    <rc><c>H </c><c>   1</c></rc>
    <rc><c>H </c><c>   1</c></rc>
    <rc><c>H </c><c>   1</c></rc>
    <rc><c>H </c><c>   1</c></rc>
    <rc><c>H </c><c>   1</c></rc>
    <rc><c>H </c><c>   1</c></rc>
    <rc><c>H </c><c>   1</c></rc>
    <rc><c>H </c><c>   1</c></rc>
    <rc><c>H </c><c>   1</c></rc>
    <rc><c>H </c><c>   1</c></rc>
    <rc><c>H </c><c>   1</c></rc>
    <rc><c>H </c><c>   1</c></rc>
    <rc><c>H </c><c>   1</c></rc>
    <rc><c>H </c><c>   1</c></rc>
    <rc><c>H </c><c>   1</c></rc>
    <rc><c>H </c><c>   1</c></rc>
    <rc><c>H </c><c>   1</c></rc>
    <rc><c>H </c><c>   1</c></rc>
    <rc><c>H </c><c>   1</c></rc>
    <rc><c>H </c><c>   1</c></rc>
    <rc><c>H </c><c>   1</c></rc>
    <rc><c>H </c><c>   1</c></rc>
    <rc><c>H </c><c>   1</c></rc>
    <rc><c>H </c><c>   1</c></rc>
    <rc><c>H </c><c>   1</c></rc>
    <rc><c>H </c><c>   1</c></rc>
    <rc><c>H </c><c>   1</c></rc>
    <rc><c>H </c><c>   1</c></rc>
    <rc><c>H </c><c>   1</c></rc>
    <rc><c>H </c><c>   1</c></rc>
    <rc><c>H </c><c>   1</c></rc>
    <rc><c>H </c><c>   1</c></rc>
    <rc><c>H </c><c>   1</c></rc>
    <rc><c>H </c><c>   1</c></rc>
    <rc><c>H </c><c>   1</c></rc>
    <rc><c>H </c><c>   1</c></rc>
    <rc><c>H </c><c>   1</c></rc>
    <rc><c>H </c><c>   1</c></rc>
    <rc><c>H </c><c>   1</c></rc>
    <rc><c>H </c><c>   1</c></rc>
    <rc><c>H </c><c>   1</c></rc>
    <rc><c>H </c><c>   1</c></rc>
    <rc><c>H </c><c>   1</c></rc>
    <rc><c>H </c><c>   1</c></rc>
    <rc><c>H </c><c>   1</c></rc>
    <rc><c>H </c><c>   1</c></rc>
    <rc><c>H </c><c>   1</c></rc>
    <rc><c>H </c><c>   1</c></rc>
    <rc><c>H </c><c>   1</c></rc>
    <rc><c>H </c><c>   1</c></rc>
    <rc><c>H </c><c>   1</c></rc>
    <rc><c>H </c><c>   1</c></rc>
    <rc><c>H </c><c>   1</c></rc>
    <rc><c>H </c><c>   1</c></rc>
    <rc><c>H </c><c>   1</c></rc>
    <rc><c>H </c><c>   1</c></rc>
    <rc><c>H </c><c>   1</c></rc>
    <rc><c>H </c><c>   1</c></rc>
    <rc><c>H </c><c>   1</c></rc>
    <rc><c>H </c><c>   1</c></rc>
    <rc><c>H </c><c>   1</c></rc>
    <rc><c>H </c><c>   1</c></rc>
    <rc><c>C </c><c>   2</c></rc>
    <rc><c>C </c><c>   2</c></rc>
    <rc><c>C </c><c>   2</c></rc>
    <rc><c>C </c><c>   2</c></rc>
    <rc><c>C </c><c>   2</c></rc>
    <rc><c>C </c><c>   2</c></rc>
    <rc><c>C </c><c>   2</c></rc>
    <rc><c>C </c><c>   2</c></rc>
    <rc><c>C </c><c>   2</c></rc>
    <rc><c>C </c><c>   2</c></rc>
    <rc><c>C </c><c>   2</c></rc>
    <rc><c>C </c><c>   2</c></rc>
    <rc><c>C </c><c>   2</c></rc>
    <rc><c>C </c><c>   2</c></rc>
    <rc><c>C </c><c>   2</c></rc>
    <rc><c>C </c><c>   2</c></rc>
    <rc><c>C </c><c>   2</c></rc>
    <rc><c>C </c><c>   2</c></rc>
    <rc><c>C </c><c>   2</c></rc>
    <rc><c>C </c><c>   2</c></rc>
    <rc><c>C </c><c>   2</c></rc>
    <rc><c>C </c><c>   2</c></rc>
    <rc><c>C </c><c>   2</c></rc>
    <rc><c>C </c><c>   2</c></rc>
    <rc><c>C </c><c>   2</c></rc>
    <rc><c>C </c><c>   2</c></rc>
    <rc><c>C </c><c>   2</c></rc>
    <rc><c>C </c><c>   2</c></rc>
    <rc><c>C </c><c>   2</c></rc>
    <rc><c>C </c><c>   2</c></rc>
    <rc><c>C </c><c>   2</c></rc>
    <rc><c>C </c><c>   2</c></rc>
    <rc><c>C </c><c>   2</c></rc>
    <rc><c>C </c><c>   2</c></rc>
    <rc><c>C </c><c>   2</c></rc>
    <rc><c>C </c><c>   2</c></rc>
    <rc><c>C </c><c>   2</c></rc>
    <rc><c>C </c><c>   2</c></rc>
    <rc><c>C </c><c>   2</c></rc>
    <rc><c>N </c><c>   3</c></rc>
    <rc><c>N </c><c>   3</c></rc>
    <rc><c>N </c><c>   3</c></rc>
    <rc><c>N </c><c>   3</c></rc>
    <rc><c>N </c><c>   3</c></rc>
    <rc><c>N </c><c>   3</c></rc>
    <rc><c>N </c><c>   3</c></rc>
    <rc><c>N </c><c>   3</c></rc>
    <rc><c>N </c><c>   3</c></rc>
    <rc><c>N </c><c>   3</c></rc>
    <rc><c>N </c><c>   3</c></rc>
    <rc><c>N </c><c>   3</c></rc>
    <rc><c>N </c><c>   3</c></rc>
    <rc><c>N </c><c>   3</c></rc>
    <rc><c>N </c><c>   3</c></rc>
    <rc><c>N </c><c>   3</c></rc>
    <rc><c>N </c><c>   3</c></rc>
    <rc><c>N </c><c>   3</c></rc>
    <rc><c>N </c><c>   3</c></rc>
    <rc><c>N </c><c>   3</c></rc>
    <rc><c>N </c><c>   3</c></rc>
    <rc><c>N </c><c>   3</c></rc>
    <rc><c>N </c><c>   3</c></rc>
    <rc><c>N </c><c>   3</c></rc>
    <rc><c>N </c><c>   3</c></rc>
    <rc><c>N </c><c>   3</c></rc>
    <rc><c>N </c><c>   3</c></rc>
    <rc><c>N </c><c>   3</c></rc>
    <rc><c>N </c><c>   3</c></rc>
    <rc><c>N </c><c>   3</c></rc>
    <rc><c>N </c><c>   3</c></rc>
    <rc><c>N </c><c>   3</c></rc>
    <rc><c>N </c><c>   3</c></rc>
    <rc><c>N </c><c>   3</c></rc>
    <rc><c>N </c><c>   3</c></rc>
    <rc><c>N </c><c>   3</c></rc>
    <rc><c>N </c><c>   3</c></rc>
    <rc><c>N </c><c>   3</c></rc>
    <rc><c>N </c><c>   3</c></rc>
    <rc><c>N </c><c>   3</c></rc>
    <rc><c>N </c><c>   3</c></rc>
    <rc><c>N </c><c>   3</c></rc>
    <rc><c>N </c><c>   3</c></rc>
    <rc><c>N </c><c>   3</c></rc>
    <rc><c>N </c><c>   3</c></rc>
    <rc><c>N </c><c>   3</c></rc>
    <rc><c>N </c><c>   3</c></rc>
    <rc><c>I </c><c>   4</c></rc>
    <rc><c>I </c><c>   4</c></rc>
    <rc><c>I </c><c>   4</c></rc>
    <rc><c>I </c><c>   4</c></rc>
    <rc><c>I </c><c>   4</c></rc>
    <rc><c>I </c><c>   4</c></rc>
    <rc><c>I </c><c>   4</c></rc>
    <rc><c>I </c><c>   4</c></rc>
    <rc><c>I </c><c>   4</c></rc>
    <rc><c>I </c><c>   4</c></rc>
    <rc><c>I </c><c>   4</c></rc>
    <rc><c>I </c><c>   4</c></rc>
    <rc><c>I </c><c>   4</c></rc>
    <rc><c>I </c><c>   4</c></rc>
    <rc><c>I </c><c>   4</c></rc>
    <rc><c>I </c><c>   4</c></rc>
    <rc><c>I </c><c>   4</c></rc>
    <rc><c>I </c><c>   4</c></rc>
    <rc><c>I </c><c>   4</c></rc>
    <rc><c>I </c><c>   4</c></rc>
    <rc><c>I </c><c>   4</c></rc>
    <rc><c>I </c><c>   4</c></rc>
    <rc><c>I </c><c>   4</c></rc>
    <rc><c>I </c><c>   4</c></rc>
    <rc><c>I </c><c>   4</c></rc>
    <rc><c>I </c><c>   4</c></rc>
    <rc><c>I </c><c>   4</c></rc>
    <rc><c>I </c><c>   4</c></rc>
    <rc><c>I </c><c>   4</c></rc>
    <rc><c>I </c><c>   4</c></rc>
    <rc><c>I </c><c>   4</c></rc>
    <rc><c>I </c><c>   4</c></rc>
    <rc><c>I </c><c>   4</c></rc>
    <rc><c>I </c><c>   4</c></rc>
    <rc><c>I </c><c>   4</c></rc>
    <rc><c>I </c><c>   4</c></rc>
    <rc><c>I </c><c>   4</c></rc>
    <rc><c>I </c><c>   4</c></rc>
    <rc><c>I </c><c>   4</c></rc>
    <rc><c>I </c><c>   4</c></rc>
    <rc><c>I </c><c>   4</c></rc>
    <rc><c>I </c><c>   4</c></rc>
    <rc><c>I </c><c>   4</c></rc>
    <rc><c>I </c><c>   4</c></rc>
    <rc><c>I </c><c>   4</c></rc>
    <rc><c>I </c><c>   4</c></rc>
    <rc><c>I </c><c>   4</c></rc>
    <rc><c>I </c><c>   4</c></rc>
    <rc><c>I </c><c>   4</c></rc>
    <rc><c>I </c><c>   4</c></rc>
    <rc><c>I </c><c>   4</c></rc>
    <rc><c>I </c><c>   4</c></rc>
    <rc><c>I </c><c>   4</c></rc>
    <rc><c>I </c><c>   4</c></rc>
    <rc><c>I </c><c>   4</c></rc>
    <rc><c>I </c><c>   4</c></rc>
    <rc><c>I </c><c>   4</c></rc>
    <rc><c>I </c><c>   4</c></rc>
    <rc><c>I </c><c>   4</c></rc>
    <rc><c>I </c><c>   4</c></rc>
    <rc><c>I </c><c>   4</c></rc>
    <rc><c>I </c><c>   4</c></rc>
    <rc><c>I </c><c>   4</c></rc>
    <rc><c>I </c><c>   4</c></rc>
    <rc><c>I </c><c>   4</c></rc>
    <rc><c>I </c><c>   4</c></rc>
    <rc><c>I </c><c>   4</c></rc>
    <rc><c>I </c><c>   4</c></rc>
    <rc><c>I </c><c>   4</c></rc>
    <rc><c>I </c><c>   4</c></rc>
    <rc><c>I </c><c>   4</c></rc>
    <rc><c>I </c><c>   4</c></rc>
    <rc><c>Pb</c><c>   5</c></rc>
    <rc><c>Pb</c><c>   5</c></rc>
    <rc><c>Pb</c><c>   5</c></rc>
    <rc><c>Pb</c><c>   5</c></rc>
    <rc><c>Pb</c><c>   5</c></rc>
    <rc><c>Pb</c><c>   5</c></rc>
    <rc><c>Pb</c><c>   5</c></rc>
    <rc><c>Pb</c><c>   5</c></rc>
    <rc><c>Pb</c><c>   5</c></rc>
    <rc><c>Pb</c><c>   5</c></rc>
    <rc><c>Pb</c><c>   5</c></rc>
    <rc><c>Pb</c><c>   5</c></rc>
    <rc><c>Pb</c><c>   5</c></rc>
    <rc><c>Pb</c><c>   5</c></rc>
    <rc><c>Pb</c><c>   5</c></rc>
    <rc><c>Pb</c><c>   5</c></rc>
    <rc><c>Pb</c><c>   5</c></rc>
    <rc><c>Pb</c><c>   5</c></rc>
    <rc><c>Pb</c><c>   5</c></rc>
    <rc><c>Pb</c><c>   5</c></rc>
    <rc><c>Pb</c><c>   5</c></rc>
    <rc><c>Pb</c><c>   5</c></rc>
    <rc><c>Pb</c><c>   5</c></rc>
    <rc><c>Pb</c><c>   5</c></rc>
   </set>
  </array>
  <array name="atomtypes" >
   <dimension dim="1">type</dimension>
   <field type="int">atomspertype</field>
   <field type="string">element</field>
   <field>mass</field>
   <field>valence</field>
   <field type="string">pseudopotential</field>
   <set>
    <rc><c> 143</c><c>H </c><c>      1.00000000</c><c>      1.00000000</c><c>  PAW_PBE H 15Jun2001                   </c></rc>
    <rc><c>  39</c><c>C </c><c>     12.01100000</c><c>      4.00000000</c><c>  PAW_PBE C 08Apr2002                   </c></rc>
    <rc><c>  47</c><c>N </c><c>     14.00100000</c><c>      5.00000000</c><c>  PAW_PBE N 08Apr2002                   </c></rc>
    <rc><c>  72</c><c>I </c><c>    126.90400000</c><c>      7.00000000</c><c>  PAW_PBE I 08Apr2002                   </c></rc>
    <rc><c>  24</c><c>Pb</c><c>    207.20000000</c><c>      4.00000000</c><c>  PAW_PBE Pb 08Apr2002                  </c></rc>
   </set>
  </array>
 </atominfo>
 <structure name="initialpos" >
  <crystal>
   <varray name="basis" >
    <v>      18.06080055       0.00000000       0.00000000 </v>
    <v>      -0.00491865      18.06279945       0.00000000 </v>
    <v>       0.00000000       0.00000000      62.48749924 </v>
   </varray>
   <i name="volume">  20385.21054034 </i>
   <varray name="rec_basis" >
    <v>       0.05536853       0.00001508      -0.00000000 </v>
    <v>       0.00000000       0.05536240       0.00000000 </v>
    <v>       0.00000000      -0.00000000       0.01600320 </v>
   </varray>
  </crystal>
  <varray name="positions" >
   <v>       0.43785317       0.31241533       0.57273876 </v>
   <v>       0.42687075       0.83504704       0.57240227 </v>
   <v>       0.97950637       0.31896040       0.58192486 </v>
   <v>       0.96212530       0.81050345       0.58049214 </v>
   <v>       0.31297974       0.95695401       0.57534335 </v>
   <v>       0.32714108       0.56300646       0.57443069 </v>
   <v>       0.79552527       0.07301973       0.57998539 </v>
   <v>       0.03122796       0.13704783       0.56192172 </v>
   <v>       0.05964606       0.64301720       0.56327160 </v>
   <v>       0.57346853       0.18130125       0.55257744 </v>
   <v>       0.52605466       0.66201397       0.56435165 </v>
   <v>       0.35577676       0.02057621       0.55825778 </v>
   <v>       0.28028686       0.62513024       0.55738230 </v>
   <v>       0.86837916       0.03537794       0.56491304 </v>
   <v>       0.00063458       0.18374885       0.58513321 </v>
   <v>       0.01018589       0.68203444       0.58452585 </v>
   <v>       0.56153834       0.25604214       0.57005341 </v>
   <v>       0.45657606       0.69880262       0.57924305 </v>
   <v>       0.27892213       0.43446673       0.57648310 </v>
   <v>       0.17656584       0.94045652       0.57238749 </v>
   <v>       0.67561444       0.01446485       0.57739606 </v>
   <v>       0.36670842       0.26936577       0.55831498 </v>
   <v>       0.48673326       0.88100079       0.55480591 </v>
   <v>       0.01761204       0.36119801       0.55929863 </v>
   <v>       0.99018819       0.85789715       0.55795956 </v>
   <v>       0.19571117       0.41794588       0.56253848 </v>
   <v>       0.13123702       0.99857483       0.55436082 </v>
   <v>       0.67175642       0.93096562       0.56218074 </v>
   <v>       0.44720091       0.18175816       0.54283556 </v>
   <v>       0.55627541       0.77432530       0.54774542 </v>
   <v>       0.04572771       0.24837391       0.54267940 </v>
   <v>       0.05324140       0.75425510       0.54346606 </v>
   <v>       0.19158919       0.53608771       0.54768907 </v>
   <v>       0.24049725       0.05627206       0.54291987 </v>
   <v>       0.79298482       0.93800127       0.55185714 </v>
   <v>       0.47119531       0.32363812       0.67225232 </v>
   <v>       0.43335318       0.81721351       0.67198963 </v>
   <v>       0.97019553       0.27712625       0.68150282 </v>
   <v>       0.91843896       0.76636320       0.67263875 </v>
   <v>       0.30122753       0.05452023       0.67382282 </v>
   <v>       0.30566369       0.54594340       0.67505818 </v>
   <v>       0.79054326       0.06567880       0.67478273 </v>
   <v>       0.78857366       0.59257729       0.66762481 </v>
   <v>       0.08621981       0.16652013       0.64497501 </v>
   <v>       0.09952344       0.69780443       0.65512682 </v>
   <v>       0.58041361       0.16883177       0.65165689 </v>
   <v>       0.57095956       0.67837994       0.65623978 </v>
   <v>       0.18257238       0.41023115       0.64986185 </v>
   <v>       0.17195318       0.92128377       0.64992638 </v>
   <v>       0.70590198       0.40791666       0.66093658 </v>
   <v>       0.67504339       0.91953412       0.65131881 </v>
   <v>       0.06867471       0.17858414       0.67244437 </v>
   <v>       0.03481157       0.68363490       0.67538032 </v>
   <v>       0.58671580       0.24282844       0.66983240 </v>
   <v>       0.52994899       0.71421491       0.67923455 </v>
   <v>       0.21142366       0.43705566       0.67518546 </v>
   <v>       0.19765282       0.95342910       0.67488199 </v>
   <v>       0.69526605       0.48806365       0.67635635 </v>
   <v>       0.69108253       0.96242535       0.67586492 </v>
   <v>       0.39767291       0.29500772       0.65614118 </v>
   <v>       0.42088035       0.83785873       0.64474407 </v>
   <v>       0.93317699       0.32095370       0.65924941 </v>
   <v>       0.91711097       0.82604693       0.65089490 </v>
   <v>       0.32999633       0.07623695       0.64799338 </v>
   <v>       0.32486278       0.58039987       0.64973432 </v>
   <v>       0.83023508       0.07817762       0.64955405 </v>
   <v>       0.84300112       0.57780127       0.64499186 </v>
   <v>       0.00263817       0.25534033       0.63496831 </v>
   <v>       0.03152111       0.78575152       0.63789944 </v>
   <v>       0.45985155       0.19713788       0.64131986 </v>
   <v>       0.50656516       0.75264630       0.63308182 </v>
   <v>       0.25265634       0.99565493       0.63121426 </v>
   <v>       0.25173387       0.49901960       0.63202320 </v>
   <v>       0.76033197       0.98654032       0.63315746 </v>
   <v>       0.79779447       0.45778665       0.63948435 </v>
   <v>       0.44874502       0.30128397       0.76888902 </v>
   <v>       0.44874501       0.80128391       0.76888902 </v>
   <v>       0.94874497       0.30128397       0.76888902 </v>
   <v>       0.94874501       0.80128391       0.76888902 </v>
   <v>       0.30127600       0.05129450       0.76887296 </v>
   <v>       0.30127601       0.55129450       0.76887296 </v>
   <v>       0.80127594       0.05129450       0.76887296 </v>
   <v>       0.80127598       0.55129450       0.76887296 </v>
   <v>       0.07877100       0.17118050       0.74344197 </v>
   <v>       0.07877101       0.67118045       0.74344197 </v>
   <v>       0.57877100       0.17118050       0.74344197 </v>
   <v>       0.57877099       0.67118045       0.74344197 </v>
   <v>       0.17119950       0.42117448       0.74342103 </v>
   <v>       0.17119950       0.92117451       0.74342103 </v>
   <v>       0.67119951       0.42117448       0.74342103 </v>
   <v>       0.67119950       0.92117451       0.74342103 </v>
   <v>       0.05125600       0.19871499       0.76888902 </v>
   <v>       0.05125600       0.69871493       0.76888902 </v>
   <v>       0.55125603       0.19871499       0.76888902 </v>
   <v>       0.55125602       0.69871493       0.76888902 </v>
   <v>       0.19872349       0.44870397       0.76887205 </v>
   <v>       0.19872349       0.94870397       0.76887205 </v>
   <v>       0.69872352       0.44870397       0.76887205 </v>
   <v>       0.69872351       0.94870397       0.76887205 </v>
   <v>       0.42123152       0.32881747       0.74344197 </v>
   <v>       0.42123151       0.82881744       0.74344197 </v>
   <v>       0.92123147       0.32881747       0.74344197 </v>
   <v>       0.92123151       0.82881744       0.74344197 </v>
   <v>       0.32880050       0.07882500       0.74342103 </v>
   <v>       0.32880049       0.57882496       0.74342103 </v>
   <v>       0.82880048       0.07882500       0.74342103 </v>
   <v>       0.82880052       0.57882496       0.74342103 </v>
   <v>       0.00000350       0.25000148       0.72582199 </v>
   <v>       0.00000350       0.75000145       0.72582199 </v>
   <v>       0.50000351       0.25000148       0.72582199 </v>
   <v>       0.50000350       0.75000145       0.72582199 </v>
   <v>       0.25000050       0.00000000       0.72580398 </v>
   <v>       0.25000052       0.50000000       0.72580398 </v>
   <v>       0.75000050       0.00000000       0.72580398 </v>
   <v>       0.75000049       0.50000000       0.72580398 </v>
   <v>       0.77568540       0.55485380       0.52086340 </v>
   <v>       0.72018073       0.47531401       0.52691887 </v>
   <v>       0.87373732       0.50081530       0.54273703 </v>
   <v>       0.85602321       0.47676067       0.56971038 </v>
   <v>       0.74233606       0.64039786       0.56003883 </v>
   <v>       0.80225147       0.59566168       0.57855273 </v>
   <v>       0.66786719       0.54702897       0.57092816 </v>
   <v>       0.67802577       0.45403643       0.56137901 </v>
   <v>       0.61320127       0.55055597       0.53808657 </v>
   <v>       0.66830757       0.63253543       0.53752371 </v>
   <v>       0.60579877       0.64663744       0.50608450 </v>
   <v>       0.68666824       0.60259676       0.49659517 </v>
   <v>       0.81269261       0.38812156       0.52968938 </v>
   <v>       0.76814063       0.37322326       0.55481446 </v>
   <v>       0.86459398       0.36164808       0.55303053 </v>
   <v>       0.86408117       0.69153803       0.55715752 </v>
   <v>       0.84776633       0.64587219       0.53296207 </v>
   <v>       0.90820356       0.60565860       0.55260351 </v>
   <v>       0.75502129       0.52278210       0.60055341 </v>
   <v>       0.77574164       0.43273483       0.59020490 </v>
   <v>       0.68664319       0.45242647       0.59992737 </v>
   <v>       0.53442524       0.53056976       0.50514290 </v>
   <v>       0.57696746       0.54969879       0.48012514 </v>
   <v>       0.69262610       0.47747962       0.46923808 </v>
   <v>       0.56118872       0.41849978       0.52380392 </v>
   <v>       0.76110558       0.35857987       0.47214650 </v>
   <v>       0.62867548       0.29994198       0.52692412 </v>
   <v>       0.72899781       0.26998702       0.50148492 </v>
   <v>       0.02200458       0.24884605       0.55874121 </v>
   <v>       0.02568202       0.75096886       0.55895598 </v>
   <v>       0.46801220       0.22379304       0.55389088 </v>
   <v>       0.50863400       0.77126050       0.55847517 </v>
   <v>       0.23695359       0.52148048       0.55866747 </v>
   <v>       0.24312042       0.01294126       0.55525119 </v>
   <v>       0.77018680       0.98054315       0.56257181 </v>
   <v>       0.00943676       0.24390876       0.65162722 </v>
   <v>       0.00870648       0.76229513       0.65243134 </v>
   <v>       0.48830751       0.23193020       0.65313332 </v>
   <v>       0.49624460       0.75788267       0.65014792 </v>
   <v>       0.25323336       0.49487002       0.64933550 </v>
   <v>       0.25128465       0.99918589       0.64848102 </v>
   <v>       0.77439293       0.49222601       0.65234642 </v>
   <v>       0.75336180       0.99878026       0.65002259 </v>
   <v>       0.49998898       0.24999498       0.74327702 </v>
   <v>       0.49998903       0.74999496       0.74327702 </v>
   <v>       0.99998898       0.24999498       0.74327702 </v>
   <v>       0.99998903       0.74999496       0.74327702 </v>
   <v>       0.25000050       0.00000100       0.74325596 </v>
   <v>       0.25000052       0.50000100       0.74325596 </v>
   <v>       0.75000050       0.00000100       0.74325596 </v>
   <v>       0.75000049       0.50000100       0.74325596 </v>
   <v>       0.62293437       0.45643192       0.49664816 </v>
   <v>       0.67905587       0.43874754       0.48217652 </v>
   <v>       0.60458035       0.40550082       0.51243929 </v>
   <v>       0.71709822       0.37200015       0.48353040 </v>
   <v>       0.64232416       0.33897857       0.51422077 </v>
   <v>       0.69903037       0.32175057       0.49992088 </v>
   <v>       0.73245656       0.53255137       0.53139242 </v>
   <v>       0.83284494       0.47602578       0.55346080 </v>
   <v>       0.79030289       0.60271138       0.56142613 </v>
   <v>       0.70543802       0.50009741       0.56958560 </v>
   <v>       0.65973368       0.57834239       0.52972479 </v>
   <v>       0.63673150       0.59288087       0.50634398 </v>
   <v>       0.81805432       0.39543840       0.54708745 </v>
   <v>       0.85620608       0.63639632       0.55016113 </v>
   <v>       0.73350643       0.47606379       0.59131322 </v>
   <v>       0.58760783       0.53198949       0.49651111 </v>
   <v>       0.01790671       0.18524574       0.56936773 </v>
   <v>       0.03401702       0.68877829       0.56957614 </v>
   <v>       0.53918647       0.22124913       0.55856588 </v>
   <v>       0.49638088       0.70782058       0.56799477 </v>
   <v>       0.42250280       0.27418465       0.56122193 </v>
   <v>       0.47022695       0.83145115       0.56125868 </v>
   <v>       0.00056584       0.31293029       0.56661418 </v>
   <v>       0.98644406       0.80774994       0.56555227 </v>
   <v>       0.23821930       0.45314705       0.56625510 </v>
   <v>       0.18069906       0.97984196       0.56058093 </v>
   <v>       0.69899055       0.97735759       0.56684152 </v>
   <v>       0.30783625       0.99786605       0.56387963 </v>
   <v>       0.28493061       0.57298987       0.56379807 </v>
   <v>       0.81438629       0.03176997       0.57026561 </v>
   <v>       0.05771188       0.19270252       0.65703840 </v>
   <v>       0.04998477       0.71070465       0.66168154 </v>
   <v>       0.55629340       0.21352468       0.65864852 </v>
   <v>       0.53464361       0.71426723       0.66296164 </v>
   <v>       0.21399513       0.44441500       0.65881695 </v>
   <v>       0.20360323       0.95526724       0.65842643 </v>
   <v>       0.72187755       0.46165699       0.66399816 </v>
   <v>       0.70318320       0.95737158       0.65973773 </v>
   <v>       0.45124347       0.28771163       0.66084116 </v>
   <v>       0.44705745       0.80706600       0.65630852 </v>
   <v>       0.96850989       0.28255443       0.66519909 </v>
   <v>       0.94436446       0.78583905       0.65918879 </v>
   <v>       0.29635442       0.04559537       0.65747971 </v>
   <v>       0.29742718       0.54379855       0.65867563 </v>
   <v>       0.79322396       0.05042270       0.65884351 </v>
   <v>       0.80154287       0.55777077       0.65525960 </v>
   <v>       0.04586250       0.20411950       0.75272599 </v>
   <v>       0.04586250       0.70411946       0.75272599 </v>
   <v>       0.54586251       0.20411950       0.75272599 </v>
   <v>       0.54586250       0.70411946       0.75272599 </v>
   <v>       0.20411900       0.45410100       0.75270499 </v>
   <v>       0.20411899       0.95410095       0.75270499 </v>
   <v>       0.70411898       0.45410100       0.75270499 </v>
   <v>       0.70411896       0.95410095       0.75270499 </v>
   <v>       0.45414002       0.29588849       0.75272697 </v>
   <v>       0.45414001       0.79588852       0.75272697 </v>
   <v>       0.95414002       0.29588849       0.75272697 </v>
[...]
   <v>       0.57346853       0.18130125       0.55257744 </v>
   <v>       0.52605466       0.66201397       0.56435165 </v>
   <v>       0.35577676       0.02057621       0.55825778 </v>
   <v>       0.28028686       0.62513024       0.55738230 </v>
   <v>       0.86837916       0.03537794       0.56491304 </v>
   <v>       0.00063458       0.18374885       0.58513321 </v>
   <v>       0.01018589       0.68203444       0.58452585 </v>
   <v>       0.56153834       0.25604214       0.57005341 </v>
   <v>       0.45657606       0.69880262       0.57924305 </v>
   <v>       0.27892213       0.43446673       0.57648310 </v>
   <v>       0.17656584       0.94045652       0.57238749 </v>
   <v>       0.67561444       0.01446485       0.57739606 </v>
   <v>       0.36670842       0.26936577       0.55831498 </v>
   <v>       0.48673326       0.88100079       0.55480591 </v>
   <v>       0.01761204       0.36119801       0.55929863 </v>
   <v>       0.99018819       0.85789715       0.55795956 </v>
   <v>       0.19571117       0.41794588       0.56253848 </v>
   <v>       0.13123702       0.99857483       0.55436082 </v>
   <v>       0.67175642       0.93096562       0.56218074 </v>
   <v>       0.44720091       0.18175816       0.54283556 </v>
   <v>       0.55627541       0.77432530       0.54774542 </v>
   <v>       0.04572771       0.24837391       0.54267940 </v>
   <v>       0.05324140       0.75425510       0.54346606 </v>
   <v>       0.19158919       0.53608771       0.54768907 </v>
   <v>       0.24049725       0.05627206       0.54291987 </v>
   <v>       0.79298482       0.93800127       0.55185714 </v>
   <v>       0.47119531       0.32363812       0.67225232 </v>
   <v>       0.43335318       0.81721351       0.67198963 </v>
   <v>       0.97019553       0.27712625       0.68150282 </v>
   <v>       0.91843896       0.76636320       0.67263875 </v>
   <v>       0.30122753       0.05452023       0.67382282 </v>
   <v>       0.30566369       0.54594340       0.67505818 </v>
   <v>       0.79054326       0.06567880       0.67478273 </v>
   <v>       0.78857366       0.59257729       0.66762481 </v>
   <v>       0.08621981       0.16652013       0.64497501 </v>
   <v>       0.09952344       0.69780443       0.65512682 </v>
   <v>       0.58041361       0.16883177       0.65165689 </v>
   <v>       0.57095956       0.67837994       0.65623978 </v>
   <v>       0.18257238       0.41023115       0.64986185 </v>
   <v>       0.17195318       0.92128377       0.64992638 </v>
   <v>       0.70590198       0.40791666       0.66093658 </v>
   <v>       0.67504339       0.91953412       0.65131881 </v>
   <v>       0.06867471       0.17858414       0.67244437 </v>
   <v>       0.03481157       0.68363490       0.67538032 </v>
   <v>       0.58671580       0.24282844       0.66983240 </v>
   <v>       0.52994899       0.71421491       0.67923455 </v>
   <v>       0.21142366       0.43705566       0.67518546 </v>
   <v>       0.19765282       0.95342910       0.67488199 </v>
   <v>       0.69526605       0.48806365       0.67635635 </v>
   <v>       0.69108253       0.96242535       0.67586492 </v>
   <v>       0.39767291       0.29500772       0.65614118 </v>
   <v>       0.42088035       0.83785873       0.64474407 </v>
   <v>       0.93317699       0.32095370       0.65924941 </v>
   <v>       0.91711097       0.82604693       0.65089490 </v>
   <v>       0.32999633       0.07623695       0.64799338 </v>
   <v>       0.32486278       0.58039987       0.64973432 </v>
   <v>       0.83023508       0.07817762       0.64955405 </v>
   <v>       0.84300112       0.57780127       0.64499186 </v>
   <v>       0.00263817       0.25534033       0.63496831 </v>
   <v>       0.03152111       0.78575152       0.63789944 </v>
   <v>       0.45985155       0.19713788       0.64131986 </v>
   <v>       0.50656516       0.75264630       0.63308182 </v>
   <v>       0.25265634       0.99565493       0.63121426 </v>
   <v>       0.25173387       0.49901960       0.63202320 </v>
   <v>       0.76033197       0.98654032       0.63315746 </v>
   <v>       0.79779447       0.45778665       0.63948435 </v>
   <v>       0.44874502       0.30128397       0.76888902 </v>
   <v>       0.44874501       0.80128391       0.76888902 </v>
   <v>       0.94874497       0.30128397       0.76888902 </v>
   <v>       0.94874501       0.80128391       0.76888902 </v>
   <v>       0.30127600       0.05129450       0.76887296 </v>
   <v>       0.30127601       0.55129450       0.76887296 </v>
   <v>       0.80127594       0.05129450       0.76887296 </v>
   <v>       0.80127598       0.55129450       0.76887296 </v>
   <v>       0.07877100       0.17118050       0.74344197 </v>
   <v>       0.07877101       0.67118045       0.74344197 </v>
   <v>       0.57877100       0.17118050       0.74344197 </v>
   <v>       0.57877099       0.67118045       0.74344197 </v>
   <v>       0.17119950       0.42117448       0.74342103 </v>
   <v>       0.17119950       0.92117451       0.74342103 </v>
   <v>       0.67119951       0.42117448       0.74342103 </v>
   <v>       0.67119950       0.92117451       0.74342103 </v>
   <v>       0.05125600       0.19871499       0.76888902 </v>
   <v>       0.05125600       0.69871493       0.76888902 </v>
   <v>       0.55125603       0.19871499       0.76888902 </v>
   <v>       0.55125602       0.69871493       0.76888902 </v>
   <v>       0.19872349       0.44870397       0.76887205 </v>
   <v>       0.19872349       0.94870397       0.76887205 </v>
   <v>       0.69872352       0.44870397       0.76887205 </v>
   <v>       0.69872351       0.94870397       0.76887205 </v>
   <v>       0.42123152       0.32881747       0.74344197 </v>
   <v>       0.42123151       0.82881744       0.74344197 </v>
   <v>       0.92123147       0.32881747       0.74344197 </v>
   <v>       0.92123151       0.82881744       0.74344197 </v>
   <v>       0.32880050       0.07882500       0.74342103 </v>
   <v>       0.32880049       0.57882496       0.74342103 </v>
   <v>       0.82880048       0.07882500       0.74342103 </v>
   <v>       0.82880052       0.57882496       0.74342103 </v>
   <v>       0.00000350       0.25000148       0.72582199 </v>
   <v>       0.00000350       0.75000145       0.72582199 </v>
   <v>       0.50000351       0.25000148       0.72582199 </v>
   <v>       0.50000350       0.75000145       0.72582199 </v>
   <v>       0.25000050       0.00000000       0.72580398 </v>
   <v>       0.25000052       0.50000000       0.72580398 </v>
   <v>       0.75000050       0.00000000       0.72580398 </v>
   <v>       0.75000049       0.50000000       0.72580398 </v>
   <v>       0.77568540       0.55485380       0.52086340 </v>
   <v>       0.72018073       0.47531401       0.52691887 </v>
   <v>       0.87373732       0.50081530       0.54273703 </v>
   <v>       0.85602321       0.47676067       0.56971038 </v>
   <v>       0.74233606       0.64039786       0.56003883 </v>
   <v>       0.80225147       0.59566168       0.57855273 </v>
   <v>       0.66786719       0.54702897       0.57092816 </v>
   <v>       0.67802577       0.45403643       0.56137901 </v>
   <v>       0.61320127       0.55055597       0.53808657 </v>
   <v>       0.66830757       0.63253543       0.53752371 </v>
   <v>       0.60579877       0.64663744       0.50608450 </v>
   <v>       0.68666824       0.60259676       0.49659517 </v>
   <v>       0.81269261       0.38812156       0.52968938 </v>
   <v>       0.76814063       0.37322326       0.55481446 </v>
   <v>       0.86459398       0.36164808       0.55303053 </v>
   <v>       0.86408117       0.69153803       0.55715752 </v>
   <v>       0.84776633       0.64587219       0.53296207 </v>
   <v>       0.90820356       0.60565860       0.55260351 </v>
   <v>       0.75502129       0.52278210       0.60055341 </v>
   <v>       0.77574164       0.43273483       0.59020490 </v>
   <v>       0.68664319       0.45242647       0.59992737 </v>
   <v>       0.53442524       0.53056976       0.50514290 </v>
   <v>       0.57696746       0.54969879       0.48012514 </v>
   <v>       0.69262610       0.47747962       0.46923808 </v>
   <v>       0.56118872       0.41849978       0.52380392 </v>
   <v>       0.76110558       0.35857987       0.47214650 </v>
   <v>       0.62867548       0.29994198       0.52692412 </v>
   <v>       0.72899781       0.26998702       0.50148492 </v>
   <v>       0.02200458       0.24884605       0.55874121 </v>
   <v>       0.02568202       0.75096886       0.55895598 </v>
   <v>       0.46801220       0.22379304       0.55389088 </v>
   <v>       0.50863400       0.77126050       0.55847517 </v>
   <v>       0.23695359       0.52148048       0.55866747 </v>
   <v>       0.24312042       0.01294126       0.55525119 </v>
   <v>       0.77018680       0.98054315       0.56257181 </v>
   <v>       0.00943676       0.24390876       0.65162722 </v>
   <v>       0.00870648       0.76229513       0.65243134 </v>
   <v>       0.48830751       0.23193020       0.65313332 </v>
   <v>       0.49624460       0.75788267       0.65014792 </v>
   <v>       0.25323336       0.49487002       0.64933550 </v>
   <v>       0.25128465       0.99918589       0.64848102 </v>
   <v>       0.77439293       0.49222601       0.65234642 </v>
   <v>       0.75336180       0.99878026       0.65002259 </v>
   <v>       0.49998898       0.24999498       0.74327702 </v>
   <v>       0.49998903       0.74999496       0.74327702 </v>
   <v>       0.99998898       0.24999498       0.74327702 </v>
   <v>       0.99998903       0.74999496       0.74327702 </v>
   <v>       0.25000050       0.00000100       0.74325596 </v>
   <v>       0.25000052       0.50000100       0.74325596 </v>
   <v>       0.75000050       0.00000100       0.74325596 </v>
   <v>       0.75000049       0.50000100       0.74325596 </v>
   <v>       0.62293437       0.45643192       0.49664816 </v>
   <v>       0.67905587       0.43874754       0.48217652 </v>
   <v>       0.60458035       0.40550082       0.51243929 </v>
   <v>       0.71709822       0.37200015       0.48353040 </v>
   <v>       0.64232416       0.33897857       0.51422077 </v>
   <v>       0.69903037       0.32175057       0.49992088 </v>
   <v>       0.73245656       0.53255137       0.53139242 </v>
   <v>       0.83284494       0.47602578       0.55346080 </v>
   <v>       0.79030289       0.60271138       0.56142613 </v>
   <v>       0.70543802       0.50009741       0.56958560 </v>
   <v>       0.65973368       0.57834239       0.52972479 </v>
   <v>       0.63673150       0.59288087       0.50634398 </v>
   <v>       0.81805432       0.39543840       0.54708745 </v>
   <v>       0.85620608       0.63639632       0.55016113 </v>
   <v>       0.73350643       0.47606379       0.59131322 </v>
   <v>       0.58760783       0.53198949       0.49651111 </v>
   <v>       0.01790671       0.18524574       0.56936773 </v>
   <v>       0.03401702       0.68877829       0.56957614 </v>
   <v>       0.53918647       0.22124913       0.55856588 </v>
   <v>       0.49638088       0.70782058       0.56799477 </v>
   <v>       0.42250280       0.27418465       0.56122193 </v>
   <v>       0.47022695       0.83145115       0.56125868 </v>
   <v>       0.00056584       0.31293029       0.56661418 </v>
   <v>       0.98644406       0.80774994       0.56555227 </v>
   <v>       0.23821930       0.45314705       0.56625510 </v>
   <v>       0.18069906       0.97984196       0.56058093 </v>
   <v>       0.69899055       0.97735759       0.56684152 </v>
   <v>       0.30783625       0.99786605       0.56387963 </v>
   <v>       0.28493061       0.57298987       0.56379807 </v>
   <v>       0.81438629       0.03176997       0.57026561 </v>
   <v>       0.05771188       0.19270252       0.65703840 </v>
   <v>       0.04998477       0.71070465       0.66168154 </v>
   <v>       0.55629340       0.21352468       0.65864852 </v>
   <v>       0.53464361       0.71426723       0.66296164 </v>
   <v>       0.21399513       0.44441500       0.65881695 </v>
   <v>       0.20360323       0.95526724       0.65842643 </v>
   <v>       0.72187755       0.46165699       0.66399816 </v>
   <v>       0.70318320       0.95737158       0.65973773 </v>
   <v>       0.45124347       0.28771163       0.66084116 </v>
   <v>       0.44705745       0.80706600       0.65630852 </v>
   <v>       0.96850989       0.28255443       0.66519909 </v>
   <v>       0.94436446       0.78583905       0.65918879 </v>
   <v>       0.29635442       0.04559537       0.65747971 </v>
   <v>       0.29742718       0.54379855       0.65867563 </v>
   <v>       0.79322396       0.05042270       0.65884351 </v>
   <v>       0.80154287       0.55777077       0.65525960 </v>
   <v>       0.04586250       0.20411950       0.75272599 </v>
   <v>       0.04586250       0.70411946       0.75272599 </v>
   <v>       0.54586251       0.20411950       0.75272599 </v>
   <v>       0.54586250       0.70411946       0.75272599 </v>
   <v>       0.20411900       0.45410100       0.75270499 </v>
   <v>       0.20411899       0.95410095       0.75270499 </v>
   <v>       0.70411898       0.45410100       0.75270499 </v>
   <v>       0.70411896       0.95410095       0.75270499 </v>
   <v>       0.45414002       0.29588849       0.75272697 </v>
   <v>       0.45414001       0.79588852       0.75272697 </v>
   <v>       0.95414002       0.29588849       0.75272697 </v>
   <v>       0.95414006       0.79588852       0.75272697 </v>
   <v>       0.29588249       0.04590050       0.75270499 </v>
   <v>       0.29588248       0.54590053       0.75270499 </v>
   <v>       0.79588244       0.04590050       0.75270499 </v>
   <v>       0.79588248       0.54590053       0.75270499 </v>
   <v>       0.76583230       0.52708591       0.55372165 </v>
   <v>       0.50538694       0.01928046       0.55314237 </v>
   <v>       0.47244403       0.50560015       0.55604066 </v>
   <v>       0.99098857       0.99872931       0.54995424 </v>
   <v>       0.03835011       0.49522191       0.55314268 </v>
   <v>       0.23131945       0.23382725       0.55363063 </v>
   <v>       0.25645554       0.76157365       0.55324774 </v>
   <v>       0.73993739       0.20582081       0.55523367 </v>
   <v>       0.71023162       0.79029059       0.54903578 </v>
   <v>       0.00167220       0.98948856       0.65485376 </v>
   <v>       0.01102664       0.49498654       0.65569908 </v>
   <v>       0.50006049       0.00883176       0.65470260 </v>
   <v>       0.50782766       0.49233087       0.65563767 </v>
   <v>       0.25738800       0.24417837       0.65471927 </v>
   <v>       0.24945098       0.75222724       0.65504215 </v>
   <v>       0.74624290       0.26680345       0.65472110 </v>
   <v>       0.75004769       0.75202154       0.65402022 </v>
   <v>       0.13763739       0.10508516       0.60900029 </v>
   <v>       0.14727533       0.60744348       0.61007484 </v>
   <v>       0.64872152       0.10338732       0.61179937 </v>
   <v>       0.61739091       0.63622758       0.61416520 </v>
   <v>       0.35884319       0.38926014       0.60881800 </v>
   <v>       0.36539037       0.88798070       0.60749242 </v>
   <v>       0.89332503       0.36266095       0.61383054 </v>
   <v>       0.87055879       0.87553955       0.60955582 </v>
   <v>       0.12059607       0.35811394       0.61069185 </v>
   <v>       0.12143953       0.87050878       0.60735109 </v>
   <v>       0.57992033       0.32960999       0.60399807 </v>
   <v>       0.61483641       0.87015387       0.61127723 </v>
   <v>       0.38472224       0.13286267       0.60595451 </v>
   <v>       0.38714523       0.63673771       0.61071010 </v>
   <v>       0.89002208       0.13859203       0.61373469 </v>
   <v>       0.91050635       0.64415753       0.61463746 </v>
   <v>       0.00000000       0.00000000       0.75492797 </v>
   <v>       0.00000000       0.50000000       0.75492797 </v>
   <v>       0.50000000       0.00000000       0.75492797 </v>
   <v>       0.49999999       0.50000000       0.75492797 </v>
   <v>       0.25000050       0.25000000       0.75493902 </v>
   <v>       0.25000051       0.74999997       0.75493902 </v>
   <v>       0.75000047       0.25000000       0.75493902 </v>
   <v>       0.75000046       0.74999997       0.75493902 </v>
   <v>       0.13579050       0.11421000       0.70478299 </v>
   <v>       0.13579050       0.61420998       0.70478299 </v>
   <v>       0.63579045       0.11421000       0.70478299 </v>
   <v>       0.63579049       0.61420998       0.70478299 </v>
   <v>       0.36420952       0.38578999       0.70478299 </v>
   <v>       0.36420950       0.88578996       0.70478299 </v>
   <v>       0.86420954       0.38578999       0.70478299 </v>
   <v>       0.86420953       0.88578996       0.70478299 </v>
   <v>       0.11421799       0.36421899       0.70478098 </v>
   <v>       0.11421799       0.86421899       0.70478098 </v>
   <v>       0.61421800       0.36421899       0.70478098 </v>
   <v>       0.61421799       0.86421899       0.70478098 </v>
   <v>       0.38578201       0.13578149       0.70478202 </v>
   <v>       0.38578200       0.63578149       0.70478202 </v>
   <v>       0.88578199       0.13578149       0.70478202 </v>
   <v>       0.88578203       0.63578149       0.70478202 </v>
   <v>       0.13466700       0.11533200       0.80125603 </v>
   <v>       0.13466699       0.61533199       0.80125603 </v>
   <v>       0.63466699       0.11533200       0.80125603 </v>
   <v>       0.63466698       0.61533199       0.80125603 </v>
   <v>       0.36533300       0.38466799       0.80125603 </v>
   <v>       0.36533299       0.88466796       0.80125603 </v>
   <v>       0.86533295       0.38466799       0.80125603 </v>
   <v>       0.86533294       0.88466796       0.80125603 </v>
   <v>       0.11532850       0.36533700       0.80126500 </v>
   <v>       0.11532850       0.86533698       0.80126500 </v>
   <v>       0.61532850       0.36533700       0.80126500 </v>
   <v>       0.61532849       0.86533698       0.80126500 </v>
   <v>       0.38467151       0.13466300       0.80126500 </v>
   <v>       0.38467150       0.63466297       0.80126500 </v>
   <v>       0.88467149       0.13466300       0.80126500 </v>
   <v>       0.88467153       0.63466297       0.80126500 </v>
   <v>       0.99252824       0.99828466       0.60605817 </v>
   <v>       0.00959255       0.49877124       0.60643257 </v>
   <v>       0.50252008       0.00921398       0.60465048 </v>
   <v>       0.49690416       0.49259380       0.60508697 </v>
   <v>       0.24408660       0.24079031       0.60369802 </v>
   <v>       0.24823155       0.74635445       0.60355932 </v>
   <v>       0.73902045       0.24670310       0.60282565 </v>
   <v>       0.73379292       0.75439876       0.60208869 </v>
   <v>       0.00000050       0.00000050       0.70482896 </v>
   <v>       0.00000050       0.50000048       0.70482896 </v>
   <v>       0.50000048       0.00000050       0.70482896 </v>
   <v>       0.50000046       0.50000048       0.70482896 </v>
   <v>       0.24999999       0.24999947       0.70482499 </v>
   <v>       0.25000001       0.74999950       0.70482499 </v>
   <v>       0.74999999       0.24999947       0.70482499 </v>
   <v>       0.74999998       0.74999950       0.70482499 </v>
   <v>       0.00000000       0.00000000       0.80731797 </v>
   <v>       0.00000000       0.50000000       0.80731797 </v>
   <v>       0.50000000       0.00000000       0.80731797 </v>
   <v>       0.49999999       0.50000000       0.80731797 </v>
   <v>       0.24999999       0.25000000       0.80731797 </v>
   <v>       0.25000001       0.74999997       0.80731797 </v>
   <v>       0.74999999       0.25000000       0.80731797 </v>
   <v>       0.74999998       0.74999997       0.80731797 </v>
  </varray>
 </structure>
</modeling>
