 vasp.6.2.1 16May21 (build Nov 15 2021 14:57:28) complex                         
 executed on             LinuxPGI date 2023.07.30  21:51:49
 running on    4 total cores
 distrk:  each k-point on    4 cores,    1 groups
 distr:  one band on NCORE=   1 cores,    4 groups


--------------------------------------------------------------------------------------------------------


 INCAR:
   SYSTEM = PSC
   ISTART = 1
   ICHARG = 1
   PREC = Normal
   ENCUT = 500
   GGA_COMPAT = F
   NELM = 600
   ISYM = 0
   LREAL = Auto
   ISMEAR = 0
   SIGMA = 0.05
   AMIN = 0.01
   BMIX = 0.01
   LVTOT = T
   LWAVE = F
   LDIPOL = T
   IDIPOL = 3
   LVDW = T
   IVDW = 12

 POTCAR:    PAW_PBE H 15Jun2001                   
 POTCAR:    PAW_PBE C 08Apr2002                   
 POTCAR:    PAW_PBE N 08Apr2002                   
 POTCAR:    PAW_PBE I 08Apr2002                   
 POTCAR:    PAW_PBE Pb 08Apr2002                  
 WARNING: For LVTOT=.TRUE., VASP.5.x writes the TOTAL local potential to the
     file LOCPOT. If you want only the Hartree contributions, use LVHAR=.TRUE.
     instead. 

 POTCAR:    PAW_PBE H 15Jun2001                   
   SHA256 =  030f79b5d3ab3cf0e668861823c8fb652ff669f3e15e46930bd03bfd63a607b6 H/POTCAR              
   COPYR  = (c) Copyright 15Jun2001 Georg Kresse                                                    
   COPYR  = This file is part of the software VASP. Any use, copying, and all other rights are regul
   COPYR  = If you do not have a valid VASP license, you may not use, copy or distribute this file. 
   VRHFIN =H: ultrasoft test                                                                        
   LEXCH  = PE                                                                                      
   EATOM  =    12.4884 eV,    0.9179 Ry                                                             
                                                                                                    
   TITEL  = PAW_PBE H 15Jun2001                                                                     
   LULTRA =        F    use ultrasoft PP ?                                                          
   IUNSCR =        0    unscreen: 0-lin 1-nonlin 2-no                                               
   RPACOR =    0.000    partial core radius                                                         
   POMASS =    1.000; ZVAL   =    1.000    mass and valenz                                          
   RCORE  =    1.100    outmost cutoff radius                                                       
   RWIGS  =    0.700; RWIGS  =    0.370    wigner-seitz radius (au A)                               
   ENMAX  =  250.000; ENMIN  =  200.000 eV                                                          
   RCLOC  =    0.701    cutoff for local pot                                                        
   LCOR   =        T    correct aug charges                                                         
   LPAW   =        T    paw PP                                                                      
   EAUG   =  400.000                                                                                
   RMAX   =    1.123    core radius for proj-oper                                                   
   RAUG   =    1.200    factor for augmentation sphere                                              
   RDEP   =    1.112    radius for radial grids                                                     
   RDEPT  =    0.926    core radius for aug-charge                                                  
                                                                                                    
   Atomic configuration                                                                             
    2 entries                                                                                       
     n  l   j            E        occ.                                                              
     1  0  0.50        -6.4927   1.0000                                                             
     2  1  0.50        -3.4015   0.0000                                                             
   Description                                                                                      
     l       E           TYP  RCUT    TYP  RCUT                                                     
     0     -6.4927494     23  1.100                                                                 
     0      6.8029130     23  1.100                                                                 
     1     -4.0817478     23  1.100                                                                 
  local pseudopotential read in
  atomic valenz-charges read in
  non local Contribution for L=            0  read in
    real space projection operators read in
  non local Contribution for L=            0  read in
    real space projection operators read in
  non local Contribution for L=            1  read in
    real space projection operators read in
    PAW grid and wavefunctions read in
 
   number of l-projection  operators is LMAX  =            3
   number of lm-projection operators is LMMAX =            5
 
 POTCAR:    PAW_PBE C 08Apr2002                   
   SHA256 =  253f7b50bb8d59471dbedb8285d89021f4a42ed1a2c5d38a03a736e69125dd95 C/POTCAR              
   COPYR  = (c) Copyright 08Apr2002 Georg Kresse                                                    
   COPYR  = This file is part of the software VASP. Any use, copying, and all other rights are regul
   COPYR  = If you do not have a valid VASP license, you may not use, copy or distribute this file. 
   VRHFIN =C: s2p2                                                                                  
   LEXCH  = PE                                                                                      
   EATOM  =   147.1560 eV,   10.8157 Ry                                                             
                                                                                                    
   TITEL  = PAW_PBE C 08Apr2002                                                                     
   LULTRA =        F    use ultrasoft PP ?                                                          
   IUNSCR =        1    unscreen: 0-lin 1-nonlin 2-no                                               
   RPACOR =    1.200    partial core radius                                                         
   POMASS =   12.011; ZVAL   =    4.000    mass and valenz                                          
   RCORE  =    1.500    outmost cutoff radius                                                       
   RWIGS  =    1.630; RWIGS  =    0.863    wigner-seitz radius (au A)                               
   ENMAX  =  400.000; ENMIN  =  300.000 eV                                                          
   ICORE  =        2    local potential                                                             
   LCOR   =        T    correct aug charges                                                         
   LPAW   =        T    paw PP                                                                      
   EAUG   =  644.873                                                                                
   DEXC   =    0.000                                                                                
   RMAX   =    1.529    core radius for proj-oper                                                   
   RAUG   =    1.300    factor for augmentation sphere                                              
   RDEP   =    1.501    radius for radial grids                                                     
   RDEPT  =    1.300    core radius for aug-charge                                                  
                                                                                                    
   Atomic configuration                                                                             
    4 entries                                                                                       
     n  l   j            E        occ.                                                              
     1  0  0.50      -273.3789   2.0000                                                             
     2  0  0.50       -13.7508   2.0000                                                             
     2  1  0.50        -5.2854   2.0000                                                             
     3  2  1.50        -5.4423   0.0000                                                             
   Description                                                                                      
     l       E           TYP  RCUT    TYP  RCUT                                                     
     0    -13.7508458     23  1.200                                                                 
     0     -8.2022199     23  1.200                                                                 
     1     -5.2854383     23  1.500                                                                 
     1     34.0145650     23  1.500                                                                 
     2     -5.4423304      7  1.500                                                                 
  local pseudopotential read in
  partial core-charges read in
  partial kinetic energy density read in
  atomic valenz-charges read in
  non local Contribution for L=            0  read in
    real space projection operators read in
  non local Contribution for L=            0  read in
    real space projection operators read in
  non local Contribution for L=            1  read in
    real space projection operators read in
  non local Contribution for L=            1  read in
    real space projection operators read in
    PAW grid and wavefunctions read in
 
   number of l-projection  operators is LMAX  =            4
   number of lm-projection operators is LMMAX =            8
 
 POTCAR:    PAW_PBE N 08Apr2002                   
   SHA256 =  e053789ff3a61a86a1b75d8a110fcc91f86041011e7b0817c7c99e4e8a6349d7 N/POTCAR              
   COPYR  = (c) Copyright 08Apr2002 Georg Kresse                                                    
   COPYR  = This file is part of the software VASP. Any use, copying, and all other rights are regul
   COPYR  = If you do not have a valid VASP license, you may not use, copy or distribute this file. 
   VRHFIN =N: s2p3                                                                                  
   LEXCH  = PE                                                                                      
   EATOM  =   264.5486 eV,   19.4438 Ry                                                             
                                                                                                    
   TITEL  = PAW_PBE N 08Apr2002                                                                     
   LULTRA =        F    use ultrasoft PP ?                                                          
   IUNSCR =        1    unscreen: 0-lin 1-nonlin 2-no                                               
   RPACOR =    1.200    partial core radius                                                         
   POMASS =   14.001; ZVAL   =    5.000    mass and valenz                                          
   RCORE  =    1.500    outmost cutoff radius                                                       
   RWIGS  =    1.400; RWIGS  =    0.741    wigner-seitz radius (au A)                               
   ENMAX  =  400.000; ENMIN  =  300.000 eV                                                          
   ICORE  =        2    local potential                                                             
   LCOR   =        T    correct aug charges                                                         
   LPAW   =        T    paw PP                                                                      
   EAUG   =  627.112                                                                                
   DEXC   =    0.000                                                                                
   RMAX   =    1.529    core radius for proj-oper                                                   
   RAUG   =    1.300    factor for augmentation sphere                                              
   RDEP   =    1.514    radius for radial grids                                                     
   RDEPT  =    1.338    core radius for aug-charge                                                  
                                                                                                    
   Atomic configuration                                                                             
    4 entries                                                                                       
     n  l   j            E        occ.                                                              
     1  0  0.50      -384.7179   2.0000                                                             
     2  0  0.50       -18.5828   2.0000                                                             
     2  1  0.50        -7.0898   3.0000                                                             
     3  2  1.50        -6.8029   0.0000                                                             
   Description                                                                                      
     l       E           TYP  RCUT    TYP  RCUT                                                     
     0    -18.5828119     23  1.200                                                                 
     0    -13.5018863     23  1.200                                                                 
     1     -7.0897853     23  1.500                                                                 
     1      9.5240782     23  1.500                                                                 
     2     -6.8029130      7  1.500                                                                 
  local pseudopotential read in
  partial core-charges read in
  partial kinetic energy density read in
  atomic valenz-charges read in
  non local Contribution for L=            0  read in
    real space projection operators read in
  non local Contribution for L=            0  read in
    real space projection operators read in
  non local Contribution for L=            1  read in
    real space projection operators read in
  non local Contribution for L=            1  read in
    real space projection operators read in
    PAW grid and wavefunctions read in
 
   number of l-projection  operators is LMAX  =            4
   number of lm-projection operators is LMMAX =            8
 
 POTCAR:    PAW_PBE I 08Apr2002                   
   SHA256 =  e40f3f59b681c1fc3e3091736183c4589116986673d2b852a5012aec72758799 I/POTCAR              
   COPYR  = (c) Copyright 08Apr2002 Georg Kresse                                                    
   COPYR  = This file is part of the software VASP. Any use, copying, and all other rights are regul
   COPYR  = If you do not have a valid VASP license, you may not use, copy or distribute this file. 
   VRHFIN =I : s2p5                                                                                 
   LEXCH  = PE                                                                                      
   EATOM  =   315.8678 eV,   23.2156 Ry                                                             
                                                                                                    
   TITEL  = PAW_PBE I 08Apr2002                                                                     
   LULTRA =        F    use ultrasoft PP ?                                                          
   IUNSCR =        1    unscreen: 0-lin 1-nonlin 2-no                                               
   RPACOR =    2.200    partial core radius                                                         
   POMASS =  126.904; ZVAL   =    7.000    mass and valenz                                          
   RCORE  =    2.300    outmost cutoff radius                                                       
   RWIGS  =    2.810; RWIGS  =    1.487    wigner-seitz radius (au A)                               
   ENMAX  =  175.647; ENMIN  =  131.735 eV                                                          
   ICORE  =        3    local potential                                                             
   LCOR   =        T    correct aug charges                                                         
   LPAW   =        T    paw PP                                                                      
   EAUG   =  370.139                                                                                
   DEXC   =    0.000                                                                                
   RMAX   =    2.359    core radius for proj-oper                                                   
   RAUG   =    1.300    factor for augmentation sphere                                              
   RDEP   =    2.392    radius for radial grids                                                     
   RDEPT  =    2.170    core radius for aug-charge                                                  
                                                                                                    
   Atomic configuration                                                                             
   13 entries                                                                                       
     n  l   j            E        occ.                                                              
     1  0  0.50    -32976.3739   2.0000                                                             
     2  0  0.50     -5094.5933   2.0000                                                             
     2  1  1.50     -4572.0131   6.0000                                                             
     3  0  0.50     -1028.2813   2.0000                                                             
     3  1  1.50      -859.0250   6.0000                                                             
     3  2  2.50      -605.7620  10.0000                                                             
     4  0  0.50      -180.5540   2.0000                                                             
     4  1  1.50      -127.5306   6.0000                                                             
     4  2  2.50       -50.2720  10.0000                                                             
     5  0  0.50       -17.4058   2.0000                                                             
     5  1  0.50        -7.0851   5.0000                                                             
     5  2  1.50        -7.0750   0.0000                                                             
     4  3  2.50        -7.0750   0.0000                                                             
   Description                                                                                      
     l       E           TYP  RCUT    TYP  RCUT                                                     
     0    -17.4058016     23  2.300                                                                 
     0    -18.7663842     23  2.300                                                                 
     1     -7.0850686     23  2.300                                                                 
     1     -4.2150896     23  2.300                                                                 
     2     -7.0750295     23  2.300                                                                 
     3     -1.3605826     23  2.300                                                                 
  local pseudopotential read in
  partial core-charges read in
  partial kinetic energy density read in
  atomic valenz-charges read in
  non local Contribution for L=            0  read in
    real space projection operators read in
  non local Contribution for L=            0  read in
    real space projection operators read in
  non local Contribution for L=            1  read in
    real space projection operators read in
  non local Contribution for L=            1  read in
    real space projection operators read in
  non local Contribution for L=            2  read in
    real space projection operators read in
    PAW grid and wavefunctions read in
 
   number of l-projection  operators is LMAX  =            5
   number of lm-projection operators is LMMAX =           13
 
 POTCAR:    PAW_PBE Pb 08Apr2002                  
   SHA256 =  797118a27cf1bcd06b9881c67a26cdde129e3cd1a551dd4a281f9681ce847303 Pb/POTCAR             
   COPYR  = (c) Copyright 08Apr2002 Georg Kresse                                                    
   COPYR  = This file is part of the software VASP. Any use, copying, and all other rights are regul
   COPYR  = If you do not have a valid VASP license, you may not use, copy or distribute this file. 
   VRHFIN =Pb:                                                                                      
   LEXCH  = PE                                                                                      
   EATOM  =    96.9868 eV,    7.1283 Ry                                                             
                                                                                                    
   TITEL  = PAW_PBE Pb 08Apr2002                                                                    
   LULTRA =        F    use ultrasoft PP ?                                                          
   IUNSCR =        1    unscreen: 0-lin 1-nonlin 2-no                                               
   RPACOR =    2.200    partial core radius                                                         
   POMASS =  207.200; ZVAL   =    4.000    mass and valenz                                          
   RCORE  =    3.100    outmost cutoff radius                                                       
   RWIGS  =    3.260; RWIGS  =    1.725    wigner-seitz radius (au A)                               
   ENMAX  =   97.973; ENMIN  =   73.480 eV                                                          
   ICORE  =        3    local potential                                                             
   LCOR   =        T    correct aug charges                                                         
   LPAW   =        T    paw PP                                                                      
   EAUG   =  234.873                                                                                
   DEXC   =    0.000                                                                                
   RMAX   =    3.158    core radius for proj-oper                                                   
   RAUG   =    1.300    factor for augmentation sphere                                              
   RDEP   =    3.202    radius for radial grids                                                     
   RDEPT  =    2.659    core radius for aug-charge                                                  
                                                                                                    
   Atomic configuration                                                                             
   17 entries                                                                                       
     n  l   j            E        occ.                                                              
     1  0  0.50    -88091.8466   2.0000                                                             
     2  0  0.50    -15753.4197   2.0000                                                             
     2  1  1.50    -13508.1797   6.0000                                                             
     3  0  0.50     -3781.7194   2.0000                                                             
     3  1  1.50     -3138.2529   6.0000                                                             
     3  2  2.50     -2483.2977  10.0000                                                             
     4  0  0.50      -856.2895   2.0000                                                             
     4  1  1.50      -645.4943   6.0000                                                             
     4  2  2.50      -401.8768  10.0000                                                             
     4  3  3.50      -132.9059  14.0000                                                             
     5  0  0.50      -144.0950   2.0000                                                             
     5  1  1.50       -85.7879   6.0000                                                             
     5  2  2.50       -21.1769  10.0000                                                             
     6  0  0.50       -12.0372   2.0000                                                             
     6  1  1.50        -3.4971   2.0000                                                             
     6  2  2.50        -1.3606   0.0000                                                             
     5  3  2.50        -2.7212   0.0000                                                             
   Description                                                                                      
     l       E           TYP  RCUT    TYP  RCUT                                                     
     0    -12.0371566     23  3.100                                                                 
     0    -13.3977392     23  3.100                                                                 
     1     -3.4971341     23  3.100                                                                 
     1     -5.4423304     23  3.100                                                                 
     2     -1.3605826     23  3.100                                                                 
     3     -1.3605826     23  3.100                                                                 
  local pseudopotential read in
  partial core-charges read in
  partial kinetic energy density read in
  atomic valenz-charges read in
  non local Contribution for L=            0  read in
    real space projection operators read in
  non local Contribution for L=            0  read in
    real space projection operators read in
  non local Contribution for L=            1  read in
    real space projection operators read in
  non local Contribution for L=            1  read in
    real space projection operators read in
  non local Contribution for L=            2  read in
    real space projection operators read in
    PAW grid and wavefunctions read in
 
   number of l-projection  operators is LMAX  =            5
   number of lm-projection operators is LMMAX =           13
 
 Optimization of the real space projectors (new method)

 maximal supplied QI-value         = 34.20
 optimisation between [QCUT,QGAM] = [ 11.29, 22.57] = [ 35.68,142.71] Ry 
 Optimized for a Real-space Cutoff    1.16 Angstroem

   l    n(q)    QCUT    max X(q) W(low)/X(q) W(high)/X(q)  e(spline) 
   0      8    11.287    19.460    0.40E-03    0.73E-03    0.16E-06
   0      8    11.287    12.209    0.38E-03    0.70E-03    0.15E-06
   1      7    11.287     4.655    0.22E-03    0.25E-04    0.22E-06
 Optimization of the real space projectors (new method)

 maximal supplied QI-value         = 25.13
 optimisation between [QCUT,QGAM] = [ 11.31, 22.87] = [ 35.82,146.48] Ry 
 Optimized for a Real-space Cutoff    1.00 Angstroem

   l    n(q)    QCUT    max X(q) W(low)/X(q) W(high)/X(q)  e(spline) 
   0      7    11.310   115.676    0.43E-03    0.13E-02    0.19E-06
   0      7    11.310    87.132    0.43E-03    0.13E-02    0.18E-06
   1      6    11.310     4.429    0.42E-03    0.74E-03    0.11E-06
   1      6    11.310     2.733    0.34E-03    0.55E-03    0.92E-07
 Optimization of the real space projectors (new method)

 maximal supplied QI-value         = 25.13
 optimisation between [QCUT,QGAM] = [ 11.31, 22.87] = [ 35.82,146.48] Ry 
 Optimized for a Real-space Cutoff    1.27 Angstroem

   l    n(q)    QCUT    max X(q) W(low)/X(q) W(high)/X(q)  e(spline) 
   0      9    11.310    79.467    0.75E-04    0.16E-03    0.36E-06
   0      9    11.310    66.151    0.74E-04    0.16E-03    0.36E-06
   1      8    11.310    17.416    0.35E-03    0.12E-03    0.95E-06
   1      8    11.310    12.382    0.37E-03    0.13E-03    0.98E-06
 Optimization of the real space projectors (new method)

 maximal supplied QI-value         = 16.25
 optimisation between [QCUT,QGAM] = [ 11.38, 22.75] = [ 36.24,144.96] Ry 
 Optimized for a Real-space Cutoff    1.31 Angstroem

   l    n(q)    QCUT    max X(q) W(low)/X(q) W(high)/X(q)  e(spline) 
   0      9    11.376   194.483    0.24E-03    0.23E-03    0.67E-07
   0      9    11.376   190.334    0.23E-03    0.22E-03    0.65E-07
   1      8    11.376   116.687    0.25E-03    0.63E-04    0.16E-06
   1      8    11.376    88.696    0.25E-03    0.61E-04    0.16E-06
   2      8    11.376     4.877    0.17E-03    0.14E-03    0.29E-07
 Optimization of the real space projectors (new method)

 maximal supplied QI-value         = 12.09
 optimisation between [QCUT,QGAM] = [ 11.37, 22.86] = [ 36.19,146.31] Ry 
 Optimized for a Real-space Cutoff    1.66 Angstroem

   l    n(q)    QCUT    max X(q) W(low)/X(q) W(high)/X(q)  e(spline) 
   0     11    11.369   135.111    0.12E-03    0.69E-04    0.19E-05
   0     11    11.369   146.850    0.11E-03    0.65E-04    0.18E-05
   1     11    11.369   148.016    0.17E-03    0.32E-03    0.89E-06
   1     11    11.369   122.989    0.17E-03    0.32E-03    0.91E-06
   2     10    11.369     8.916    0.12E-03    0.45E-04    0.33E-06
  PAW_PBE H 15Jun2001                   :
 energy of atom  1       EATOM=  -12.4884
 kinetic energy error for atom=    0.0020 (will be added to EATOM!!)
  PAW_PBE C 08Apr2002                   :
 energy of atom  2       EATOM= -147.1560
 kinetic energy error for atom=    0.0076 (will be added to EATOM!!)
  PAW_PBE N 08Apr2002                   :
 energy of atom  3       EATOM= -264.5486
 kinetic energy error for atom=    0.0138 (will be added to EATOM!!)
  PAW_PBE I 08Apr2002                   :
 energy of atom  4       EATOM= -315.8678
 kinetic energy error for atom=    0.0009 (will be added to EATOM!!)
  PAW_PBE Pb 08Apr2002                  :
 energy of atom  5       EATOM=  -96.9868
 kinetic energy error for atom=    0.0000 (will be added to EATOM!!)
 
 
 POSCAR:  H  C  N  I Pb
  positions in cartesian coordinates
  No initial velocities read in
 exchange correlation table for  LEXCH =        8
   RHO(1)=    0.500       N(1)  =     2000
   RHO(2)=  100.500       N(2)  =     4000
 


--------------------------------------------------------------------------------------------------------


 ion  position               nearest neighbor table
   1  0.469  0.339  0.565- 187 1.02
   2  0.440  0.826  0.575- 188 1.03
   3  0.923  0.270  0.578- 189 1.03
   4  0.937  0.819  0.573- 190 1.02
   5  0.320  0.079  0.570- 194 1.02
   6  0.349  0.543  0.558- 195 1.03
   7  0.804  0.092  0.567- 196 1.02
   8  0.108  0.250  0.557- 183 1.03
   9  0.075  0.674  0.576- 184 1.03
  10  0.547  0.153  0.561- 185 1.02
  11  0.504  0.644  0.558- 186 1.02
  12  0.374  0.015  0.556- 194 1.04
  13  0.298  0.625  0.553- 195 1.03
  14  0.876  0.034  0.558- 196 1.04
  15  0.058  0.274  0.580- 183 1.03
  16  0.987  0.697  0.586- 184 1.03
  17  0.572  0.244  0.568- 185 1.02
  18  0.449  0.688  0.577- 186 1.03
  19  0.272  0.437  0.572- 191 1.02
  20  0.186  0.059  0.572- 192 1.03
  21  0.683  0.031  0.575- 193 1.02
  22  0.384  0.302  0.556- 187 1.02
  23  0.498  0.870  0.556- 188 1.02
  24  0.880  0.239  0.555- 189 1.03
  25  0.990  0.867  0.554- 190 1.03
  26  0.175  0.447  0.569- 191 1.03
  27  0.149  0.982  0.559- 192 1.03
  28  0.678  0.937  0.568- 193 1.03
  29  0.428  0.185  0.552- 146 1.09
  30  0.545  0.758  0.543- 147 1.09
  31  0.997  0.224  0.538- 144 1.10
  32  0.084  0.777  0.554- 145 1.10
  33  0.183  0.566  0.557- 148 1.10
  34  0.268  0.941  0.548- 149 1.10
  35  0.798  0.931  0.556- 150 1.10
  36  0.448  0.302  0.673- 205 1.03
  37  0.449  0.808  0.673- 206 1.02
  38  0.942  0.280  0.674- 207 1.02
  39  0.922  0.732  0.670- 208 1.01
  40  0.302  0.053  0.673- 209 1.03
  41  0.295  0.557  0.675- 210 1.02
  42  0.804  0.054  0.675- 211 1.03
  43  0.842  0.470  0.663- 212 1.02
  44  0.090  0.172  0.649- 197 1.02
  45  0.114  0.716  0.653- 198 1.02
  46  0.580  0.170  0.650- 199 1.02
  47  0.569  0.668  0.649- 200 1.02
  48  0.185  0.412  0.648- 201 1.02
  49  0.168  0.926  0.648- 202 1.02
  50  0.642  0.474  0.656- 203 1.03
  51  0.675  0.921  0.651- 204 1.02
  52  0.052  0.187  0.674- 197 1.02
  53  0.047  0.670  0.668- 198 1.02
  54  0.550  0.201  0.674- 199 1.02
  55  0.543  0.699  0.674- 200 1.01
  56  0.202  0.447  0.674- 201 1.02
  57  0.197  0.952  0.673- 202 1.02
  58  0.713  0.417  0.665- 203 1.02
  59  0.702  0.951  0.676- 204 1.02
  60  0.419  0.324  0.647- 205 1.02
  61  0.424  0.837  0.648- 206 1.02
  62  0.923  0.318  0.650- 207 1.01
  63  0.912  0.813  0.655- 208 1.01
  64  0.330  0.078  0.647- 209 1.02
  65  0.326  0.585  0.649- 210 1.02
  66  0.830  0.080  0.649- 211 1.02
  67  0.850  0.557  0.651- 212 1.02
  68  0.012  0.254  0.632- 151 1.09
  69  0.034  0.812  0.643- 152 1.10
  70  0.501  0.243  0.630- 153 1.09
  71  0.497  0.751  0.631- 154 1.09
  72  0.248  0.001  0.630- 156 1.09
  73  0.262  0.494  0.631- 155 1.09
  74  0.753  0.999  0.632- 158 1.09
  75  0.723  0.570  0.646- 157 1.10
  76  0.449  0.301  0.769- 221 1.02
  77  0.449  0.801  0.769- 222 1.02
  78  0.949  0.301  0.769- 223 1.02
  79  0.949  0.801  0.769- 224 1.02
  80  0.301  0.051  0.769- 225 1.02
  81  0.301  0.551  0.769- 226 1.02
  82  0.801  0.051  0.769- 227 1.02
  83  0.801  0.551  0.769- 228 1.02
  84  0.079  0.171  0.743- 213 1.02
  85  0.079  0.671  0.743- 214 1.02
  86  0.579  0.171  0.743- 215 1.02
  87  0.579  0.671  0.743- 216 1.02
  88  0.171  0.421  0.743- 217 1.02
  89  0.171  0.921  0.743- 218 1.02
  90  0.671  0.421  0.743- 219 1.02
  91  0.671  0.921  0.743- 220 1.02
  92  0.051  0.199  0.769- 213 1.02
  93  0.051  0.699  0.769- 214 1.02
  94  0.551  0.199  0.769- 215 1.02
  95  0.551  0.699  0.769- 216 1.02
  96  0.199  0.449  0.769- 217 1.02
  97  0.199  0.949  0.769- 218 1.02
  98  0.699  0.449  0.769- 219 1.02
  99  0.699  0.949  0.769- 220 1.02
 100  0.421  0.329  0.743- 221 1.02
 101  0.421  0.829  0.743- 222 1.02
 102  0.921  0.329  0.743- 223 1.02
 103  0.921  0.829  0.743- 224 1.02
 104  0.329  0.079  0.743- 225 1.02
 105  0.329  0.579  0.743- 226 1.02
 106  0.829  0.079  0.743- 227 1.02
 107  0.829  0.579  0.743- 228 1.02
 108  0.000  0.250  0.726- 161 1.09
 109  0.000  0.750  0.726- 162 1.09
 110  0.500  0.250  0.726- 159 1.09
 111  0.500  0.750  0.726- 160 1.09
 112  0.250  0.000  0.726- 163 1.09
 113  0.250  0.500  0.726- 164 1.09
 114  0.750  0.000  0.726- 165 1.09
 115  0.750  0.500  0.726- 166 1.09
 116  0.720  0.443  0.540- 173 1.10
 117  0.739  0.495  0.517- 173 1.09
 118  0.662  0.552  0.557- 174 1.10
 119  0.708  0.638  0.556- 174 1.10
 120  0.851  0.509  0.567- 175 1.10
 121  0.791  0.578  0.577- 175 1.10
 122  0.876  0.561  0.531- 176 1.09
 123  0.807  0.623  0.522- 176 1.09
 124  0.873  0.461  0.518- 177 1.10
 125  0.862  0.424  0.544- 177 1.10
 126  0.872  0.326  0.518- 178 1.10
 127  0.784  0.323  0.530- 178 1.10
 128  0.638  0.551  0.518- 179 1.09
 129  0.693  0.633  0.514- 179 1.10
 130  0.611  0.636  0.530- 179 1.09
 131  0.760  0.466  0.596- 180 1.10
 132  0.754  0.412  0.572- 180 1.10
 133  0.686  0.481  0.578- 180 1.09
 134  0.818  0.691  0.558- 181 1.10
 135  0.897  0.691  0.541- 181 1.10
 136  0.895  0.631  0.564- 181 1.10
 137  0.821  0.382  0.485- 182 1.11
 138  0.787  0.293  0.491- 182 1.11
 139  0.663  0.304  0.518- 168 1.09
 140  0.733  0.463  0.471- 169 1.10
 141  0.536  0.355  0.517- 170 1.09
 142  0.605  0.514  0.469- 171 1.09
 143  0.506  0.462  0.493- 172 1.09
 144  0.994  0.242  0.554-  31 1.10 183 1.31 189 1.31
 145  0.033  0.769  0.564-  32 1.10 184 1.31 190 1.32
 146  0.466  0.228  0.557-  29 1.09 185 1.31 187 1.31
 147  0.504  0.757  0.556-  30 1.09 186 1.31 188 1.31
 148  0.235  0.536  0.560-  33 1.10 195 1.31 191 1.32
 149  0.262  0.993  0.557-  34 1.10 194 1.31 192 1.31
 150  0.777  0.984  0.562-  35 1.10 196 1.31 193 1.31
 151  0.006  0.245  0.649-  68 1.09 207 1.32 197 1.32
 152  0.014  0.767  0.653-  69 1.10 208 1.31 198 1.32
 153  0.500  0.247  0.648-  70 1.09 205 1.31 199 1.32
 154  0.496  0.752  0.648-  71 1.09 206 1.31 200 1.32
 155  0.256  0.498  0.649-  73 1.09 210 1.31 201 1.32
 156  0.249  0.002  0.647-  72 1.09 209 1.31 202 1.31
 157  0.745  0.519  0.653-  75 1.10 203 1.31 212 1.31
 158  0.753  0.000  0.650-  74 1.09 211 1.31 204 1.32
 159  0.500  0.250  0.743- 110 1.09 221 1.31 215 1.31
 160  0.500  0.750  0.743- 111 1.09 222 1.31 216 1.31
 161  1.000  0.250  0.743- 108 1.09 223 1.31 213 1.31
 162  1.000  0.750  0.743- 109 1.09 224 1.31 214 1.31
 163  0.250  0.000  0.743- 112 1.09 225 1.31 218 1.31
 164  0.250  0.500  0.743- 113 1.09 226 1.31 217 1.31
 165  0.750  0.000  0.743- 114 1.09 227 1.31 220 1.31
 166  0.750  0.500  0.743- 115 1.09 228 1.31 219 1.31
 167  0.707  0.380  0.495- 168 1.40 169 1.40 182 1.51
 168  0.650  0.349  0.507- 139 1.09 170 1.39 167 1.40
 169  0.689  0.439  0.481- 140 1.10 171 1.40 167 1.40
 170  0.579  0.378  0.507- 141 1.09 168 1.39 172 1.40
 171  0.617  0.467  0.480- 142 1.09 172 1.40 169 1.40
 172  0.562  0.438  0.493- 143 1.09 171 1.40 170 1.40
 173  0.763  0.477  0.532- 117 1.09 116 1.10 229 1.52 177 1.53
 174  0.698  0.586  0.547- 118 1.10 119 1.10 179 1.51 229 1.52
 175  0.793  0.526  0.568- 120 1.10 121 1.10 180 1.51 229 1.52
 176  0.831  0.597  0.536- 122 1.09 123 1.09 181 1.52 229 1.53
 177  0.833  0.432  0.528- 125 1.10 124 1.10 173 1.53 178 1.53
 178  0.819  0.355  0.519- 127 1.10 126 1.10 182 1.53 177 1.53
 179  0.659  0.602  0.526- 128 1.09 130 1.09 129 1.10 174 1.51
 180  0.745  0.468  0.579- 133 1.09 132 1.10 131 1.10 175 1.51
 181  0.861  0.655  0.551- 136 1.10 134 1.10 135 1.10 176 1.52
 182  0.785  0.351  0.496- 138 1.11 137 1.11 167 1.51 178 1.53
 183  0.057  0.255  0.564-  15 1.03   8 1.03 144 1.31
 184  0.031  0.709  0.575-   9 1.03  16 1.03 145 1.31
 185  0.534  0.208  0.562-  17 1.02  10 1.02 146 1.31
 186  0.484  0.693  0.564-  11 1.02  18 1.03 147 1.31
 187  0.439  0.296  0.559-   1 1.02  22 1.02 146 1.31
 188  0.477  0.821  0.562-  23 1.02   2 1.03 147 1.31
 189  0.929  0.250  0.563-  24 1.03   3 1.03 144 1.31
 190  0.980  0.818  0.562-   4 1.02  25 1.03 145 1.32
 191  0.228  0.467  0.566-  19 1.02  26 1.03 148 1.32
 192  0.195  0.013  0.563-  20 1.03  27 1.03 149 1.31
 193  0.707  0.986  0.568-  21 1.02  28 1.03 150 1.31
 194  0.321  0.032  0.561-   5 1.02  12 1.04 149 1.31
 195  0.298  0.569  0.556-   6 1.03  13 1.03 148 1.31
 196  0.822  0.041  0.563-   7 1.02  14 1.04 150 1.31
 197  0.052  0.198  0.658-  44 1.02  52 1.02 151 1.32
 198  0.061  0.713  0.658-  45 1.02  53 1.02 152 1.32
 199  0.546  0.204  0.658-  46 1.02  54 1.02 153 1.32
 200  0.538  0.703  0.658-  55 1.01  47 1.02 154 1.32
 201  0.213  0.449  0.658-  56 1.02  48 1.02 155 1.32
 202  0.202  0.958  0.657-  57 1.02  49 1.02 156 1.31
 203  0.698  0.467  0.658-  58 1.02  50 1.03 157 1.31
 204  0.708  0.955  0.660-  59 1.02  51 1.02 158 1.32
 205  0.453  0.293  0.657-  60 1.02  36 1.03 153 1.31
 206  0.454  0.802  0.657-  61 1.02  37 1.02 154 1.31
 207  0.954  0.284  0.659-  62 1.01  38 1.02 151 1.32
 208  0.946  0.771  0.660-  63 1.01  39 1.01 152 1.31
 209  0.297  0.046  0.656-  64 1.02  40 1.03 156 1.31
 210  0.294  0.549  0.658-  65 1.02  41 1.02 155 1.31
 211  0.798  0.048  0.659-  66 1.02  42 1.03 158 1.31
 212  0.817  0.515  0.656-  67 1.02  43 1.02 157 1.31
 213  0.046  0.204  0.753-  92 1.02  84 1.02 161 1.31
 214  0.046  0.704  0.753-  93 1.02  85 1.02 162 1.31
 215  0.546  0.204  0.753-  94 1.02  86 1.02 159 1.31
 216  0.546  0.704  0.753-  95 1.02  87 1.02 160 1.31
 217  0.204  0.454  0.753-  96 1.02  88 1.02 164 1.31
 218  0.204  0.954  0.753-  97 1.02  89 1.02 163 1.31
 219  0.704  0.454  0.753-  98 1.02  90 1.02 166 1.31
 220  0.704  0.954  0.753-  99 1.02  91 1.02 165 1.31
 221  0.454  0.296  0.753-  76 1.02 100 1.02 159 1.31
 222  0.454  0.796  0.753-  77 1.02 101 1.02 160 1.31
 223  0.954  0.296  0.753-  78 1.02 102 1.02 161 1.31
 224  0.954  0.796  0.753-  79 1.02 103 1.02 162 1.31
 225  0.296  0.046  0.753-  80 1.02 104 1.02 163 1.31
 226  0.296  0.546  0.753-  81 1.02 105 1.02 164 1.31
 227  0.796  0.046  0.753-  82 1.02 106 1.02 165 1.31
 228  0.796  0.546  0.753-  83 1.02 107 1.02 166 1.31
 229  0.772  0.546  0.546- 173 1.52 175 1.52 174 1.52 176 1.53
 230  0.515  0.013  0.553- 304 3.28
 231  0.487  0.498  0.553- 305 3.18
 232  0.007  0.008  0.550- 302 3.36
 233  0.026  0.501  0.554- 303 3.14
 234  0.250  0.240  0.553- 306 3.21
 235  0.254  0.762  0.553- 307 3.15
 236  0.735  0.212  0.556- 308 3.18
 237  0.699  0.796  0.555- 309 3.25
 238  0.997  0.988  0.654- 302 3.13 310 3.20
 239  0.014  0.497  0.655- 311 3.11 303 3.19
 240  0.497  0.004  0.655- 304 3.11 312 3.12
 241  0.501  0.496  0.654- 305 3.14 313 3.15
 242  0.253  0.247  0.655- 314 3.14 306 3.16
 243  0.255  0.755  0.654- 315 3.16 307 3.21
 244  0.747  0.267  0.655- 316 3.12 308 3.13
 245  0.746  0.741  0.655- 317 3.15 309 3.16
 246  0.129  0.123  0.607- 306 3.21 302 3.22
 247  0.153  0.606  0.608- 307 3.20 303 3.22
 248  0.640  0.114  0.611- 308 3.17 304 3.20
 249  0.632  0.619  0.608- 309 3.20 305 3.21
 250  0.362  0.389  0.606- 306 3.18 305 3.21
 251  0.370  0.885  0.607- 304 3.21 307 3.23
 252  0.888  0.369  0.608- 303 3.25 308 3.33
 253  0.867  0.882  0.606- 309 3.18 302 3.23
 254  0.122  0.364  0.609- 306 3.16 303 3.27
 255  0.123  0.875  0.607- 307 3.21 302 3.26
 256  0.596  0.347  0.601- 305 3.23 308 3.23
 257  0.617  0.867  0.614- 309 3.11 304 3.21
 258  0.388  0.133  0.607- 304 3.18 306 3.21
 259  0.386  0.635  0.609- 305 3.24 307 3.26
 260  0.884  0.137  0.612- 302 3.19 308 3.26
 261  0.898  0.641  0.614- 303 3.23 309 3.54
 262  0.000  0.000  0.755- 310 3.13 318 3.27
 263  0.000  0.500  0.755- 311 3.13 319 3.27
 264  0.500  0.000  0.755- 312 3.13 320 3.27
 265  0.500  0.500  0.755- 313 3.13 321 3.27
 266  0.250  0.250  0.755- 314 3.13 322 3.27
 267  0.250  0.750  0.755- 315 3.13 323 3.27
 268  0.750  0.250  0.755- 316 3.13 324 3.27
 269  0.750  0.750  0.755- 317 3.13 325 3.27
 270  0.136  0.114  0.705- 310 3.20 314 3.20
 271  0.136  0.614  0.705- 311 3.20 315 3.20
 272  0.636  0.114  0.705- 312 3.20 316 3.20
 273  0.636  0.614  0.705- 313 3.20 317 3.20
 274  0.364  0.386  0.705- 313 3.20 314 3.20
 275  0.364  0.886  0.705- 312 3.20 315 3.20
 276  0.864  0.386  0.705- 311 3.20 316 3.20
 277  0.864  0.886  0.705- 310 3.20 317 3.20
 278  0.114  0.364  0.705- 314 3.21 311 3.21
 279  0.114  0.864  0.705- 315 3.21 310 3.21
 280  0.614  0.364  0.705- 316 3.21 313 3.21
 281  0.614  0.864  0.705- 317 3.21 312 3.21
 282  0.386  0.136  0.705- 314 3.21 312 3.21
 283  0.386  0.636  0.705- 315 3.21 313 3.21
 284  0.886  0.136  0.705- 316 3.21 310 3.21
 285  0.886  0.636  0.705- 317 3.21 311 3.21
 286  0.135  0.115  0.801- 318 3.22 322 3.22
 287  0.135  0.615  0.801- 319 3.22 323 3.22
 288  0.635  0.115  0.801- 320 3.22 324 3.22
 289  0.635  0.615  0.801- 321 3.22 325 3.22
 290  0.365  0.385  0.801- 321 3.22 322 3.22
 291  0.365  0.885  0.801- 320 3.22 323 3.22
 292  0.865  0.385  0.801- 319 3.22 324 3.22
 293  0.865  0.885  0.801- 318 3.22 325 3.22
 294  0.115  0.365  0.801- 319 3.23 322 3.23
 295  0.115  0.865  0.801- 318 3.23 323 3.23
 296  0.615  0.365  0.801- 321 3.23 324 3.23
 297  0.615  0.865  0.801- 320 3.23 325 3.23
 298  0.385  0.135  0.801- 320 3.23 322 3.23
 299  0.385  0.635  0.801- 321 3.23 323 3.23
 300  0.885  0.135  0.801- 318 3.23 324 3.23
 301  0.885  0.635  0.801- 319 3.23 325 3.23
 302  0.997  0.004  0.604- 238 3.13 260 3.19 246 3.22 253 3.23 255 3.26 232 3.36
 303  0.008  0.503  0.604- 233 3.14 239 3.19 247 3.22 261 3.23 252 3.25 254 3.27
 304  0.504  0.001  0.605- 240 3.11 258 3.18 248 3.20 257 3.21 251 3.21 230 3.28
 305  0.501  0.499  0.604- 241 3.14 231 3.18 249 3.21 250 3.21 256 3.23 259 3.24
 306  0.254  0.250  0.604- 242 3.16 254 3.16 250 3.18 258 3.21 234 3.21 246 3.21
 307  0.251  0.752  0.603- 235 3.15 247 3.20 243 3.21 255 3.21 251 3.23 259 3.26
 308  0.746  0.252  0.605- 244 3.13 248 3.17 236 3.18 256 3.23 260 3.26 252 3.33
 309  0.744  0.756  0.604- 257 3.11 245 3.16 253 3.18 249 3.20 237 3.25 261 3.54
 310  0.000  0.000  0.705- 262 3.13 238 3.20 270 3.20 277 3.20 279 3.21 284 3.21
 311  0.000  0.500  0.705- 239 3.11 263 3.13 271 3.20 276 3.20 278 3.21 285 3.21
 312  0.500  0.000  0.705- 240 3.12 264 3.13 272 3.20 275 3.20 281 3.21 282 3.21
 313  0.500  0.500  0.705- 265 3.13 241 3.15 273 3.20 274 3.20 280 3.21 283 3.21
 314  0.250  0.250  0.705- 266 3.13 242 3.14 270 3.20 274 3.20 282 3.21 278 3.21
 315  0.250  0.750  0.705- 267 3.13 243 3.16 271 3.20 275 3.20 283 3.21 279 3.21
 316  0.750  0.250  0.705- 244 3.12 268 3.13 272 3.20 276 3.20 284 3.21 280 3.21
 317  0.750  0.750  0.705- 269 3.13 245 3.15 273 3.20 277 3.20 285 3.21 281 3.21
 318  0.000  0.000  0.807- 286 3.22 293 3.22 300 3.23 295 3.23 262 3.27
 319  0.000  0.500  0.807- 287 3.22 292 3.22 301 3.23 294 3.23 263 3.27
 320  0.500  0.000  0.807- 288 3.22 291 3.22 298 3.23 297 3.23 264 3.27
 321  0.500  0.500  0.807- 289 3.22 290 3.22 299 3.23 296 3.23 265 3.27
 322  0.250  0.250  0.807- 290 3.22 286 3.22 294 3.23 298 3.23 266 3.27
 323  0.250  0.750  0.807- 291 3.22 287 3.22 299 3.23 295 3.23 267 3.27
 324  0.750  0.250  0.807- 292 3.22 288 3.22 296 3.23 300 3.23 268 3.27
 325  0.750  0.750  0.807- 293 3.22 289 3.22 297 3.23 301 3.23 269 3.27
 

IMPORTANT INFORMATION: All symmetrisations will be switched off!
NOSYMM: (Re-)initialisation of all symmetry stuff for point group C_1.


----------------------------------------------------------------------------------------

                                     Primitive cell                                     

  volume of cell :   20385.2105

  direct lattice vectors                    reciprocal lattice vectors
    18.060800552  0.000000000  0.000000000     0.055368531  0.000015077 -0.000000000
    -0.004918649 18.062799454  0.000000000     0.000000000  0.055362404  0.000000000
     0.000000000  0.000000000 62.487499237     0.000000000 -0.000000000  0.016003201

  length of vectors
    18.060800552 18.062800123 62.487499237     0.055368533  0.055362404  0.016003201

  position of ions in fractional coordinates (direct lattice)
     0.469016731  0.338932846  0.564797842
     0.440323243  0.825737117  0.574649178
     0.923344926  0.270449025  0.578421111
     0.937199477  0.818608424  0.572901025
     0.319754604  0.078758056  0.570023130
     0.348722612  0.542867036  0.557808590
     0.804468159  0.092318770  0.567011297
     0.107840651  0.250003564  0.556838975
     0.075378114  0.673945728  0.576300997
     0.547227226  0.153361791  0.560975788
     0.503974546  0.644186197  0.557789421
     0.373729382  0.015342372  0.556028693
     0.297680519  0.624612821  0.552512731
     0.876413415  0.033771902  0.557626303
     0.058491560  0.273831695  0.579638152
     0.987473283  0.697131628  0.585684649
     0.572177534  0.244290324  0.567776221
     0.449235284  0.688232469  0.576611667
     0.271776939  0.437186863  0.572473694
     0.185742776  0.058769651  0.571972251
     0.682887321  0.031488230  0.574521589
     0.383592537  0.302132056  0.556199504
     0.497895008  0.869866440  0.556237780
     0.880374455  0.239033468  0.555316514
     0.989828883  0.867102110  0.554297695
     0.175491504  0.447013545  0.569379996
     0.149206865  0.981640051  0.559081428
     0.678336955  0.936601561  0.567550773
     0.428394506  0.184858102  0.551875396
     0.544957774  0.757876652  0.542815296
     0.996840419  0.224032057  0.537560522
     0.083613528  0.777340683  0.553966269
     0.183433527  0.565819253  0.556591244
     0.267891684  0.941327022  0.547641395
     0.798319325  0.930737083  0.556368544
     0.447631735  0.301577363  0.672698208
     0.449175030  0.808426281  0.673364295
     0.942446525  0.280175524  0.674493611
     0.922417374  0.731547335  0.669657866
     0.302379959  0.052555688  0.672535638
     0.294728209  0.557193903  0.674593911
     0.804207636  0.053771939  0.675087174
     0.842248367  0.470246858  0.662983618
     0.089660473  0.171538482  0.648810922
     0.113940619  0.715859025  0.652510210
     0.579831607  0.169598404  0.649710394
     0.569487784  0.668168128  0.648753904
     0.185137409  0.411742885  0.648101186
     0.168083618  0.925609020  0.647612807
     0.641817584  0.474392375  0.656054009
     0.674783785  0.921019771  0.650719568
     0.052444204  0.186726137  0.674083006
     0.047244727  0.670437743  0.667704106
     0.550132428  0.201263708  0.674486468
     0.542845834  0.698512921  0.673981973
     0.201859838  0.446767931  0.673652073
     0.197066536  0.952224847  0.673002346
     0.713391743  0.416837045  0.664601739
     0.702096364  0.951448331  0.675906125
     0.419413188  0.323820375  0.646964911
     0.424475844  0.836790527  0.647617935
     0.922569126  0.317768043  0.649598922
     0.912298902  0.812864773  0.655373331
     0.330237141  0.078285371  0.646907832
     0.325521496  0.585120404  0.649475850
     0.830275503  0.079836198  0.649179893
     0.849952108  0.557182816  0.651086524
     0.012442498  0.253532826  0.631740431
     0.034183348  0.811618694  0.642809905
     0.500744749  0.243167133  0.630330481
     0.496819395  0.751382904  0.630504282
     0.247806240  0.001027536  0.629616715
     0.262144783  0.494493622  0.631162129
     0.752517908  0.998632587  0.632249077
     0.722883333  0.570373319  0.646132469
     0.448745018  0.301283966  0.768889017
     0.448745007  0.801283913  0.768889017
     0.948744965  0.301283966  0.768889017
     0.948745007  0.801283913  0.768889017
     0.301275995  0.051294496  0.768872961
     0.301276011  0.551294499  0.768872961
     0.801275943  0.051294496  0.768872961
     0.801275984  0.551294499  0.768872961
     0.078771004  0.171180501  0.743441971
     0.078771006  0.671180448  0.743441971
     0.578771004  0.171180501  0.743441971
     0.578770992  0.671180448  0.743441971
     0.171199499  0.421174482  0.743421032
     0.171199501  0.921174508  0.743421032
     0.671199512  0.421174482  0.743421032
     0.671199501  0.921174508  0.743421032
     0.051256000  0.198714991  0.768889017
     0.051256002  0.698714925  0.768889017
     0.551256027  0.198714991  0.768889017
     0.551256016  0.698714925  0.768889017
     0.198723491  0.448703970  0.768872046
     0.198723493  0.948703970  0.768872046
     0.698723518  0.448703970  0.768872046
     0.698723507  0.948703970  0.768872046
     0.421231519  0.328817467  0.743441971
     0.421231508  0.828817440  0.743441971
     0.921231466  0.328817467  0.743441971
     0.921231508  0.828817440  0.743441971
     0.328800503  0.078824997  0.743421032
     0.328800492  0.578824964  0.743421032
     0.828800477  0.078824997  0.743421032
     0.828800519  0.578824964  0.743421032
     0.000003500  0.250001478  0.725821992
     0.000003500  0.750001452  0.725821992
     0.500003506  0.250001478  0.725821992
     0.500003495  0.750001452  0.725821992
     0.250000502  0.000000000  0.725803983
     0.250000517  0.500000000  0.725803983
     0.750000502  0.000000000  0.725803983
     0.750000490  0.500000000  0.725803983
     0.720413694  0.443314380  0.539866036
     0.739436075  0.494727410  0.516580251
     0.661739746  0.551819150  0.556929081
     0.708459607  0.637794401  0.555640798
     0.851454279  0.508575139  0.567493144
     0.791374765  0.577566847  0.577481409
     0.876258418  0.560886311  0.531165749
     0.806537376  0.622624249  0.521744553
     0.873071018  0.461350022  0.518133296
     0.861752133  0.423652357  0.543784606
     0.872468911  0.326060740  0.518377791
     0.783962089  0.323348100  0.530108347
     0.637889027  0.551074808  0.518342933
     0.692523050  0.632661567  0.514416793
     0.610775129  0.636326520  0.529667830
     0.759560083  0.466015386  0.595771139
     0.754314128  0.412012945  0.572303921
     0.686453183  0.481065265  0.577982242
     0.818310855  0.691178475  0.557895216
     0.897071110  0.691432749  0.541368839
     0.895112072  0.631231488  0.563784822
     0.820634259  0.381517467  0.484641063
     0.786643940  0.292562366  0.491411063
     0.662569053  0.303544051  0.517747782
     0.732938449  0.462770017  0.470886725
     0.535745228  0.354717617  0.516718768
     0.604825446  0.513629357  0.469337220
     0.506317075  0.461561530  0.492746596
     0.994409071  0.242421233  0.554273886
     0.033380754  0.768732229  0.563515481
     0.465928913  0.228325091  0.557376985
     0.503541659  0.757405432  0.555598553
     0.234938251  0.535671395  0.559874616
     0.261733953  0.993316771  0.556557546
     0.777060965  0.983977146  0.562173660
     0.006200735  0.245040289  0.648846147
     0.013873889  0.767117622  0.653257857
     0.499799772  0.247027173  0.647737771
     0.496389062  0.752216474  0.647978664
     0.256437924  0.497655835  0.648554646
     0.249222829  0.001812363  0.647039511
     0.744672463  0.518841071  0.653216955
     0.752913157  0.000429377  0.649716133
     0.499988984  0.249994984  0.743277021
     0.499989025  0.749994958  0.743277021
     0.999988984  0.249994984  0.743277021
     0.999989025  0.749994958  0.743277021
     0.250000502  0.000001000  0.743255960
     0.250000517  0.500001003  0.743255960
     0.750000502  0.000001000  0.743255960
     0.750000491  0.500001003  0.743255960
     0.707030246  0.379646633  0.494581894
     0.650284458  0.349466199  0.507108874
     0.689369907  0.438656461  0.480887748
     0.578844161  0.378343375  0.506565736
     0.617495705  0.467468062  0.480065807
     0.561961698  0.437839575  0.493058457
     0.762696254  0.476910509  0.531853814
     0.697533153  0.586312365  0.546889231
     0.793422472  0.525939459  0.568277542
     0.830510038  0.596873331  0.535997160
     0.833467842  0.431923170  0.528417519
     0.818837365  0.354993723  0.518921662
     0.658692011  0.601574649  0.525924588
     0.745265216  0.467775714  0.578721647
     0.861256946  0.655369753  0.551013225
     0.785490146  0.351368923  0.496379311
     0.057152494  0.254556838  0.564205316
     0.030724478  0.708842369  0.575431194
     0.533792824  0.208357805  0.561914331
     0.483703036  0.693176604  0.563558703
     0.439274292  0.295707314  0.558765080
     0.476759818  0.821238647  0.561978980
     0.929056128  0.250174391  0.563137598
     0.979870078  0.818037258  0.562099609
     0.228052424  0.466718071  0.566451127
     0.194973282  0.012708881  0.562767407
     0.707110082  0.985652563  0.567932868
     0.321342655  0.032263099  0.560705959
     0.298398681  0.569185159  0.556373244
     0.822337048  0.040781358  0.562773450
     0.051546176  0.197758363  0.658061247
     0.060579588  0.713077801  0.657736719
     0.546246274  0.203891819  0.658219420
     0.537897074  0.703123639  0.657867666
     0.212633880  0.448680263  0.657657541
     0.202137719  0.957738505  0.656805197
     0.697546757  0.466611050  0.658354091
     0.707989711  0.954732622  0.659713188
     0.453333266  0.293489864  0.656531705
     0.454281037  0.802062310  0.657167819
     0.954403424  0.283536230  0.658585033
     0.945504944  0.770672492  0.660102671
     0.296784593  0.046308265  0.656262669
     0.294489788  0.549489451  0.658419290
     0.797649067  0.047958001  0.658821592
     0.816709322  0.514735364  0.655998212
     0.045862501  0.204119496  0.752725994
     0.045862500  0.704119456  0.752725994
     0.545862507  0.204119496  0.752725994
     0.545862496  0.704119456  0.752725994
     0.204119002  0.454101003  0.752704994
     0.204118991  0.954100951  0.752704994
     0.704118976  0.454101003  0.752704994
     0.704118964  0.954100951  0.752704994
     0.454140018  0.295888490  0.752726971
     0.454140007  0.795888516  0.752726971
     0.954140018  0.295888490  0.752726971
     0.954140060  0.795888516  0.752726971
     0.295882492  0.045900498  0.752704994
     0.295882481  0.545900528  0.752704994
     0.795882439  0.045900498  0.752704994
     0.795882481  0.545900528  0.752704994
     0.771555769  0.546046777  0.545504982
     0.515059875  0.013134573  0.553011915
     0.487121620  0.498038090  0.553402191
     0.007039608  0.008112609  0.550258679
     0.026372963  0.501260281  0.554486087
     0.250334452  0.240402381  0.552728900
     0.253556867  0.762445606  0.552658817
     0.735164448  0.211729704  0.555807030
     0.699151708  0.796369292  0.555237275
     0.997095919  0.987600032  0.653800507
     0.014458944  0.496702731  0.655281577
     0.496708998  0.003607668  0.654963093
     0.501446901  0.495503167  0.654425266
     0.253339426  0.246814767  0.654592535
     0.254671739  0.755485074  0.654255920
     0.747206486  0.266907408  0.655213753
     0.746130513  0.741177319  0.654561340
     0.129117527  0.123405707  0.607454811
     0.153381913  0.605640548  0.607769633
     0.639842068  0.113647412  0.611204463
     0.631714399  0.619158502  0.607545711
     0.361846233  0.388576282  0.605901278
     0.370180534  0.885032157  0.606761252
     0.888084675  0.369151876  0.608152827
     0.866932463  0.881953207  0.605929909
     0.122486853  0.363922791  0.608524300
     0.123252167  0.875279735  0.606911124
     0.595706799  0.347264034  0.600954854
     0.616509769  0.867116894  0.614090294
     0.387540533  0.133086219  0.606919975
     0.386244914  0.635241263  0.609405458
     0.884333328  0.137166135  0.611504022
     0.898070073  0.640729531  0.613879314
     0.000000000  0.000000000  0.754927972
     0.000000000  0.500000000  0.754927972
     0.500000000  0.000000000  0.754927972
     0.499999989  0.500000000  0.754927972
     0.250000496  0.250000000  0.754939022
     0.250000511  0.749999974  0.754939022
     0.750000470  0.250000000  0.754939022
     0.750000458  0.749999974  0.754939022
     0.135790500  0.114209997  0.704782994
     0.135790502  0.614209984  0.704782994
     0.635790447  0.114209997  0.704782994
     0.635790488  0.614209984  0.704782994
     0.364209516  0.385789989  0.704782994
     0.364209505  0.885789963  0.704782994
     0.864209542  0.385789989  0.704782994
     0.864209531  0.885789963  0.704782994
     0.114217990  0.364218986  0.704780979
     0.114217992  0.864218986  0.704780979
     0.614218004  0.364218986  0.704780979
     0.614217992  0.864218986  0.704780979
     0.385782012  0.135781489  0.704782017
     0.385782001  0.635781489  0.704782017
     0.885781985  0.135781489  0.704782017
     0.885782027  0.635781489  0.704782017
     0.134667000  0.115332001  0.801256025
     0.134666989  0.615331988  0.801256025
     0.634666987  0.115332001  0.801256025
     0.634666976  0.615331988  0.801256025
     0.365333002  0.384667985  0.801256025
     0.365332990  0.884667959  0.801256025
     0.865332949  0.384667985  0.801256025
     0.865332938  0.884667959  0.801256025
     0.115328503  0.365337004  0.801264999
     0.115328505  0.865336978  0.801264999
     0.615328503  0.365337004  0.801264999
     0.615328492  0.865336978  0.801264999
     0.384671513  0.134662996  0.801264999
     0.384671501  0.634662970  0.801264999
     0.884671486  0.134662996  0.801264999
     0.884671528  0.634662970  0.801264999
     0.997357152  0.004134889  0.603874139
     0.007689945  0.503300279  0.604384190
     0.504458471  0.001370868  0.605223896
     0.501329989  0.498780003  0.604108927
     0.253992863  0.249697152  0.604079319
     0.250859025  0.752448678  0.602921800
     0.746329013  0.251647473  0.605261624
     0.743567987  0.756411568  0.604233647
     0.000000500  0.000000500  0.704828963
     0.000000500  0.500000475  0.704828963
     0.500000475  0.000000500  0.704828963
     0.500000464  0.500000475  0.704828963
     0.249999994  0.249999472  0.704824995
     0.250000010  0.749999498  0.704824995
     0.749999994  0.249999472  0.704824995
     0.749999983  0.749999498  0.704824995
     0.000000000  0.000000000  0.807317968
     0.000000000  0.500000000  0.807317968
     0.500000000  0.000000000  0.807317968
     0.499999989  0.500000000  0.807317968
     0.249999994  0.250000000  0.807317968
     0.250000010  0.749999974  0.807317968
     0.749999994  0.250000000  0.807317968
     0.749999983  0.749999974  0.807317968

  ion indices of the primitive-cell ions
   primitive index   ion index
                 1           1
                 2           2
                 3           3
                 4           4
                 5           5
                 6           6
                 7           7
                 8           8
                 9           9
                10          10
                11          11
                12          12
                13          13
                14          14
                15          15
                16          16
                17          17
                18          18
                19          19
                20          20
                21          21
                22          22
                23          23
                24          24
                25          25
                26          26
                27          27
                28          28
                29          29
                30          30
                31          31
                32          32
                33          33
                34          34
                35          35
                36          36
                37          37
                38          38
                39          39
                40          40
                41          41
                42          42
                43          43
                44          44
                45          45
                46          46
                47          47
                48          48
                49          49
                50          50
                51          51
                52          52
                53          53
                54          54
                55          55
                56          56
                57          57
                58          58
                59          59
                60          60
                61          61
                62          62
                63          63
                64          64
                65          65
                66          66
                67          67
                68          68
                69          69
                70          70
                71          71
                72          72
                73          73
                74          74
                75          75
                76          76
                77          77
                78          78
                79          79
                80          80
                81          81
                82          82
                83          83
                84          84
                85          85
                86          86
                87          87
                88          88
                89          89
                90          90
                91          91
                92          92
                93          93
                94          94
                95          95
                96          96
                97          97
                98          98
                99          99
               100         100
               101         101
               102         102
               103         103
               104         104
               105         105
               106         106
               107         107
               108         108
               109         109
               110         110
               111         111
               112         112
               113         113
               114         114
               115         115
               116         116
               117         117
               118         118
               119         119
               120         120
               121         121
               122         122
               123         123
               124         124
               125         125
               126         126
               127         127
               128         128
               129         129
               130         130
               131         131
               132         132
               133         133
               134         134
               135         135
               136         136
               137         137
               138         138
               139         139
               140         140
               141         141
               142         142
               143         143
               144         144
               145         145
               146         146
               147         147
               148         148
               149         149
               150         150
               151         151
               152         152
               153         153
               154         154
               155         155
               156         156
               157         157
               158         158
               159         159
               160         160
               161         161
               162         162
               163         163
               164         164
               165         165
               166         166
               167         167
               168         168
               169         169
               170         170
               171         171
               172         172
               173         173
               174         174
               175         175
               176         176
               177         177
               178         178
               179         179
               180         180
               181         181
               182         182
               183         183
               184         184
               185         185
               186         186
               187         187
               188         188
               189         189
               190         190
               191         191
               192         192
               193         193
               194         194
               195         195
               196         196
               197         197
               198         198
               199         199
               200         200
               201         201
               202         202
               203         203
               204         204
               205         205
               206         206
               207         207
               208         208
               209         209
               210         210
               211         211
               212         212
               213         213
               214         214
               215         215
               216         216
               217         217
               218         218
               219         219
               220         220
               221         221
               222         222
               223         223
               224         224
               225         225
               226         226
               227         227
               228         228
               229         229
               230         230
               231         231
               232         232
               233         233
               234         234
               235         235
               236         236
               237         237
               238         238
               239         239
               240         240
               241         241
               242         242
               243         243
               244         244
               245         245
               246         246
               247         247
               248         248
               249         249
               250         250
               251         251
               252         252
               253         253
               254         254
               255         255
               256         256
               257         257
               258         258
               259         259
               260         260
               261         261
               262         262
               263         263
               264         264
               265         265
               266         266
               267         267
               268         268
               269         269
               270         270
               271         271
               272         272
               273         273
               274         274
               275         275
               276         276
               277         277
               278         278
               279         279
               280         280
               281         281
               282         282
               283         283
               284         284
               285         285
               286         286
               287         287
               288         288
               289         289
               290         290
               291         291
               292         292
               293         293
               294         294
               295         295
               296         296
               297         297
               298         298
               299         299
               300         300
               301         301
               302         302
               303         303
               304         304
               305         305
               306         306
               307         307
               308         308
               309         309
               310         310
               311         311
               312         312
               313         313
               314         314
               315         315
               316         316
               317         317
               318         318
               319         319
               320         320
               321         321
               322         322
               323         323
               324         324
               325         325

----------------------------------------------------------------------------------------

 
 
 KPOINTS: Automatic Mesh                          

Automatic generation of k-mesh.
 Grid dimensions read from file:
 generate k-points for:    3    3    1

 Generating k-lattice:

  Cartesian coordinates                     Fractional coordinates (reciprocal lattice)
     0.018456177  0.000005026 -0.000000000     0.333333333  0.000000000  0.000000000
     0.000000000  0.018454135  0.000000000     0.000000000  0.333333333  0.000000000
     0.000000000 -0.000000000  0.016003201     0.000000000  0.000000000  1.000000000

  Length of vectors
     0.018456178  0.018454135  0.016003201

  Shift w.r.t. Gamma in fractional coordinates (k-lattice)
     0.000000000  0.000000000  0.000000000

 
 Subroutine IBZKPT returns following result:
 ===========================================
 
 Found      5 irreducible k-points:
 
 Following reciprocal coordinates:
            Coordinates               Weight
  0.000000  0.000000  0.000000      1.000000
  0.333333  0.000000  0.000000      2.000000
  0.000000  0.333333  0.000000      2.000000
  0.333333  0.333333  0.000000      2.000000
 -0.333333  0.333333  0.000000      2.000000
 
 Following cartesian coordinates:
            Coordinates               Weight
  0.000000  0.000000  0.000000      1.000000
  0.018456  0.000005  0.000000      2.000000
  0.000000  0.018454  0.000000      2.000000
  0.018456  0.018459  0.000000      2.000000
 -0.018456  0.018449  0.000000      2.000000
 


--------------------------------------------------------------------------------------------------------




 Dimension of arrays:
   k-points           NKPTS =      5   k-points in BZ     NKDIM =      5   number of bands    NBANDS=    732
   number of dos      NEDOS =    301   number of ions     NIONS =    325
   non local maximal  LDIM  =      5   non local SUM 2l+1 LMDIM =     13
   total plane-waves  NPLWV = ******
   max r-space proj   IRMAX =   3336   max aug-charges    IRDMAX=  19845
   dimension x,y,z NGX =   100 NGY =  100 NGZ =  350
   dimension x,y,z NGXF=   200 NGYF=  200 NGZF=  700
   support grid    NGXF=   200 NGYF=  200 NGZF=  700
   ions per type =             143  39  47  72  24
   NGX,Y,Z   is equivalent  to a cutoff of   9.20,  9.20,  9.31 a.u.
   NGXF,Y,Z  is equivalent  to a cutoff of  18.41, 18.41, 18.62 a.u.

 SYSTEM =  PSC                                     
 POSCAR =   H  C  N  I Pb                          

 Startparameter for this run:
   NWRITE =      2    write-flag & timer
   PREC   = normal    normal or accurate (medium, high low for compatibility)
   ISTART =      0    job   : 0-new  1-cont  2-samecut
   ICHARG =      1    charge: 1-file 2-atom 10-const
   ISPIN  =      1    spin polarized calculation?
   LNONCOLLINEAR =      F non collinear calculations
   LSORBIT =      F    spin-orbit coupling
   INIWAV =      1    electr: 0-lowe 1-rand  2-diag
   LASPH  =      F    aspherical Exc in radial PAW
 Electronic Relaxation 1
   ENCUT  =  500.0 eV  36.75 Ry    6.06 a.u.  32.93 32.93113.93*2*pi/ulx,y,z
   ENINI  =  500.0     initial cutoff
   ENAUG  =  644.9 eV  augmentation charge cutoff
   NELM   =    600;   NELMIN=  2; NELMDL=  0     # of ELM steps 
   EDIFF  = 0.1E-03   stopping-criterion for ELM
   LREAL  =      T    real-space projection
   NLSPLINE    = F    spline interpolate recip. space projectors
   LCOMPAT=      F    compatible to vasp.4.4
   GGA_COMPAT  = F    GGA compatible to vasp.4.4-vasp.4.6
   LMAXPAW     = -100 max onsite density
   LMAXMIX     =    2 max onsite mixed and CHGCAR
   VOSKOWN=      0    Vosko Wilk Nusair interpolation
   ROPT   =   -0.00050  -0.00050  -0.00050  -0.00050
   ROPT   =   -0.00050
 Ionic relaxation
   EDIFFG = 0.1E-02   stopping-criterion for IOM
   NSW    =      0    number of steps for IOM
   NBLOCK =      1;   KBLOCK =      1    inner block; outer block 
   IBRION =     -1    ionic relax: 0-MD 1-quasi-New 2-CG
   NFREE  =      0    steps in history (QN), initial steepest desc. (CG)
   ISIF   =      2    stress and relaxation
   IWAVPR =     10    prediction:  0-non 1-charg 2-wave 3-comb
   ISYM   =      0    0-nonsym 1-usesym 2-fastsym
   LCORR  =      T    Harris-Foulkes like correction to forces

   POTIM  = 0.5000    time-step for ionic-motion
   TEIN   =    0.0    initial temperature
   TEBEG  =    0.0;   TEEND  =   0.0 temperature during run
   SMASS  =  -3.00    Nose mass-parameter (am)
   estimated Nose-frequenzy (Omega)   =  0.10E-29 period in steps = 0.13E+47 mass=  -0.745E-26a.u.
   SCALEE = 1.0000    scale energy and forces
   NPACO  =    256;   APACO  = 16.0  distance and # of slots for P.C.
   PSTRESS=    0.0 pullay stress

  Mass of Ions in am
   POMASS =   1.00 12.01 14.00126.90207.20
  Ionic Valenz
   ZVAL   =   1.00  4.00  5.00  7.00  4.00
  Atomic Wigner-Seitz radii
   RWIGS  =  -1.00 -1.00 -1.00 -1.00 -1.00
  virtual crystal weights 
   VCA    =   1.00  1.00  1.00  1.00  1.00
   NELECT =    1134.0000    total number of electrons
   NUPDOWN=      -1.0000    fix difference up-down

 DOS related values:
   EMIN   =  10.00;   EMAX   =-10.00  energy-range for DOS
   EFERMI =   0.00
   ISMEAR =     0;   SIGMA  =   0.05  broadening in eV -4-tet -1-fermi 0-gaus

 Electronic relaxation 2 (details)
   IALGO  =     38    algorithm
   LDIAG  =      T    sub-space diagonalisation (order eigenvalues)
   LSUBROT=      F    optimize rotation matrix (better conditioning)
   TURBO    =      0    0=normal 1=particle mesh
   IRESTART =      0    0=no restart 2=restart with 2 vectors
   NREBOOT  =      0    no. of reboots
   NMIN     =      0    reboot dimension
   EREF     =   0.00    reference energy to select bands
   IMIX   =      4    mixing-type and parameters
     AMIX     =   0.40;   BMIX     =  0.01
     AMIX_MAG =   1.60;   BMIX_MAG =  0.01
     AMIN     =   0.01
     WC   =   100.;   INIMIX=   1;  MIXPRE=   1;  MAXMIX= -45

 Intra band minimization:
   WEIMIN = 0.0000     energy-eigenvalue tresh-hold
   EBREAK =  0.34E-07  absolut break condition
   DEPER  =   0.30     relativ break condition  

   TIME   =   0.40     timestep for ELM

  volume/ion in A,a.u.               =      62.72       423.28
  Fermi-wavevector in a.u.,A,eV,Ry     =   0.624944  1.180972  5.313816  0.390554
  Thomas-Fermi vector in A             =   1.685677
 
 Write flags
   LWAVE        =      F    write WAVECAR
   LDOWNSAMPLE  =      F    k-point downsampling of WAVECAR
   LCHARG       =      T    write CHGCAR
   LVTOT        =      T    write LOCPOT, total local potential
   LVHAR        =      F    write LOCPOT, Hartree potential only
   LELF         =      F    write electronic localiz. function (ELF)
   LORBIT       =      0    0 simple, 1 ext, 2 COOP (PROOUT), +10 PAW based schemes


 Dipole corrections
   LMONO  =      F    monopole corrections only (constant potential shift)
   LDIPOL =      T    correct potential (dipole corrections)
   IDIPOL =      3    1-x, 2-y, 3-z, 4-all directions 
   EPSILON=  1.0000000 bulk dielectric constant

 Exchange correlation treatment:
   GGA     =    --    GGA type
   LEXCH   =     8    internal setting for exchange type
   VOSKOWN=      0    Vosko Wilk Nusair interpolation
   LHFCALC =     F    Hartree Fock is set to
   LHFONE  =     F    Hartree Fock one center treatment
   AEXX    =    0.0000 exact exchange contribution

 Linear response parameters
   LEPSILON=     F    determine dielectric tensor
   LRPA    =     F    only Hartree local field effects (RPA)
   LNABLA  =     F    use nabla operator in PAW spheres
   LVEL    =     F    velocity operator in full k-point grid
   LINTERFAST=   F  fast interpolation
   KINTER  =     0    interpolate to denser k-point grid
   CSHIFT  =0.1000    complex shift for real part using Kramers Kronig
   OMEGAMAX=  -1.0    maximum frequency
   DEG_THRESHOLD= 0.2000000E-02 threshold for treating states as degnerate
   RTIME   =   -0.100 relaxation time in fs
  (WPLASMAI=    0.000 imaginary part of plasma frequency in eV, 0.658/RTIME)
   DFIELD  = 0.0000000 0.0000000 0.0000000 field for delta impulse in time
 
 Orbital magnetization related:
   ORBITALMAG=     F  switch on orbital magnetization
   LCHIMAG   =     F  perturbation theory with respect to B field
   DQ        =  0.001000  dq finite difference perturbation B field
   LLRAUG    =     F  two centre corrections for induced B field



--------------------------------------------------------------------------------------------------------


 Static calculation
 charge density and potential will be updated during run
 non-spin polarized calculation
 Variant of blocked Davidson
 Davidson routine will perform the subspace rotation
 perform sub-space diagonalisation
    after iterative eigenvector-optimisation
 modified Broyden-mixing scheme, WC =      100.0
 initial mixing is a Kerker type mixing with AMIX =  0.4000 and BMIX =      0.0100
 Hartree-type preconditioning will be used
 using additional bands           165
 real space projection scheme for non local part
[...]
     13.54561      0.00000     45.35368         0.003709     -0.009292      0.014248
     13.54315      9.03140     45.35368        -0.006903      0.002210     -0.011155
     13.00907      8.00750     33.73488        -0.042148      0.012572     -0.028555
     13.35237      8.93616     32.27981         0.015768      0.081831     -0.039777
     11.94884      9.96740     34.80111        -0.003944      0.022105     -0.012344
     12.79221     11.52035     34.72060         0.022303      0.025000     -0.028703
     15.37544      9.18629     35.46123         0.105861     -0.050723      0.069743
     14.29002     10.43247     36.08537        -0.015780     -0.008355     -0.021562
     15.82317     10.13118     33.19122         0.007289     -0.039562     -0.058180
     14.56365     11.24634     32.60251        -0.117446     -0.089731     -0.074445
     15.76609      8.33327     32.37685        -0.032931      0.071262     -0.037460
     15.56185      7.65235     33.97974         0.079355      0.010145      0.061813
     15.75588      5.88957     32.39213         0.024517     -0.023114      0.050535
     14.15739      5.84057     33.12514         0.014537      0.013826     -0.091061
     11.51808      9.95395     32.38995        -0.061677     -0.001121     -0.046082
     12.50441     11.42764     32.14462         0.019987      0.017422      0.012977
     11.02796     11.49384     33.09762        -0.088925      0.055292     -0.006716
     13.71597      8.41754     37.22825         0.031099      0.009652     -0.040017
     13.62149      7.44211     35.76184        -0.016405     -0.008945     -0.028621
     12.39553      8.68939     36.11666        -0.168237     -0.039623     -0.019114
     14.77595     12.48462     34.86148        -0.011265     -0.009382     -0.015657
     16.19842     12.48921     33.82878         0.032092     -0.002483     -0.009165
     16.16334     11.40181     35.22950        -0.026668      0.003226     -0.042304
     14.81944      6.89127     30.28401        -0.103332     -0.125926      0.274057
     14.20598      5.28450     30.70705        -0.006213      0.112166      0.005002
     11.96503      5.48286     32.35276         0.040458     -0.182663      0.150342
     13.23518      8.35892     29.42453        -0.059328     -0.026426      0.028257
      9.67424      6.40719     32.28846         0.016479      0.007526      0.012301
     10.92111      9.27758     29.32771         0.043712     -0.068263      0.051213
      9.14222      8.33709     30.79050         0.055792     -0.083381      0.030030
     17.95863      4.37881     34.63519         0.069486     -0.164856     -0.276635
      0.59910     13.88546     35.21267         0.095075     -0.209711      0.109344
      8.41393      4.12419     34.82909        -0.029523     -0.143020      0.056694
      9.09064     13.68086     34.71796        -0.023470     -0.028264     -0.083884
      4.24054      9.67572     34.98516         0.031166     -0.122598     -0.057191
      4.72224     17.94208     34.77789        -0.080529     -0.028115      0.038400
     14.02950     17.77338     35.12883         0.076626      0.039626      0.020608
      0.11078      4.42611     40.54477         0.042066     -0.133134      0.456143
      0.24680     13.85629     40.82045         0.537876     -0.255229     -0.102551
      9.02557      4.46200     40.47551         0.405318     -0.392637      0.232080
      8.96148     13.58714     40.49057         0.053039     -0.055317      0.040204
      4.62903      8.98906     40.52656        -0.098396     -0.087282      0.052106
      4.50115      0.03274     40.43188        -0.205840     -0.158972      0.129451
     13.44683      9.37172     40.81789         0.026540      0.267501     -0.026108
     13.59821      0.00776     40.59914        -0.245672     -0.217836      0.104679
      9.02897      4.51561     46.44552         0.008381      0.007076      0.024637
      9.02651     13.54701     46.44552         0.021653     -0.005650      0.038855
     18.05937      4.51561     46.44552         0.017849      0.003266      0.035769
     18.05691     13.54701     46.44552         0.015524      0.003822      0.001890
      4.51521      0.00002     46.44421        -0.003972     -0.006623      0.048951
      4.51275      9.03142     46.44421        -0.006829     -0.007126      0.042180
     13.54561      0.00002     46.44421        -0.014609     -0.017071      0.035733
     13.54315      9.03142     46.44421        -0.011355     -0.005710      0.012094
     12.76766      6.85748     30.90519        -0.002078      0.177747     -0.123752
     11.74294      6.31234     31.68797        -0.020108     -0.020443      0.033426
     12.44841      7.92336     30.04947         0.039506      0.008057     -0.010171
     10.45253      6.83394     31.65403        -0.183388      0.105382     -0.085159
     11.15017      8.44378     29.99811        -0.017421      0.018589     -0.053681
     10.14732      7.90861     30.80999         0.011350      0.027483     -0.020444
     13.77256      8.61434     33.23421         0.196399     -0.022782     -0.052578
     12.59512     10.59044     34.17374         0.002915     -0.050804      0.026271
     14.32726      9.49994     35.51024         0.057265     -0.055801      0.070447
     14.99674     10.78120     33.49312         0.160843     -0.042819      0.129697
     15.05097      7.80174     33.01949        -0.098837     -0.012690      0.059819
     14.78711      6.41218     32.42612         0.055582      0.086749      0.023384
     11.89355     10.86612     32.86371         0.127370      0.028785     -0.102789
     13.45779      8.44934     36.16287         0.119631      0.011002      0.007787
     15.55177     11.83781     34.43144        -0.084392      0.039158     -0.035344
     14.18485      6.34671     31.01750         0.033391     -0.016435     -0.377582
      1.03097      4.59801     35.25578        -0.017404      0.125294      0.036913
      0.55142     12.80368     35.95726         0.077962      0.134407     -0.189437
      9.63970      3.76353     35.11262         0.040192     -0.150311     -0.114565
      8.73265     12.52071     35.21537        -0.000836     -0.050391     -0.000525
      7.93219      5.34130     34.91583        -0.086097     -0.040931     -0.074956
      8.60662     14.83387     35.11666        -0.052226     -0.068000      0.162680
     16.77827      4.51885     35.18906        -0.143549      0.108456      0.010020
     17.69321     14.77604     35.12420         0.120314     -0.104421     -0.073808
      4.11651      8.43023     35.39611        -0.333851     -0.020730      0.005529
      3.52131      0.22956     35.16593         0.055860     -0.201301     -0.123385
     12.76613     17.80364     35.48870         0.015367     -0.140742      0.032509
      5.80355      0.58276     35.03711         0.373656     -0.098108     -0.194603
      5.38652     10.28108     34.76637        -0.075412      0.062516     -0.086492
     14.85186      0.73663     35.16631         0.207478     -0.384374     -0.261468
      0.92999      3.57207     41.12060        -0.278417      0.255294     -0.103672
      1.09061     12.88018     41.10032        -0.564893      0.288757     -0.021427
      9.86464      3.68286     41.13049        -0.260226      0.245319     -0.144156
      9.71139     12.70038     41.10851         0.080187     -0.059077     -0.480564
      3.83813      8.10442     41.09538         0.119465      0.127387     -0.264027
      3.64606     17.29944     41.04211         0.012591     -0.012511     -0.066603
     12.59596      8.42830     41.13890        -0.061982      0.004218     -0.065668
     12.78216     17.24514     41.22383         0.035089      0.037724     -0.185198
      8.18612      5.30125     41.02502        -0.173662      0.177302      0.222449
      8.20073     14.48749     41.06477         0.028505     -0.047201      0.043314
     17.23590      5.12146     41.15333         0.201833     -0.157685      0.018925
     17.07279     13.92050     41.24817        -0.015313      0.227888     -0.127380
      5.35994      0.83646     41.00821         0.092911      0.115708      0.303602
      5.31602      9.92532     41.14297        -0.057513     -0.093060     -0.073461
     14.40594      0.86626     41.16811         0.113191      0.109575      0.270018
     14.74789      9.29756     40.99169         0.095278     -0.064128      0.028440
      0.82731      3.68697     47.03596         0.016107     -0.025073     -0.089722
      0.82485     12.71837     47.03596         0.024214     -0.024904     -0.067280
      9.85771      3.68697     47.03596         0.023933     -0.028652     -0.080570
      9.85525     12.71837     47.03596         0.011997     -0.015295     -0.077434
      3.68432      8.20234     47.03465        -0.005370     -0.008408     -0.064466
      3.68186     17.23373     47.03465        -0.008686     -0.004213     -0.063017
     12.71472      8.20234     47.03465        -0.005623     -0.011248     -0.054399
     12.71226     17.23373     47.03465        -0.006732     -0.000599     -0.073798
      8.20068      5.34457     47.03603        -0.021642      0.016061     -0.081133
      8.19822     14.37597     47.03603        -0.025336      0.023934     -0.082581
     17.23108      5.34457     47.03603        -0.028507      0.019440     -0.100692
     17.22862     14.37597     47.03603        -0.020705      0.024222     -0.066573
      5.34365      0.82909     47.03465         0.012063      0.013693     -0.065713
      5.34119      9.86049     47.03465         0.017254      0.015051     -0.066635
     14.37405      0.82909     47.03465         0.023197      0.025825     -0.072170
     14.37159      9.86049     47.03465         0.023523      0.020750     -0.066252
     13.93223      9.86313     34.08724        -0.102916      0.107135     -0.007182
      9.30233      0.23725     34.55633        -0.000333     -0.026441     -0.016276
      8.79536      8.99596     34.58072         0.026847     -0.021788     -0.038341
      0.12710      0.14654     34.38429         0.027546      0.000778      0.004305
      0.47385      9.05416     34.64845        -0.043753      0.001227      0.018566
      4.52006      4.34234     34.53865         0.026328     -0.022208      0.023762
      4.57569     13.77190     34.53427        -0.024594      0.019829     -0.047873
     13.27662      3.82443     34.73099        -0.035205      0.023783      0.017667
     12.62332     14.38466     34.69539         0.049894     -0.038630     -0.011273
     18.00349     17.83882     40.85436         0.008403     -0.014369      0.003010
      0.25870      8.97184     40.94691        -0.013415      0.011286      0.038350
      8.97094      0.06516     40.92701        -0.009599      0.007018     -0.003687
      9.05410      8.95017     40.89340        -0.013251     -0.009089      0.012718
      4.57430      4.45817     40.90385         0.016009     -0.010797     -0.005826
      4.59586     13.64618     40.88282        -0.005710     -0.014160      0.007203
     13.49383      4.82109     40.94267         0.000558      0.020030     -0.017171
     13.47207     13.38774     40.90190         0.016558     -0.006204      0.020362
      2.33136      2.22905     37.95833         0.018071     -0.045349     -0.014128
      2.76722     10.93956     37.97800        -0.034086      0.035332      0.008757
     11.55550      2.05279     38.19264        -0.006902      0.007844      0.005751
     11.40622     11.18374     37.96401        -0.065712     -0.031724     -0.021099
      6.53332      7.01878     37.86126         0.008489      0.015440      0.012789
      6.68140     15.98616     37.91499         0.006523      0.005368      0.022337
     16.03770      6.66792     38.00195         0.012348     -0.059762      0.000628
     15.65316     15.93054     37.86304         0.029881      0.022175      0.010070
      2.21042      6.57346     38.02516        -0.016251      0.042439      0.016108
      2.22173     15.81000     37.92436        -0.002894     -0.000738     -0.028768
     10.75723      6.27256     37.55217         0.017650      0.002178      0.017679
     11.13039     15.66256     38.37297        -0.009325      0.000612     -0.012378
      6.99864      2.40391     37.92491        -0.022958      0.034874     -0.002646
      6.97277     11.47424     38.08022        -0.037463     -0.007041      0.032451
     15.97109      2.47760     38.21136        -0.037605     -0.028528      0.014672
     16.21671     11.57337     38.35978        -0.081549     -0.010694     -0.171617
      0.00000      0.00000     47.17356        -0.001490      0.006676      0.342651
     -0.00246      9.03140     47.17356        -0.002865     -0.003225      0.470732
      9.03040      0.00000     47.17356         0.001367      0.001343      0.414922
      9.02794      9.03140     47.17356        -0.003423     -0.000427      0.399690
      4.51398      4.51570     47.17425        -0.000813     -0.004462      0.419389
      4.51152     13.54710     47.17425         0.003242      0.000695      0.415078
     13.54438      4.51570     47.17425         0.007053     -0.000873      0.410508
     13.54192     13.54710     47.17425        -0.001308     -0.001983      0.411559
      2.45192      2.06295     44.04013        -0.000571     -0.034970     -0.025889
      2.44946     11.09435     44.04013         0.044797     -0.027094     -0.026706
     11.48232      2.06295     44.04013         0.032511      0.010396     -0.054539
     11.47986     11.09435     44.04013        -0.079685      0.030343     -0.024766
      6.57602      6.96845     44.04013         0.013626     -0.027008     -0.071517
      6.57356     15.99985     44.04013         0.021816      0.013050     -0.033122
     15.60642      6.96845     44.04013         0.011286     -0.024804     -0.091259
     15.60396     15.99985     44.04013        -0.040581      0.043835     -0.034718
      2.06108      6.57881     44.04000         0.045274     -0.022915     -0.021768
      2.05862     15.61021     44.04000         0.046311      0.071052     -0.032747
     11.09148      6.57881     44.04000        -0.030318     -0.042867     -0.007086
     11.08902     15.61021     44.04000        -0.025745      0.003626     -0.035754
      6.96686      2.45259     44.04007        -0.014788     -0.017716     -0.050231
      6.96440     11.48399     44.04007         0.006639      0.008936     -0.043385
     15.99726      2.45259     44.04007         0.029857      0.035502     -0.061479
     15.99481     11.48399     44.04007         0.036159      0.019579     -0.103594
      2.43163      2.08322     50.06849         0.003977     -0.015700      0.021600
      2.42917     11.11462     50.06849         0.014782     -0.007273      0.024899
     11.46203      2.08322     50.06849         0.012369     -0.009529      0.022728
     11.45957     11.11462     50.06849         0.009083     -0.011486      0.024706
      6.59631      6.94818     50.06849        -0.011414      0.008846      0.023910
      6.59385     15.97958     50.06849        -0.008122      0.013051      0.023247
     15.62671      6.94818     50.06849        -0.015396      0.002202      0.021869
     15.62425     15.97958     50.06849        -0.004696      0.018645      0.024895
      2.08113      6.59901     50.06905        -0.005754     -0.016553      0.023385
      2.07867     15.63041     50.06905        -0.016718     -0.002014      0.023661
     11.11153      6.59901     50.06905        -0.008409     -0.013208      0.024652
     11.10907     15.63041     50.06905        -0.011120     -0.008179      0.023483
      6.94681      2.43239     50.06905         0.010878      0.008693      0.023401
      6.94435     11.46379     50.06905         0.010848      0.009483      0.024504
     15.97721      2.43239     50.06905         0.014816      0.005983      0.021787
     15.97475     11.46379     50.06905         0.005915      0.013546      0.025078
     18.01305      0.07469     37.73458         0.010526     -0.012703      0.022051
      0.13641      9.09101     37.76646        -0.054182      0.033275     -0.008165
      9.11092      0.02476     37.81893        -0.004048     -0.010063     -0.009981
      9.05197      9.00936     37.74926         0.038223      0.014179     -0.083224
      4.58609      4.51023     37.74741        -0.016566     -0.024684      0.000420
      4.52701     13.59133     37.67508        -0.023805      0.002329      0.049141
     13.47806      4.54546     37.82129         0.007328      0.021777     -0.026642
     13.42571     13.66291     37.75705        -0.019951     -0.009415     -0.093426
      0.00001      0.00001     44.04300        -0.001031     -0.149188      0.070305
     -0.00245      9.03141     44.04300         0.060112      0.011838      0.132904
      9.03041      0.00001     44.04300        -0.010999     -0.013502      0.167953
      9.02795      9.03141     44.04300         0.063638     -0.007064      0.193381
      4.51397      4.51569     44.04275        -0.000768      0.046931      0.105814
      4.51151     13.54709     44.04275        -0.057901      0.018493      0.084178
     13.54437      4.51569     44.04275        -0.107091      0.030857      0.230758
     13.54191     13.54709     44.04275        -0.007066      0.002489      0.135499
      0.00000      0.00000     50.44728         0.000642     -0.005186     -0.611459
     -0.00246      9.03140     50.44728         0.001339      0.004403     -0.645702
      9.03040      0.00000     50.44728        -0.001744     -0.002408     -0.630223
      9.02794      9.03140     50.44728        -0.000216      0.002499     -0.630038
      4.51397      4.51570     50.44728         0.001498      0.007524     -0.632327
      4.51151     13.54710     50.44728         0.000255     -0.008171     -0.633906
     13.54437      4.51570     50.44728        -0.002399      0.008100     -0.627599
     13.54191     13.54710     50.44728         0.000984     -0.008223     -0.634125
 -----------------------------------------------------------------------------------
    total drift:                               -0.015171      0.053526      0.291486


--------------------------------------------------------------------------------------------------------



  FREE ENERGIE OF THE ION-ELECTRON SYSTEM (eV)
  ---------------------------------------------------
  free  energy   TOTEN  =     -1576.06994022 eV

  energy  without entropy=    -1576.06994022  energy(sigma->0) =    -1576.06994022
 


--------------------------------------------------------------------------------------------------------


    POTLOK:  cpu time    0.5014: real time    0.5014


--------------------------------------------------------------------------------------------------------


     LOOP+:  cpu time  302.6898: real time  303.2712
 vacuum level on the upper side and lower side of the slab         2.350         1.550
    4ORBIT:  cpu time    0.0000: real time    0.0000

 total amount of memory used by VASP MPI-rank0  8653590. kBytes
=======================================================================

   base      :      30000. kBytes
   nonlr-proj:      53628. kBytes
   fftplans  :     249280. kBytes
   grid      :     701440. kBytes
   one-center:       2636. kBytes
   wavefun   :    7616606. kBytes
 
  
  
 General timing and accounting informations for this job:
 ========================================================
  
                  Total CPU time used (sec):      514.005
                            User time (sec):      414.828
                          System time (sec):       99.176
                         Elapsed time (sec):      517.176
  
                   Maximum memory used (kb):    10308816.
                   Average memory used (kb):          N/A
  
                          Minor page faults:      3684961
                          Major page faults:           12
                 Voluntary context switches:        11537
