<?xml version="1.0" encoding="ISO-8859-1"?>
<modeling>
 <generator>
  <i name="program" type="string">vasp </i>
  <i name="version" type="string">6.2.1  </i>
  <i name="subversion" type="string">16May21 (build Nov 15 2021 14:57:28) complex                          parallel </i>
  <i name="platform" type="string">LinuxPGI </i>
  <i name="date" type="string">2023 07 30 </i>
  <i name="time" type="string">21:51:49 </i>
 </generator>
 <incar>
  <i type="string" name="SYSTEM">PSC</i>
  <i type="int" name="ISTART">     1</i>
  <i type="string" name="PREC">Normal</i>
  <i name="BMIX">      0.01000000</i>
  <i name="AMIN">      0.01000000</i>
  <i type="int" name="ICHARG">     1</i>
  <i type="int" name="NELM">   600</i>
  <i type="int" name="ISYM">     0</i>
  <i name="ENCUT">    500.00000000</i>
  <i type="string" name="LREAL">Auto</i>
  <i type="int" name="ISMEAR">     0</i>
  <i name="SIGMA">      0.05000000</i>
  <i type="logical" name="LWAVE"> F  </i>
  <i type="logical" name="LVTOT"> T  </i>
  <i type="logical" name="GGA_COMPAT"> F  </i>
  <i type="logical" name="LDIPOL"> T  </i>
  <i type="int" name="IDIPOL">     3</i>
  <i type="int" name="IVDW">    12</i>
 </incar>
 <primitive_cell>
  <structure name="primitive_cell" >
   <crystal>
    <varray name="basis" >
     <v>      18.06080055       0.00000000       0.00000000 </v>
     <v>      -0.00491865      18.06279945       0.00000000 </v>
     <v>       0.00000000       0.00000000      62.48749924 </v>
    </varray>
    <i name="volume">  20385.21054034 </i>
    <varray name="rec_basis" >
     <v>       0.05536853       0.00001508      -0.00000000 </v>
     <v>       0.00000000       0.05536240       0.00000000 </v>
     <v>       0.00000000      -0.00000000       0.01600320 </v>
    </varray>
   </crystal>
   <varray name="positions" >
    <v>       0.46901673       0.33893285       0.56479784 </v>
    <v>       0.44032324       0.82573712       0.57464918 </v>
    <v>       0.92334493       0.27044903       0.57842111 </v>
    <v>       0.93719948       0.81860842       0.57290103 </v>
    <v>       0.31975460       0.07875806       0.57002313 </v>
    <v>       0.34872261       0.54286704       0.55780859 </v>
    <v>       0.80446816       0.09231877       0.56701130 </v>
    <v>       0.10784065       0.25000356       0.55683897 </v>
    <v>       0.07537811       0.67394573       0.57630100 </v>
    <v>       0.54722723       0.15336179       0.56097579 </v>
    <v>       0.50397455       0.64418620       0.55778942 </v>
    <v>       0.37372938       0.01534237       0.55602869 </v>
    <v>       0.29768052       0.62461282       0.55251273 </v>
    <v>       0.87641342       0.03377190       0.55762630 </v>
    <v>       0.05849156       0.27383170       0.57963815 </v>
    <v>       0.98747328       0.69713163       0.58568465 </v>
    <v>       0.57217753       0.24429032       0.56777622 </v>
    <v>       0.44923528       0.68823247       0.57661167 </v>
    <v>       0.27177694       0.43718686       0.57247369 </v>
    <v>       0.18574278       0.05876965       0.57197225 </v>
    <v>       0.68288732       0.03148823       0.57452159 </v>
    <v>       0.38359254       0.30213206       0.55619950 </v>
    <v>       0.49789501       0.86986644       0.55623778 </v>
    <v>       0.88037445       0.23903347       0.55531651 </v>
    <v>       0.98982888       0.86710211       0.55429769 </v>
    <v>       0.17549150       0.44701355       0.56938000 </v>
    <v>       0.14920686       0.98164005       0.55908143 </v>
    <v>       0.67833696       0.93660156       0.56755077 </v>
    <v>       0.42839451       0.18485810       0.55187540 </v>
    <v>       0.54495777       0.75787665       0.54281530 </v>
    <v>       0.99684042       0.22403206       0.53756052 </v>
    <v>       0.08361353       0.77734068       0.55396627 </v>
    <v>       0.18343353       0.56581925       0.55659124 </v>
    <v>       0.26789168       0.94132702       0.54764140 </v>
    <v>       0.79831932       0.93073708       0.55636854 </v>
    <v>       0.44763174       0.30157736       0.67269821 </v>
    <v>       0.44917503       0.80842628       0.67336430 </v>
    <v>       0.94244653       0.28017552       0.67449361 </v>
    <v>       0.92241737       0.73154733       0.66965787 </v>
    <v>       0.30237996       0.05255569       0.67253564 </v>
    <v>       0.29472821       0.55719390       0.67459391 </v>
    <v>       0.80420764       0.05377194       0.67508717 </v>
    <v>       0.84224837       0.47024686       0.66298362 </v>
    <v>       0.08966047       0.17153848       0.64881092 </v>
    <v>       0.11394062       0.71585903       0.65251021 </v>
    <v>       0.57983161       0.16959840       0.64971039 </v>
    <v>       0.56948778       0.66816813       0.64875390 </v>
    <v>       0.18513741       0.41174288       0.64810119 </v>
    <v>       0.16808362       0.92560902       0.64761281 </v>
    <v>       0.64181758       0.47439237       0.65605401 </v>
    <v>       0.67478379       0.92101977       0.65071957 </v>
    <v>       0.05244420       0.18672614       0.67408301 </v>
    <v>       0.04724473       0.67043774       0.66770411 </v>
    <v>       0.55013243       0.20126371       0.67448647 </v>
    <v>       0.54284583       0.69851292       0.67398197 </v>
    <v>       0.20185984       0.44676793       0.67365207 </v>
    <v>       0.19706654       0.95222485       0.67300235 </v>
    <v>       0.71339174       0.41683704       0.66460174 </v>
    <v>       0.70209636       0.95144833       0.67590612 </v>
    <v>       0.41941319       0.32382038       0.64696491 </v>
    <v>       0.42447584       0.83679053       0.64761793 </v>
    <v>       0.92256913       0.31776804       0.64959892 </v>
    <v>       0.91229890       0.81286477       0.65537333 </v>
    <v>       0.33023714       0.07828537       0.64690783 </v>
    <v>       0.32552150       0.58512040       0.64947585 </v>
    <v>       0.83027550       0.07983620       0.64917989 </v>
    <v>       0.84995211       0.55718282       0.65108652 </v>
    <v>       0.01244250       0.25353283       0.63174043 </v>
    <v>       0.03418335       0.81161869       0.64280991 </v>
    <v>       0.50074475       0.24316713       0.63033048 </v>
    <v>       0.49681940       0.75138290       0.63050428 </v>
    <v>       0.24780624       0.00102754       0.62961671 </v>
    <v>       0.26214478       0.49449362       0.63116213 </v>
    <v>       0.75251791       0.99863259       0.63224908 </v>
    <v>       0.72288333       0.57037332       0.64613247 </v>
    <v>       0.44874502       0.30128397       0.76888902 </v>
    <v>       0.44874501       0.80128391       0.76888902 </v>
    <v>       0.94874497       0.30128397       0.76888902 </v>
    <v>       0.94874501       0.80128391       0.76888902 </v>
    <v>       0.30127600       0.05129450       0.76887296 </v>
    <v>       0.30127601       0.55129450       0.76887296 </v>
    <v>       0.80127594       0.05129450       0.76887296 </v>
    <v>       0.80127598       0.55129450       0.76887296 </v>
    <v>       0.07877100       0.17118050       0.74344197 </v>
    <v>       0.07877101       0.67118045       0.74344197 </v>
    <v>       0.57877100       0.17118050       0.74344197 </v>
    <v>       0.57877099       0.67118045       0.74344197 </v>
    <v>       0.17119950       0.42117448       0.74342103 </v>
    <v>       0.17119950       0.92117451       0.74342103 </v>
    <v>       0.67119951       0.42117448       0.74342103 </v>
    <v>       0.67119950       0.92117451       0.74342103 </v>
    <v>       0.05125600       0.19871499       0.76888902 </v>
    <v>       0.05125600       0.69871493       0.76888902 </v>
    <v>       0.55125603       0.19871499       0.76888902 </v>
    <v>       0.55125602       0.69871493       0.76888902 </v>
    <v>       0.19872349       0.44870397       0.76887205 </v>
    <v>       0.19872349       0.94870397       0.76887205 </v>
    <v>       0.69872352       0.44870397       0.76887205 </v>
    <v>       0.69872351       0.94870397       0.76887205 </v>
    <v>       0.42123152       0.32881747       0.74344197 </v>
    <v>       0.42123151       0.82881744       0.74344197 </v>
    <v>       0.92123147       0.32881747       0.74344197 </v>
    <v>       0.92123151       0.82881744       0.74344197 </v>
    <v>       0.32880050       0.07882500       0.74342103 </v>
    <v>       0.32880049       0.57882496       0.74342103 </v>
    <v>       0.82880048       0.07882500       0.74342103 </v>
    <v>       0.82880052       0.57882496       0.74342103 </v>
    <v>       0.00000350       0.25000148       0.72582199 </v>
    <v>       0.00000350       0.75000145       0.72582199 </v>
    <v>       0.50000351       0.25000148       0.72582199 </v>
    <v>       0.50000350       0.75000145       0.72582199 </v>
    <v>       0.25000050       0.00000000       0.72580398 </v>
    <v>       0.25000052       0.50000000       0.72580398 </v>
    <v>       0.75000050       0.00000000       0.72580398 </v>
    <v>       0.75000049       0.50000000       0.72580398 </v>
    <v>       0.72041369       0.44331438       0.53986604 </v>
    <v>       0.73943607       0.49472741       0.51658025 </v>
    <v>       0.66173975       0.55181915       0.55692908 </v>
    <v>       0.70845961       0.63779440       0.55564080 </v>
    <v>       0.85145428       0.50857514       0.56749314 </v>
    <v>       0.79137476       0.57756685       0.57748141 </v>
    <v>       0.87625842       0.56088631       0.53116575 </v>
    <v>       0.80653738       0.62262425       0.52174455 </v>
    <v>       0.87307102       0.46135002       0.51813330 </v>
    <v>       0.86175213       0.42365236       0.54378461 </v>
    <v>       0.87246891       0.32606074       0.51837779 </v>
    <v>       0.78396209       0.32334810       0.53010835 </v>
    <v>       0.63788903       0.55107481       0.51834293 </v>
    <v>       0.69252305       0.63266157       0.51441679 </v>
    <v>       0.61077513       0.63632652       0.52966783 </v>
    <v>       0.75956008       0.46601539       0.59577114 </v>
    <v>       0.75431413       0.41201295       0.57230392 </v>
    <v>       0.68645318       0.48106527       0.57798224 </v>
    <v>       0.81831086       0.69117848       0.55789522 </v>
    <v>       0.89707111       0.69143275       0.54136884 </v>
    <v>       0.89511207       0.63123149       0.56378482 </v>
    <v>       0.82063426       0.38151747       0.48464106 </v>
    <v>       0.78664394       0.29256237       0.49141106 </v>
    <v>       0.66256905       0.30354405       0.51774778 </v>
    <v>       0.73293845       0.46277002       0.47088672 </v>
    <v>       0.53574523       0.35471762       0.51671877 </v>
    <v>       0.60482545       0.51362936       0.46933722 </v>
    <v>       0.50631708       0.46156153       0.49274660 </v>
    <v>       0.99440907       0.24242123       0.55427389 </v>
    <v>       0.03338075       0.76873223       0.56351548 </v>
    <v>       0.46592891       0.22832509       0.55737699 </v>
    <v>       0.50354166       0.75740543       0.55559855 </v>
    <v>       0.23493825       0.53567140       0.55987462 </v>
    <v>       0.26173395       0.99331677       0.55655755 </v>
    <v>       0.77706097       0.98397715       0.56217366 </v>
    <v>       0.00620074       0.24504029       0.64884615 </v>
    <v>       0.01387389       0.76711762       0.65325786 </v>
    <v>       0.49979977       0.24702717       0.64773777 </v>
    <v>       0.49638906       0.75221647       0.64797866 </v>
    <v>       0.25643792       0.49765583       0.64855465 </v>
    <v>       0.24922283       0.00181236       0.64703951 </v>
    <v>       0.74467246       0.51884107       0.65321696 </v>
    <v>       0.75291316       0.00042938       0.64971613 </v>
    <v>       0.49998898       0.24999498       0.74327702 </v>
    <v>       0.49998903       0.74999496       0.74327702 </v>
    <v>       0.99998898       0.24999498       0.74327702 </v>
    <v>       0.99998903       0.74999496       0.74327702 </v>
    <v>       0.25000050       0.00000100       0.74325596 </v>
    <v>       0.25000052       0.50000100       0.74325596 </v>
    <v>       0.75000050       0.00000100       0.74325596 </v>
    <v>       0.75000049       0.50000100       0.74325596 </v>
    <v>       0.70703025       0.37964663       0.49458189 </v>
    <v>       0.65028446       0.34946620       0.50710887 </v>
    <v>       0.68936991       0.43865646       0.48088775 </v>
    <v>       0.57884416       0.37834337       0.50656574 </v>
    <v>       0.61749571       0.46746806       0.48006581 </v>
    <v>       0.56196170       0.43783958       0.49305846 </v>
    <v>       0.76269625       0.47691051       0.53185381 </v>
    <v>       0.69753315       0.58631236       0.54688923 </v>
    <v>       0.79342247       0.52593946       0.56827754 </v>
    <v>       0.83051004       0.59687333       0.53599716 </v>
    <v>       0.83346784       0.43192317       0.52841752 </v>
    <v>       0.81883736       0.35499372       0.51892166 </v>
    <v>       0.65869201       0.60157465       0.52592459 </v>
    <v>       0.74526522       0.46777571       0.57872165 </v>
    <v>       0.86125695       0.65536975       0.55101322 </v>
    <v>       0.78549015       0.35136892       0.49637931 </v>
    <v>       0.05715249       0.25455684       0.56420532 </v>
    <v>       0.03072448       0.70884237       0.57543119 </v>
    <v>       0.53379282       0.20835781       0.56191433 </v>
    <v>       0.48370304       0.69317660       0.56355870 </v>
    <v>       0.43927429       0.29570731       0.55876508 </v>
    <v>       0.47675982       0.82123865       0.56197898 </v>
    <v>       0.92905613       0.25017439       0.56313760 </v>
    <v>       0.97987008       0.81803726       0.56209961 </v>
    <v>       0.22805242       0.46671807       0.56645113 </v>
    <v>       0.19497328       0.01270888       0.56276741 </v>
    <v>       0.70711008       0.98565256       0.56793287 </v>
    <v>       0.32134265       0.03226310       0.56070596 </v>
    <v>       0.29839868       0.56918516       0.55637324 </v>
    <v>       0.82233705       0.04078136       0.56277345 </v>
    <v>       0.05154618       0.19775836       0.65806125 </v>
    <v>       0.06057959       0.71307780       0.65773672 </v>
    <v>       0.54624627       0.20389182       0.65821942 </v>
    <v>       0.53789707       0.70312364       0.65786767 </v>
    <v>       0.21263388       0.44868026       0.65765754 </v>
    <v>       0.20213772       0.95773850       0.65680520 </v>
    <v>       0.69754676       0.46661105       0.65835409 </v>
    <v>       0.70798971       0.95473262       0.65971319 </v>
    <v>       0.45333327       0.29348986       0.65653170 </v>
    <v>       0.45428104       0.80206231       0.65716782 </v>
    <v>       0.95440342       0.28353623       0.65858503 </v>
    <v>       0.94550494       0.77067249       0.66010267 </v>
    <v>       0.29678459       0.04630826       0.65626267 </v>
    <v>       0.29448979       0.54948945       0.65841929 </v>
    <v>       0.79764907       0.04795800       0.65882159 </v>
    <v>       0.81670932       0.51473536       0.65599821 </v>
    <v>       0.04586250       0.20411950       0.75272599 </v>
    <v>       0.04586250       0.70411946       0.75272599 </v>
    <v>       0.54586251       0.20411950       0.75272599 </v>
    <v>       0.54586250       0.70411946       0.75272599 </v>
    <v>       0.20411900       0.45410100       0.75270499 </v>
    <v>       0.20411899       0.95410095       0.75270499 </v>
    <v>       0.70411898       0.45410100       0.75270499 </v>
    <v>       0.70411896       0.95410095       0.75270499 </v>
    <v>       0.45414002       0.29588849       0.75272697 </v>
    <v>       0.45414001       0.79588852       0.75272697 </v>
    <v>       0.95414002       0.29588849       0.75272697 </v>
    <v>       0.95414006       0.79588852       0.75272697 </v>
    <v>       0.29588249       0.04590050       0.75270499 </v>
    <v>       0.29588248       0.54590053       0.75270499 </v>
    <v>       0.79588244       0.04590050       0.75270499 </v>
    <v>       0.79588248       0.54590053       0.75270499 </v>
    <v>       0.77155577       0.54604678       0.54550498 </v>
    <v>       0.51505987       0.01313457       0.55301192 </v>
    <v>       0.48712162       0.49803809       0.55340219 </v>
    <v>       0.00703961       0.00811261       0.55025868 </v>
    <v>       0.02637296       0.50126028       0.55448609 </v>
    <v>       0.25033445       0.24040238       0.55272890 </v>
    <v>       0.25355687       0.76244561       0.55265882 </v>
    <v>       0.73516445       0.21172970       0.55580703 </v>
    <v>       0.69915171       0.79636929       0.55523727 </v>
    <v>       0.99709592       0.98760003       0.65380051 </v>
    <v>       0.01445894       0.49670273       0.65528158 </v>
    <v>       0.49670900       0.00360767       0.65496309 </v>
    <v>       0.50144690       0.49550317       0.65442527 </v>
    <v>       0.25333943       0.24681477       0.65459254 </v>
    <v>       0.25467174       0.75548507       0.65425592 </v>
    <v>       0.74720649       0.26690741       0.65521375 </v>
    <v>       0.74613051       0.74117732       0.65456134 </v>
    <v>       0.12911753       0.12340571       0.60745481 </v>
    <v>       0.15338191       0.60564055       0.60776963 </v>
    <v>       0.63984207       0.11364741       0.61120446 </v>
    <v>       0.63171440       0.61915850       0.60754571 </v>
    <v>       0.36184623       0.38857628       0.60590128 </v>
    <v>       0.37018053       0.88503216       0.60676125 </v>
    <v>       0.88808468       0.36915188       0.60815283 </v>
    <v>       0.86693246       0.88195321       0.60592991 </v>
    <v>       0.12248685       0.36392279       0.60852430 </v>
    <v>       0.12325217       0.87527974       0.60691112 </v>
    <v>       0.59570680       0.34726403       0.60095485 </v>
    <v>       0.61650977       0.86711689       0.61409029 </v>
    <v>       0.38754053       0.13308622       0.60691998 </v>
    <v>       0.38624491       0.63524126       0.60940546 </v>
    <v>       0.88433333       0.13716614       0.61150402 </v>
    <v>       0.89807007       0.64072953       0.61387931 </v>
    <v>       0.00000000       0.00000000       0.75492797 </v>
    <v>       0.00000000       0.50000000       0.75492797 </v>
    <v>       0.50000000       0.00000000       0.75492797 </v>
    <v>       0.49999999       0.50000000       0.75492797 </v>
    <v>       0.25000050       0.25000000       0.75493902 </v>
    <v>       0.25000051       0.74999997       0.75493902 </v>
    <v>       0.75000047       0.25000000       0.75493902 </v>
    <v>       0.75000046       0.74999997       0.75493902 </v>
    <v>       0.13579050       0.11421000       0.70478299 </v>
    <v>       0.13579050       0.61420998       0.70478299 </v>
    <v>       0.63579045       0.11421000       0.70478299 </v>
    <v>       0.63579049       0.61420998       0.70478299 </v>
    <v>       0.36420952       0.38578999       0.70478299 </v>
    <v>       0.36420950       0.88578996       0.70478299 </v>
    <v>       0.86420954       0.38578999       0.70478299 </v>
    <v>       0.86420953       0.88578996       0.70478299 </v>
    <v>       0.11421799       0.36421899       0.70478098 </v>
    <v>       0.11421799       0.86421899       0.70478098 </v>
    <v>       0.61421800       0.36421899       0.70478098 </v>
    <v>       0.61421799       0.86421899       0.70478098 </v>
    <v>       0.38578201       0.13578149       0.70478202 </v>
    <v>       0.38578200       0.63578149       0.70478202 </v>
    <v>       0.88578199       0.13578149       0.70478202 </v>
    <v>       0.88578203       0.63578149       0.70478202 </v>
    <v>       0.13466700       0.11533200       0.80125603 </v>
    <v>       0.13466699       0.61533199       0.80125603 </v>
    <v>       0.63466699       0.11533200       0.80125603 </v>
    <v>       0.63466698       0.61533199       0.80125603 </v>
    <v>       0.36533300       0.38466799       0.80125603 </v>
    <v>       0.36533299       0.88466796       0.80125603 </v>
    <v>       0.86533295       0.38466799       0.80125603 </v>
    <v>       0.86533294       0.88466796       0.80125603 </v>
    <v>       0.11532850       0.36533700       0.80126500 </v>
    <v>       0.11532850       0.86533698       0.80126500 </v>
    <v>       0.61532850       0.36533700       0.80126500 </v>
    <v>       0.61532849       0.86533698       0.80126500 </v>
    <v>       0.38467151       0.13466300       0.80126500 </v>
    <v>       0.38467150       0.63466297       0.80126500 </v>
    <v>       0.88467149       0.13466300       0.80126500 </v>
    <v>       0.88467153       0.63466297       0.80126500 </v>
    <v>       0.99735715       0.00413489       0.60387414 </v>
    <v>       0.00768995       0.50330028       0.60438419 </v>
    <v>       0.50445847       0.00137087       0.60522390 </v>
    <v>       0.50132999       0.49878000       0.60410893 </v>
    <v>       0.25399286       0.24969715       0.60407932 </v>
    <v>       0.25085902       0.75244868       0.60292180 </v>
    <v>       0.74632901       0.25164747       0.60526162 </v>
    <v>       0.74356799       0.75641157       0.60423365 </v>
    <v>       0.00000050       0.00000050       0.70482896 </v>
    <v>       0.00000050       0.50000048       0.70482896 </v>
    <v>       0.50000048       0.00000050       0.70482896 </v>
    <v>       0.50000046       0.50000048       0.70482896 </v>
    <v>       0.24999999       0.24999947       0.70482499 </v>
    <v>       0.25000001       0.74999950       0.70482499 </v>
    <v>       0.74999999       0.24999947       0.70482499 </v>
    <v>       0.74999998       0.74999950       0.70482499 </v>
    <v>       0.00000000       0.00000000       0.80731797 </v>
    <v>       0.00000000       0.50000000       0.80731797 </v>
    <v>       0.50000000       0.00000000       0.80731797 </v>
    <v>       0.49999999       0.50000000       0.80731797 </v>
    <v>       0.24999999       0.25000000       0.80731797 </v>
    <v>       0.25000001       0.74999997       0.80731797 </v>
    <v>       0.74999999       0.25000000       0.80731797 </v>
    <v>       0.74999998       0.74999997       0.80731797 </v>
   </varray>
  </structure>
  <varray name="primitive_index" >
   <v type="int" >        1 </v>
   <v type="int" >        2 </v>
   <v type="int" >        3 </v>
   <v type="int" >        4 </v>
   <v type="int" >        5 </v>
   <v type="int" >        6 </v>
   <v type="int" >        7 </v>
   <v type="int" >        8 </v>
   <v type="int" >        9 </v>
   <v type="int" >       10 </v>
   <v type="int" >       11 </v>
   <v type="int" >       12 </v>
   <v type="int" >       13 </v>
   <v type="int" >       14 </v>
   <v type="int" >       15 </v>
   <v type="int" >       16 </v>
   <v type="int" >       17 </v>
   <v type="int" >       18 </v>
   <v type="int" >       19 </v>
   <v type="int" >       20 </v>
   <v type="int" >       21 </v>
   <v type="int" >       22 </v>
   <v type="int" >       23 </v>
   <v type="int" >       24 </v>
   <v type="int" >       25 </v>
   <v type="int" >       26 </v>
   <v type="int" >       27 </v>
   <v type="int" >       28 </v>
   <v type="int" >       29 </v>
   <v type="int" >       30 </v>
   <v type="int" >       31 </v>
   <v type="int" >       32 </v>
   <v type="int" >       33 </v>
   <v type="int" >       34 </v>
   <v type="int" >       35 </v>
   <v type="int" >       36 </v>
   <v type="int" >       37 </v>
   <v type="int" >       38 </v>
   <v type="int" >       39 </v>
   <v type="int" >       40 </v>
   <v type="int" >       41 </v>
   <v type="int" >       42 </v>
   <v type="int" >       43 </v>
   <v type="int" >       44 </v>
   <v type="int" >       45 </v>
   <v type="int" >       46 </v>
   <v type="int" >       47 </v>
   <v type="int" >       48 </v>
   <v type="int" >       49 </v>
   <v type="int" >       50 </v>
   <v type="int" >       51 </v>
   <v type="int" >       52 </v>
   <v type="int" >       53 </v>
   <v type="int" >       54 </v>
   <v type="int" >       55 </v>
   <v type="int" >       56 </v>
   <v type="int" >       57 </v>
   <v type="int" >       58 </v>
   <v type="int" >       59 </v>
   <v type="int" >       60 </v>
   <v type="int" >       61 </v>
   <v type="int" >       62 </v>
   <v type="int" >       63 </v>
   <v type="int" >       64 </v>
   <v type="int" >       65 </v>
   <v type="int" >       66 </v>
   <v type="int" >       67 </v>
   <v type="int" >       68 </v>
   <v type="int" >       69 </v>
   <v type="int" >       70 </v>
   <v type="int" >       71 </v>
   <v type="int" >       72 </v>
   <v type="int" >       73 </v>
   <v type="int" >       74 </v>
   <v type="int" >       75 </v>
   <v type="int" >       76 </v>
   <v type="int" >       77 </v>
   <v type="int" >       78 </v>
   <v type="int" >       79 </v>
   <v type="int" >       80 </v>
   <v type="int" >       81 </v>
   <v type="int" >       82 </v>
   <v type="int" >       83 </v>
   <v type="int" >       84 </v>
   <v type="int" >       85 </v>
   <v type="int" >       86 </v>
   <v type="int" >       87 </v>
   <v type="int" >       88 </v>
   <v type="int" >       89 </v>
   <v type="int" >       90 </v>
   <v type="int" >       91 </v>
   <v type="int" >       92 </v>
   <v type="int" >       93 </v>
   <v type="int" >       94 </v>
   <v type="int" >       95 </v>
   <v type="int" >       96 </v>
   <v type="int" >       97 </v>
   <v type="int" >       98 </v>
   <v type="int" >       99 </v>
   <v type="int" >      100 </v>
   <v type="int" >      101 </v>
   <v type="int" >      102 </v>
   <v type="int" >      103 </v>
   <v type="int" >      104 </v>
   <v type="int" >      105 </v>
   <v type="int" >      106 </v>
   <v type="int" >      107 </v>
   <v type="int" >      108 </v>
   <v type="int" >      109 </v>
   <v type="int" >      110 </v>
   <v type="int" >      111 </v>
   <v type="int" >      112 </v>
   <v type="int" >      113 </v>
   <v type="int" >      114 </v>
   <v type="int" >      115 </v>
   <v type="int" >      116 </v>
   <v type="int" >      117 </v>
   <v type="int" >      118 </v>
   <v type="int" >      119 </v>
   <v type="int" >      120 </v>
   <v type="int" >      121 </v>
   <v type="int" >      122 </v>
   <v type="int" >      123 </v>
   <v type="int" >      124 </v>
   <v type="int" >      125 </v>
   <v type="int" >      126 </v>
   <v type="int" >      127 </v>
   <v type="int" >      128 </v>
   <v type="int" >      129 </v>
   <v type="int" >      130 </v>
   <v type="int" >      131 </v>
   <v type="int" >      132 </v>
   <v type="int" >      133 </v>
   <v type="int" >      134 </v>
   <v type="int" >      135 </v>
   <v type="int" >      136 </v>
   <v type="int" >      137 </v>
   <v type="int" >      138 </v>
   <v type="int" >      139 </v>
   <v type="int" >      140 </v>
   <v type="int" >      141 </v>
   <v type="int" >      142 </v>
   <v type="int" >      143 </v>
   <v type="int" >      144 </v>
   <v type="int" >      145 </v>
   <v type="int" >      146 </v>
   <v type="int" >      147 </v>
   <v type="int" >      148 </v>
   <v type="int" >      149 </v>
   <v type="int" >      150 </v>
   <v type="int" >      151 </v>
   <v type="int" >      152 </v>
   <v type="int" >      153 </v>
   <v type="int" >      154 </v>
   <v type="int" >      155 </v>
   <v type="int" >      156 </v>
   <v type="int" >      157 </v>
   <v type="int" >      158 </v>
   <v type="int" >      159 </v>
   <v type="int" >      160 </v>
   <v type="int" >      161 </v>
   <v type="int" >      162 </v>
   <v type="int" >      163 </v>
   <v type="int" >      164 </v>
   <v type="int" >      165 </v>
   <v type="int" >      166 </v>
   <v type="int" >      167 </v>
   <v type="int" >      168 </v>
   <v type="int" >      169 </v>
   <v type="int" >      170 </v>
   <v type="int" >      171 </v>
   <v type="int" >      172 </v>
   <v type="int" >      173 </v>
   <v type="int" >      174 </v>
   <v type="int" >      175 </v>
   <v type="int" >      176 </v>
   <v type="int" >      177 </v>
   <v type="int" >      178 </v>
   <v type="int" >      179 </v>
   <v type="int" >      180 </v>
   <v type="int" >      181 </v>
   <v type="int" >      182 </v>
   <v type="int" >      183 </v>
   <v type="int" >      184 </v>
   <v type="int" >      185 </v>
   <v type="int" >      186 </v>
   <v type="int" >      187 </v>
   <v type="int" >      188 </v>
   <v type="int" >      189 </v>
   <v type="int" >      190 </v>
   <v type="int" >      191 </v>
   <v type="int" >      192 </v>
   <v type="int" >      193 </v>
   <v type="int" >      194 </v>
   <v type="int" >      195 </v>
   <v type="int" >      196 </v>
   <v type="int" >      197 </v>
   <v type="int" >      198 </v>
   <v type="int" >      199 </v>
   <v type="int" >      200 </v>
   <v type="int" >      201 </v>
   <v type="int" >      202 </v>
   <v type="int" >      203 </v>
   <v type="int" >      204 </v>
   <v type="int" >      205 </v>
   <v type="int" >      206 </v>
   <v type="int" >      207 </v>
   <v type="int" >      208 </v>
   <v type="int" >      209 </v>
   <v type="int" >      210 </v>
   <v type="int" >      211 </v>
   <v type="int" >      212 </v>
   <v type="int" >      213 </v>
   <v type="int" >      214 </v>
   <v type="int" >      215 </v>
   <v type="int" >      216 </v>
   <v type="int" >      217 </v>
   <v type="int" >      218 </v>
   <v type="int" >      219 </v>
   <v type="int" >      220 </v>
   <v type="int" >      221 </v>
   <v type="int" >      222 </v>
   <v type="int" >      223 </v>
   <v type="int" >      224 </v>
   <v type="int" >      225 </v>
   <v type="int" >      226 </v>
   <v type="int" >      227 </v>
   <v type="int" >      228 </v>
   <v type="int" >      229 </v>
   <v type="int" >      230 </v>
   <v type="int" >      231 </v>
   <v type="int" >      232 </v>
   <v type="int" >      233 </v>
   <v type="int" >      234 </v>
   <v type="int" >      235 </v>
   <v type="int" >      236 </v>
   <v type="int" >      237 </v>
   <v type="int" >      238 </v>
   <v type="int" >      239 </v>
   <v type="int" >      240 </v>
   <v type="int" >      241 </v>
   <v type="int" >      242 </v>
   <v type="int" >      243 </v>
   <v type="int" >      244 </v>
   <v type="int" >      245 </v>
   <v type="int" >      246 </v>
   <v type="int" >      247 </v>
   <v type="int" >      248 </v>
   <v type="int" >      249 </v>
   <v type="int" >      250 </v>
   <v type="int" >      251 </v>
   <v type="int" >      252 </v>
   <v type="int" >      253 </v>
   <v type="int" >      254 </v>
   <v type="int" >      255 </v>
   <v type="int" >      256 </v>
   <v type="int" >      257 </v>
   <v type="int" >      258 </v>
   <v type="int" >      259 </v>
   <v type="int" >      260 </v>
   <v type="int" >      261 </v>
   <v type="int" >      262 </v>
   <v type="int" >      263 </v>
   <v type="int" >      264 </v>
   <v type="int" >      265 </v>
   <v type="int" >      266 </v>
   <v type="int" >      267 </v>
   <v type="int" >      268 </v>
   <v type="int" >      269 </v>
   <v type="int" >      270 </v>
   <v type="int" >      271 </v>
   <v type="int" >      272 </v>
   <v type="int" >      273 </v>
   <v type="int" >      274 </v>
   <v type="int" >      275 </v>
   <v type="int" >      276 </v>
   <v type="int" >      277 </v>
   <v type="int" >      278 </v>
   <v type="int" >      279 </v>
   <v type="int" >      280 </v>
   <v type="int" >      281 </v>
   <v type="int" >      282 </v>
   <v type="int" >      283 </v>
   <v type="int" >      284 </v>
   <v type="int" >      285 </v>
   <v type="int" >      286 </v>
   <v type="int" >      287 </v>
   <v type="int" >      288 </v>
   <v type="int" >      289 </v>
   <v type="int" >      290 </v>
   <v type="int" >      291 </v>
   <v type="int" >      292 </v>
   <v type="int" >      293 </v>
   <v type="int" >      294 </v>
   <v type="int" >      295 </v>
   <v type="int" >      296 </v>
   <v type="int" >      297 </v>
   <v type="int" >      298 </v>
   <v type="int" >      299 </v>
   <v type="int" >      300 </v>
   <v type="int" >      301 </v>
   <v type="int" >      302 </v>
   <v type="int" >      303 </v>
   <v type="int" >      304 </v>
   <v type="int" >      305 </v>
   <v type="int" >      306 </v>
   <v type="int" >      307 </v>
   <v type="int" >      308 </v>
   <v type="int" >      309 </v>
   <v type="int" >      310 </v>
   <v type="int" >      311 </v>
   <v type="int" >      312 </v>
   <v type="int" >      313 </v>
   <v type="int" >      314 </v>
   <v type="int" >      315 </v>
   <v type="int" >      316 </v>
   <v type="int" >      317 </v>
   <v type="int" >      318 </v>
   <v type="int" >      319 </v>
   <v type="int" >      320 </v>
   <v type="int" >      321 </v>
   <v type="int" >      322 </v>
   <v type="int" >      323 </v>
   <v type="int" >      324 </v>
   <v type="int" >      325 </v>
  </varray>
 </primitive_cell>
 <kpoints>
  <generation param="Gamma">
   <v type="int" name="divisions">       3        3        1 </v>
   <v name="usershift">      0.00000000       0.00000000       0.00000000 </v>
   <v name="genvec1">      0.33333333       0.00000000       0.00000000 </v>
   <v name="genvec2">      0.00000000       0.33333333       0.00000000 </v>
   <v name="genvec3">      0.00000000       0.00000000       1.00000000 </v>
   <v name="shift">      0.00000000       0.00000000       0.00000000 </v>
  </generation>
  <varray name="kpointlist" >
   <v>       0.00000000       0.00000000       0.00000000 </v>
   <v>       0.33333333       0.00000000       0.00000000 </v>
   <v>       0.00000000       0.33333333       0.00000000 </v>
   <v>       0.33333333       0.33333333       0.00000000 </v>
   <v>      -0.33333333       0.33333333       0.00000000 </v>
  </varray>
  <varray name="weights" >
   <v>       0.11111111 </v>
   <v>       0.22222222 </v>
   <v>       0.22222222 </v>
   <v>       0.22222222 </v>
   <v>       0.22222222 </v>
  </varray>
 </kpoints>
 <parameters>
  <separator name="general" >
   <i type="string" name="SYSTEM">PSC</i>
   <i type="logical" name="LCOMPAT"> F  </i>
  </separator>
  <separator name="electronic" >
   <i type="string" name="PREC">normal</i>
   <i name="ENMAX">    500.00000000</i>
   <i name="ENAUG">    644.87300000</i>
   <i name="EDIFF">      0.00010000</i>
   <i type="int" name="IALGO">    38</i>
   <i type="int" name="IWAVPR">    10</i>
   <i type="int" name="NBANDS">   732</i>
   <i type="int" name="NBANDSLOW">    -1</i>
   <i type="int" name="NBANDSHIGH">    -1</i>
   <i name="NELECT">   1134.00000000</i>
   <i type="int" name="TURBO">     0</i>
   <i type="int" name="IRESTART">     0</i>
   <i type="int" name="NREBOOT">     0</i>
   <i type="int" name="NMIN">     0</i>
   <i name="EREF">      0.00000000</i>
   <separator name="electronic smearing" >
    <i type="int" name="ISMEAR">     0</i>
    <i name="SIGMA">      0.05000000</i>
    <i name="KSPACING">      0.50000000</i>
    <i type="logical" name="KGAMMA"> T  </i>
    <i type="logical" name="KBLOWUP"> T  </i>
   </separator>
   <separator name="electronic projectors" >
    <i type="logical" name="LREAL"> T  </i>
    <v name="ROPT">     -0.00050000     -0.00050000     -0.00050000     -0.00050000     -0.00050000</v>
    <i type="int" name="LMAXPAW">  -100</i>
    <i type="int" name="LMAXMIX">     2</i>
    <i type="logical" name="NLSPLINE"> F  </i>
   </separator>
   <separator name="electronic startup" >
    <i type="int" name="ISTART">     0</i>
    <i type="int" name="ICHARG">     1</i>
    <i type="int" name="INIWAV">     1</i>
   </separator>
   <separator name="electronic spin" >
    <i type="int" name="ISPIN">     1</i>
    <i type="logical" name="LNONCOLLINEAR"> F  </i>
    <v name="MAGMOM">      1.00000000      1.00000000      1.00000000      1.00000000      1.00000000      1.00000000      1.00000000      1.00000000      1.00000000      1.00000000      1.00000000      1.00000000      1.00000000      1.00000000      1.00000000      1.00000000      1.00000000      1.00000000      1.00000000      1.00000000
      1.00000000      1.00000000      1.00000000      1.00000000      1.00000000      1.00000000      1.00000000      1.00000000      1.00000000      1.00000000      1.00000000      1.00000000      1.00000000      1.00000000      1.00000000      1.00000000      1.00000000      1.00000000      1.00000000      1.00000000
      1.00000000      1.00000000      1.00000000      1.00000000      1.00000000      1.00000000      1.00000000      1.00000000      1.00000000      1.00000000      1.00000000      1.00000000      1.00000000      1.00000000      1.00000000      1.00000000      1.00000000      1.00000000      1.00000000      1.00000000
      1.00000000      1.00000000      1.00000000      1.00000000      1.00000000      1.00000000      1.00000000      1.00000000      1.00000000      1.00000000      1.00000000      1.00000000      1.00000000      1.00000000      1.00000000      1.00000000      1.00000000      1.00000000      1.00000000      1.00000000
      1.00000000      1.00000000      1.00000000      1.00000000      1.00000000      1.00000000      1.00000000      1.00000000      1.00000000      1.00000000      1.00000000      1.00000000      1.00000000      1.00000000      1.00000000      1.00000000      1.00000000      1.00000000      1.00000000      1.00000000
      1.00000000      1.00000000      1.00000000      1.00000000      1.00000000      1.00000000      1.00000000      1.00000000      1.00000000      1.00000000      1.00000000      1.00000000      1.00000000      1.00000000      1.00000000      1.00000000      1.00000000      1.00000000      1.00000000      1.00000000
      1.00000000      1.00000000      1.00000000      1.00000000      1.00000000      1.00000000      1.00000000      1.00000000      1.00000000      1.00000000      1.00000000      1.00000000      1.00000000      1.00000000      1.00000000      1.00000000      1.00000000      1.00000000      1.00000000      1.00000000
      1.00000000      1.00000000      1.00000000      1.00000000      1.00000000      1.00000000      1.00000000      1.00000000      1.00000000      1.00000000      1.00000000      1.00000000      1.00000000      1.00000000      1.00000000      1.00000000      1.00000000      1.00000000      1.00000000      1.00000000
      1.00000000      1.00000000      1.00000000      1.00000000      1.00000000      1.00000000      1.00000000      1.00000000      1.00000000      1.00000000      1.00000000      1.00000000      1.00000000      1.00000000      1.00000000      1.00000000      1.00000000      1.00000000      1.00000000      1.00000000
      1.00000000      1.00000000      1.00000000      1.00000000      1.00000000      1.00000000      1.00000000      1.00000000      1.00000000      1.00000000      1.00000000      1.00000000      1.00000000      1.00000000      1.00000000      1.00000000      1.00000000      1.00000000      1.00000000      1.00000000
      1.00000000      1.00000000      1.00000000      1.00000000      1.00000000      1.00000000      1.00000000      1.00000000      1.00000000      1.00000000      1.00000000      1.00000000      1.00000000      1.00000000      1.00000000      1.00000000      1.00000000      1.00000000      1.00000000      1.00000000
      1.00000000      1.00000000      1.00000000      1.00000000      1.00000000      1.00000000      1.00000000      1.00000000      1.00000000      1.00000000      1.00000000      1.00000000      1.00000000      1.00000000      1.00000000      1.00000000      1.00000000      1.00000000      1.00000000      1.00000000
      1.00000000      1.00000000      1.00000000      1.00000000      1.00000000      1.00000000      1.00000000      1.00000000      1.00000000      1.00000000      1.00000000      1.00000000      1.00000000      1.00000000      1.00000000      1.00000000      1.00000000      1.00000000      1.00000000      1.00000000
      1.00000000      1.00000000      1.00000000      1.00000000      1.00000000      1.00000000      1.00000000      1.00000000      1.00000000      1.00000000      1.00000000      1.00000000      1.00000000      1.00000000      1.00000000      1.00000000      1.00000000      1.00000000      1.00000000      1.00000000
      1.00000000      1.00000000      1.00000000      1.00000000      1.00000000      1.00000000      1.00000000      1.00000000      1.00000000      1.00000000      1.00000000      1.00000000      1.00000000      1.00000000      1.00000000      1.00000000      1.00000000      1.00000000      1.00000000      1.00000000
      1.00000000      1.00000000      1.00000000      1.00000000      1.00000000      1.00000000      1.00000000      1.00000000      1.00000000      1.00000000      1.00000000      1.00000000      1.00000000      1.00000000      1.00000000      1.00000000      1.00000000      1.00000000      1.00000000      1.00000000
      1.00000000      1.00000000      1.00000000      1.00000000      1.00000000</v>
    <i name="NUPDOWN">     -1.00000000</i>
    <i type="logical" name="LSORBIT"> F  </i>
    <v name="SAXIS">      0.00000000      0.00000000      1.00000000</v>
    <i type="logical" name="LSPIRAL"> F  </i>
    <v name="QSPIRAL">      0.00000000      0.00000000      0.00000000</v>
    <i type="logical" name="LZEROZ"> F  </i>
   </separator>
   <separator name="electronic exchange-correlation" >
    <i type="logical" name="LASPH"> F  </i>
    <i type="logical" name="LMETAGGA"> F  </i>
   </separator>
   <separator name="electronic convergence" >
    <i type="int" name="NELM">   600</i>
    <i type="int" name="NELMDL">     0</i>
    <i type="int" name="NELMIN">     2</i>
    <i name="ENINI">    500.00000000</i>
    <separator name="electronic convergence detail" >
     <i type="logical" name="LDIAG"> T  </i>
     <i type="logical" name="LSUBROT"> F  </i>
     <i name="WEIMIN">      0.00000000</i>
     <i name="EBREAK">      0.00000003</i>
     <i name="DEPER">      0.30000000</i>
     <i type="int" name="NRMM">     4</i>
     <i name="TIME">      0.40000000</i>
    </separator>
   </separator>
   <separator name="electronic mixer" >
    <i name="AMIX">      0.40000000</i>
    <i name="BMIX">      0.01000000</i>
    <i name="AMIN">      0.01000000</i>
    <i name="AMIX_MAG">      1.60000000</i>
    <i name="BMIX_MAG">      0.01000000</i>
    <separator name="electronic mixer details" >
     <i type="int" name="IMIX">     4</i>
     <i type="logical" name="MIXFIRST"> F  </i>
     <i type="int" name="MAXMIX">   -45</i>
     <i name="WC">    100.00000000</i>
     <i type="int" name="INIMIX">     1</i>
     <i type="int" name="MIXPRE">     1</i>
     <i type="int" name="MREMOVE">     5</i>
    </separator>
   </separator>
   <separator name="electronic dipolcorrection" >
    <i type="logical" name="LDIPOL"> T  </i>
    <i type="logical" name="LMONO"> F  </i>
    <i type="int" name="IDIPOL">     3</i>
    <i name="EPSILON">      1.00000000</i>
    <v name="DIPOL">   -100.00000000   -100.00000000   -100.00000000</v>
    <i name="EFIELD">      0.00000000</i>
   </separator>
  </separator>
  <separator name="grids" >
   <i type="int" name="NGX">   100</i>
   <i type="int" name="NGY">   100</i>
   <i type="int" name="NGZ">   350</i>
   <i type="int" name="NGXF">   200</i>
   <i type="int" name="NGYF">   200</i>
   <i type="int" name="NGZF">   700</i>
   <i type="logical" name="ADDGRID"> F  </i>
  </separator>
  <separator name="ionic" >
   <i type="int" name="NSW">     0</i>
   <i type="int" name="IBRION">    -1</i>
   <i type="int" name="MDALGO">     0</i>
   <i type="int" name="ISIF">     2</i>
   <i name="PSTRESS">      0.00000000</i>
   <i name="EDIFFG">      0.00100000</i>
   <i type="int" name="NFREE">     0</i>
   <i name="POTIM">      0.50000000</i>
   <i name="SMASS">     -3.00000000</i>
   <i name="SCALEE">      1.00000000</i>
  </separator>
  <separator name="ionic md" >
   <i name="TEBEG">      0.00010000</i>
   <i name="TEEND">      0.00010000</i>
   <i type="int" name="NBLOCK">     1</i>
   <i type="int" name="KBLOCK">     1</i>
   <i type="int" name="NPACO">   256</i>
   <i name="APACO">     16.00000000</i>
  </separator>
  <separator name="symmetry" >
   <i type="int" name="ISYM">     0</i>
   <i name="SYMPREC">      0.00001000</i>
  </separator>
  <separator name="dos" >
   <i type="int" name="LORBIT">     0</i>
   <v name="RWIGS">     -1.00000000     -1.00000000     -1.00000000     -1.00000000     -1.00000000</v>
   <i type="int" name="NEDOS">   301</i>
   <i name="EMIN">     10.00000000</i>
   <i name="EMAX">    -10.00000000</i>
   <i name="EFERMI">      0.00000000</i>
  </separator>
  <separator name="writing" >
   <i type="int" name="NWRITE">     2</i>
   <i type="logical" name="LWAVE"> F  </i>
   <i type="logical" name="LDOWNSAMPLE"> F  </i>
   <i type="logical" name="LCHARG"> T  </i>
   <i type="logical" name="LPARD"> F  </i>
   <i type="logical" name="LVTOT"> T  </i>
   <i type="logical" name="LVHAR"> F  </i>
   <i type="logical" name="LELF"> F  </i>
   <i type="logical" name="LOPTICS"> F  </i>
   <v name="STM">      0.00000000      0.00000000      0.00000000      0.00000000      0.00000000      0.00000000      0.00000000</v>
  </separator>
  <separator name="performance" >
   <i type="int" name="NPAR">     4</i>
   <i type="int" name="NSIM">     4</i>
   <i type="int" name="NBLK">    -1</i>
   <i type="logical" name="LPLANE"> T  </i>
   <i type="logical" name="LSCALAPACK"> T  </i>
   <i type="logical" name="LSCAAWARE"> F  </i>
   <i type="logical" name="LSCALU"> F  </i>
   <i type="logical" name="LASYNC"> F  </i>
   <i type="logical" name="LORBITALREAL"> F  </i>
  </separator>
  <separator name="miscellaneous" >
   <i type="int" name="IDIOT">     3</i>
   <i type="int" name="PHON_NSTRUCT">    -1</i>
   <i type="logical" name="LMUSIC"> F  </i>
   <v name="POMASS">      1.00000000     12.01100000     14.00100000    126.90400000    207.20000000</v>
   <v name="DARWINR">      0.00000000      0.00000000      0.00000000      0.00000000      0.00000000</v>
   <v name="DARWINV">      1.00000000      1.00000000      1.00000000      1.00000000      1.00000000</v>
   <i type="logical" name="LCORR"> T  </i>
  </separator>
  <i type="logical" name="GGA_COMPAT"> F  </i>
  <i type="logical" name="LBERRY"> F  </i>
  <i type="int" name="ICORELEVEL">     0</i>
  <i type="logical" name="LDAU"> F  </i>
  <i type="int" name="I_CONSTRAINED_M">     0</i>
  <separator name="electronic exchange-correlation" >
   <i type="string" name="GGA">--</i>
   <i type="int" name="VOSKOWN">     0</i>
   <i type="logical" name="LHFCALC"> F  </i>
   <i type="string" name="PRECFOCK"></i>
   <i type="logical" name="LSYMGRAD"> F  </i>
   <i type="logical" name="LHFONE"> F  </i>
   <i type="logical" name="LRHFCALC"> F  </i>
   <i type="logical" name="LTHOMAS"> F  </i>
   <i type="logical" name="LMODELHF"> F  </i>
   <i type="logical" name="LFOCKACE"> F  </i>
   <i name="ENCUT4O">     -1.00000000</i>
   <i type="int" name="EXXOEP">     0</i>
   <i type="int" name="FOURORBIT">     0</i>
   <i name="AEXX">      0.00000000</i>
   <i name="HFALPHA">      0.00000000</i>
   <i name="MCALPHA">      0.00000000</i>
   <i name="ALDAX">      1.00000000</i>
   <i name="AGGAX">      1.00000000</i>
   <i name="ALDAC">      1.00000000</i>
   <i name="AGGAC">      1.00000000</i>
   <i type="int" name="NKREDX">     1</i>
   <i type="int" name="NKREDY">     1</i>
   <i type="int" name="NKREDZ">     1</i>
   <i type="logical" name="SHIFTRED"> F  </i>
   <i type="logical" name="ODDONLY"> F  </i>
   <i type="logical" name="EVENONLY"> F  </i>
   <i type="int" name="LMAXFOCK">     0</i>
   <i type="int" name="NMAXFOCKAE">     0</i>
   <i type="logical" name="LFOCKAEDFT"> F  </i>
   <i name="HFSCREEN">      0.00000000</i>
   <i name="HFSCREENC">      0.00000000</i>
   <i type="int" name="NBANDSGWLOW">     0</i>
  </separator>
  <separator name="vdW DFT" >
   <i type="logical" name="LUSE_VDW"> F  </i>
   <i name="Zab_VDW">     -0.84910000</i>
   <i name="PARAM1">      0.12340000</i>
   <i name="PARAM2">      1.00000000</i>
   <i name="PARAM3">      0.00000000</i>
  </separator>
  <separator name="model GW" >
   <i type="int" name="MODEL_GW">     0</i>
   <i name="MODEL_EPS0">     37.63423484</i>
   <i name="MODEL_ALPHA">      1.00000000</i>
  </separator>
  <separator name="linear response parameters" >
   <i type="logical" name="LEPSILON"> F  </i>
   <i type="logical" name="LRPA"> F  </i>
   <i type="logical" name="LNABLA"> F  </i>
   <i type="logical" name="LVEL"> F  </i>
   <i type="int" name="KINTER">     0</i>
   <i name="CSHIFT">      0.10000000</i>
   <i name="OMEGAMAX">     -1.00000000</i>
   <i name="DEG_THRESHOLD">      0.00200000</i>
   <i name="RTIME">     -0.10000000</i>
   <i name="WPLASMAI">      0.00000000</i>
   <v name="DFIELD">      0.00000000      0.00000000      0.00000000</v>
   <v name="WPLASMA">      0.00000000      0.00000000      0.00000000      0.00000000      0.00000000      0.00000000      0.00000000      0.00000000      0.00000000</v>
  </separator>
  <separator name="orbital magnetization" >
   <i type="logical" name="NUCIND"> F  </i>
   <v name="MAGPOS">      0.00000000      0.00000000      0.00000000</v>
   <i type="logical" name="LNICSALL"> T  </i>
   <i type="logical" name="ORBITALMAG"> F  </i>
   <i type="logical" name="LMAGBLOCH"> F  </i>
   <i type="logical" name="LCHIMAG"> F  </i>
   <i type="logical" name="LGAUGE"> T  </i>
   <i type="int" name="MAGATOM">     0</i>
   <v name="MAGDIPOL">      0.00000000      0.00000000      0.00000000</v>
   <v name="AVECCONST">      0.00000000      0.00000000      0.00000000</v>
  </separator>
  <separator name="response functions" >
   <i type="logical" name="LFINITE_TEMPERATURE"> F  </i>
   <i type="logical" name="LADDER"> F  </i>
   <i type="logical" name="LRPAFORCE"> F  </i>
   <i type="logical" name="LFXC"> F  </i>
   <i type="logical" name="LHARTREE"> T  </i>
   <i type="int" name="IBSE">     0</i>
   <v type="int" name="KPOINT">    -1     0     0     0</v>
   <i type="logical" name="LTCTC"> F  </i>
   <i type="logical" name="LTCTE"> F  </i>
   <i type="logical" name="LTETE"> F  </i>
   <i type="logical" name="LTRIPLET"> F  </i>
   <i type="logical" name="LFXCEPS"> F  </i>
   <i type="logical" name="LFXHEG"> F  </i>
   <i type="int" name="NATURALO">     2</i>
   <i type="logical" name="LHOLEGF"> F  </i>
   <i type="logical" name="L2ORDER"> F  </i>
   <i type="logical" name="LDMP1"> F  </i>
   <i type="logical" name="LMP2LT"> F  </i>
   <i type="logical" name="LSMP2LT"> F  </i>
   <i type="logical" name="LGWLF"> F  </i>
   <i name="ENCUTGW">     -2.00000000</i>
   <i name="ENCUTGWSOFT">     -2.00000000</i>
   <i name="ENCUTLF">     -1.00000000</i>
   <i type="logical" name="LESF_SPLINES"> F  </i>
   <i type="int" name="LMAXMP2">    -1</i>
   <i name="SCISSOR">      0.00000000</i>
   <i type="int" name="NOMEGA">     0</i>
   <i type="int" name="NOMEGAR">     0</i>
   <i type="int" name="NBANDSGW">    -1</i>
   <i type="int" name="NBANDSO">    -1</i>
   <i type="int" name="NBANDSV">    -1</i>
   <i type="int" name="NELM">   600</i>
   <i type="int" name="NELMHF">     1</i>
   <i type="int" name="DIM">     3</i>
   <i type="int" name="IESPILON">     4</i>
   <i type="int" name="ANTIRES">     0</i>
   <i name="OMEGAMAX">    -30.00000000</i>
   <i name="OMEGAMIN">    -30.00000000</i>
   <i name="OMEGATL">   -200.00000000</i>
   <i type="int" name="OMEGAGRID">     0</i>
   <i name="CSHIFT">     -0.10000000</i>
   <i type="logical" name="LSELFENERGY"> F  </i>
   <i type="logical" name="LSPECTRAL"> F  </i>
   <i type="logical" name="LSPECTRALGW"> F  </i>
   <i type="logical" name="LSINGLES"> F  </i>
   <i type="logical" name="LFERMIGW"> F  </i>
   <i type="logical" name="ODDONLYGW"> F  </i>
   <i type="logical" name="EVENONLYGW"> F  </i>
   <i type="int" name="NKREDLFX">     1</i>
   <i type="int" name="NKREDLFY">     1</i>
   <i type="int" name="NKREDLFZ">     1</i>
   <i type="int" name="MAXMEM">  2800</i>
   <i type="int" name="TELESCOPE">     0</i>
   <i type="int" name="NTAUPAR">    -1</i>
   <i type="int" name="NOMEGAPAR">    -1</i>
   <i name="DAMP_NEWTON">      0.80000001</i>
   <i name="LAMBDA">      1.00000000</i>
  </separator>
  <separator name="External order field" >
   <i name="OFIELD_KAPPA">      0.00000000</i>
   <v name="OFIELD_K">      0.00000000      0.00000000      0.00000000</v>
   <i name="OFIELD_Q6_NEAR">      0.00000000</i>
   <i name="OFIELD_Q6_FAR">      0.00000000</i>
   <i name="OFIELD_A">      0.00000000</i>
  </separator>
 </parameters>
 <atominfo>
  <atoms>     325 </atoms>
  <types>       5 </types>
  <array name="atoms" >
   <dimension dim="1">ion</dimension>
   <field type="string">element</field>
   <field type="int">atomtype</field>
   <set>
    <rc><c>H </c><c>   1</c></rc>
    <rc><c>H </c><c>   1</c></rc>
    <rc><c>H </c><c>   1</c></rc>
    <rc><c>H </c><c>   1</c></rc>
    <rc><c>H </c><c>   1</c></rc>
    <rc><c>H </c><c>   1</c></rc>
    <rc><c>H </c><c>   1</c></rc>
    <rc><c>H </c><c>   1</c></rc>
    <rc><c>H </c><c>   1</c></rc>
    <rc><c>H </c><c>   1</c></rc>
    <rc><c>H </c><c>   1</c></rc>
    <rc><c>H </c><c>   1</c></rc>
    <rc><c>H </c><c>   1</c></rc>
    <rc><c>H </c><c>   1</c></rc>
    <rc><c>H </c><c>   1</c></rc>
    <rc><c>H </c><c>   1</c></rc>
    <rc><c>H </c><c>   1</c></rc>
    <rc><c>H </c><c>   1</c></rc>
    <rc><c>H </c><c>   1</c></rc>
    <rc><c>H </c><c>   1</c></rc>
    <rc><c>H </c><c>   1</c></rc>
    <rc><c>H </c><c>   1</c></rc>
    <rc><c>H </c><c>   1</c></rc>
    <rc><c>H </c><c>   1</c></rc>
    <rc><c>H </c><c>   1</c></rc>
    <rc><c>H </c><c>   1</c></rc>
    <rc><c>H </c><c>   1</c></rc>
    <rc><c>H </c><c>   1</c></rc>
    <rc><c>H </c><c>   1</c></rc>
    <rc><c>H </c><c>   1</c></rc>
    <rc><c>H </c><c>   1</c></rc>
    <rc><c>H </c><c>   1</c></rc>
    <rc><c>H </c><c>   1</c></rc>
    <rc><c>H </c><c>   1</c></rc>
    <rc><c>H </c><c>   1</c></rc>
    <rc><c>H </c><c>   1</c></rc>
    <rc><c>H </c><c>   1</c></rc>
    <rc><c>H </c><c>   1</c></rc>
    <rc><c>H </c><c>   1</c></rc>
    <rc><c>H </c><c>   1</c></rc>
    <rc><c>H </c><c>   1</c></rc>
    <rc><c>H </c><c>   1</c></rc>
    <rc><c>H </c><c>   1</c></rc>
    <rc><c>H </c><c>   1</c></rc>
    <rc><c>H </c><c>   1</c></rc>
    <rc><c>H </c><c>   1</c></rc>
    <rc><c>H </c><c>   1</c></rc>
    <rc><c>H </c><c>   1</c></rc>
    <rc><c>H </c><c>   1</c></rc>
    <rc><c>H </c><c>   1</c></rc>
    <rc><c>H </c><c>   1</c></rc>
    <rc><c>H </c><c>   1</c></rc>
    <rc><c>H </c><c>   1</c></rc>
    <rc><c>H </c><c>   1</c></rc>
    <rc><c>H </c><c>   1</c></rc>
    <rc><c>H </c><c>   1</c></rc>
    <rc><c>H </c><c>   1</c></rc>
    <rc><c>H </c><c>   1</c></rc>
    <rc><c>H </c><c>   1</c></rc>
    <rc><c>H </c><c>   1</c></rc>
    <rc><c>H </c><c>   1</c></rc>
    <rc><c>H </c><c>   1</c></rc>
    <rc><c>H </c><c>   1</c></rc>
    <rc><c>H </c><c>   1</c></rc>
    <rc><c>H </c><c>   1</c></rc>
    <rc><c>H </c><c>   1</c></rc>
    <rc><c>H </c><c>   1</c></rc>
    <rc><c>H </c><c>   1</c></rc>
    <rc><c>H </c><c>   1</c></rc>
    <rc><c>H </c><c>   1</c></rc>
    <rc><c>H </c><c>   1</c></rc>
    <rc><c>H </c><c>   1</c></rc>
    <rc><c>H </c><c>   1</c></rc>
    <rc><c>H </c><c>   1</c></rc>
    <rc><c>H </c><c>   1</c></rc>
    <rc><c>H </c><c>   1</c></rc>
    <rc><c>H </c><c>   1</c></rc>
    <rc><c>H </c><c>   1</c></rc>
    <rc><c>H </c><c>   1</c></rc>
    <rc><c>H </c><c>   1</c></rc>
    <rc><c>H </c><c>   1</c></rc>
    <rc><c>H </c><c>   1</c></rc>
    <rc><c>H </c><c>   1</c></rc>
    <rc><c>H </c><c>   1</c></rc>
    <rc><c>H </c><c>   1</c></rc>
    <rc><c>H </c><c>   1</c></rc>
    <rc><c>H </c><c>   1</c></rc>
    <rc><c>H </c><c>   1</c></rc>
    <rc><c>H </c><c>   1</c></rc>
    <rc><c>H </c><c>   1</c></rc>
    <rc><c>H </c><c>   1</c></rc>
    <rc><c>H </c><c>   1</c></rc>
    <rc><c>H </c><c>   1</c></rc>
    <rc><c>H </c><c>   1</c></rc>
    <rc><c>H </c><c>   1</c></rc>
    <rc><c>H </c><c>   1</c></rc>
    <rc><c>H </c><c>   1</c></rc>
    <rc><c>H </c><c>   1</c></rc>
    <rc><c>H </c><c>   1</c></rc>
    <rc><c>H </c><c>   1</c></rc>
    <rc><c>H </c><c>   1</c></rc>
    <rc><c>H </c><c>   1</c></rc>
    <rc><c>H </c><c>   1</c></rc>
    <rc><c>H </c><c>   1</c></rc>
    <rc><c>H </c><c>   1</c></rc>
    <rc><c>H </c><c>   1</c></rc>
    <rc><c>H </c><c>   1</c></rc>
    <rc><c>H </c><c>   1</c></rc>
    <rc><c>H </c><c>   1</c></rc>
    <rc><c>H </c><c>   1</c></rc>
    <rc><c>H </c><c>   1</c></rc>
    <rc><c>H </c><c>   1</c></rc>
    <rc><c>H </c><c>   1</c></rc>
    <rc><c>H </c><c>   1</c></rc>
    <rc><c>H </c><c>   1</c></rc>
    <rc><c>H </c><c>   1</c></rc>
    <rc><c>H </c><c>   1</c></rc>
    <rc><c>H </c><c>   1</c></rc>
    <rc><c>H </c><c>   1</c></rc>
    <rc><c>H </c><c>   1</c></rc>
    <rc><c>H </c><c>   1</c></rc>
    <rc><c>H </c><c>   1</c></rc>
    <rc><c>H </c><c>   1</c></rc>
    <rc><c>H </c><c>   1</c></rc>
    <rc><c>H </c><c>   1</c></rc>
    <rc><c>H </c><c>   1</c></rc>
    <rc><c>H </c><c>   1</c></rc>
    <rc><c>H </c><c>   1</c></rc>
    <rc><c>H </c><c>   1</c></rc>
    <rc><c>H </c><c>   1</c></rc>
    <rc><c>H </c><c>   1</c></rc>
    <rc><c>H </c><c>   1</c></rc>
    <rc><c>H </c><c>   1</c></rc>
    <rc><c>H </c><c>   1</c></rc>
    <rc><c>H </c><c>   1</c></rc>
    <rc><c>H </c><c>   1</c></rc>
    <rc><c>H </c><c>   1</c></rc>
    <rc><c>H </c><c>   1</c></rc>
    <rc><c>H </c><c>   1</c></rc>
    <rc><c>H </c><c>   1</c></rc>
    <rc><c>H </c><c>   1</c></rc>
    <rc><c>H </c><c>   1</c></rc>
    <rc><c>H </c><c>   1</c></rc>
    <rc><c>C </c><c>   2</c></rc>
    <rc><c>C </c><c>   2</c></rc>
    <rc><c>C </c><c>   2</c></rc>
    <rc><c>C </c><c>   2</c></rc>
    <rc><c>C </c><c>   2</c></rc>
    <rc><c>C </c><c>   2</c></rc>
    <rc><c>C </c><c>   2</c></rc>
    <rc><c>C </c><c>   2</c></rc>
    <rc><c>C </c><c>   2</c></rc>
    <rc><c>C </c><c>   2</c></rc>
    <rc><c>C </c><c>   2</c></rc>
    <rc><c>C </c><c>   2</c></rc>
    <rc><c>C </c><c>   2</c></rc>
    <rc><c>C </c><c>   2</c></rc>
    <rc><c>C </c><c>   2</c></rc>
    <rc><c>C </c><c>   2</c></rc>
    <rc><c>C </c><c>   2</c></rc>
    <rc><c>C </c><c>   2</c></rc>
    <rc><c>C </c><c>   2</c></rc>
    <rc><c>C </c><c>   2</c></rc>
    <rc><c>C </c><c>   2</c></rc>
    <rc><c>C </c><c>   2</c></rc>
    <rc><c>C </c><c>   2</c></rc>
    <rc><c>C </c><c>   2</c></rc>
    <rc><c>C </c><c>   2</c></rc>
    <rc><c>C </c><c>   2</c></rc>
    <rc><c>C </c><c>   2</c></rc>
    <rc><c>C </c><c>   2</c></rc>
    <rc><c>C </c><c>   2</c></rc>
    <rc><c>C </c><c>   2</c></rc>
    <rc><c>C </c><c>   2</c></rc>
    <rc><c>C </c><c>   2</c></rc>
    <rc><c>C </c><c>   2</c></rc>
    <rc><c>C </c><c>   2</c></rc>
    <rc><c>C </c><c>   2</c></rc>
    <rc><c>C </c><c>   2</c></rc>
    <rc><c>C </c><c>   2</c></rc>
    <rc><c>C </c><c>   2</c></rc>
    <rc><c>C </c><c>   2</c></rc>
    <rc><c>N </c><c>   3</c></rc>
    <rc><c>N </c><c>   3</c></rc>
    <rc><c>N </c><c>   3</c></rc>
    <rc><c>N </c><c>   3</c></rc>
    <rc><c>N </c><c>   3</c></rc>
    <rc><c>N </c><c>   3</c></rc>
    <rc><c>N </c><c>   3</c></rc>
    <rc><c>N </c><c>   3</c></rc>
    <rc><c>N </c><c>   3</c></rc>
    <rc><c>N </c><c>   3</c></rc>
    <rc><c>N </c><c>   3</c></rc>
    <rc><c>N </c><c>   3</c></rc>
    <rc><c>N </c><c>   3</c></rc>
    <rc><c>N </c><c>   3</c></rc>
    <rc><c>N </c><c>   3</c></rc>
    <rc><c>N </c><c>   3</c></rc>
    <rc><c>N </c><c>   3</c></rc>
    <rc><c>N </c><c>   3</c></rc>
    <rc><c>N </c><c>   3</c></rc>
    <rc><c>N </c><c>   3</c></rc>
    <rc><c>N </c><c>   3</c></rc>
    <rc><c>N </c><c>   3</c></rc>
    <rc><c>N </c><c>   3</c></rc>
    <rc><c>N </c><c>   3</c></rc>
    <rc><c>N </c><c>   3</c></rc>
    <rc><c>N </c><c>   3</c></rc>
    <rc><c>N </c><c>   3</c></rc>
    <rc><c>N </c><c>   3</c></rc>
    <rc><c>N </c><c>   3</c></rc>
    <rc><c>N </c><c>   3</c></rc>
    <rc><c>N </c><c>   3</c></rc>
    <rc><c>N </c><c>   3</c></rc>
    <rc><c>N </c><c>   3</c></rc>
    <rc><c>N </c><c>   3</c></rc>
    <rc><c>N </c><c>   3</c></rc>
    <rc><c>N </c><c>   3</c></rc>
    <rc><c>N </c><c>   3</c></rc>
    <rc><c>N </c><c>   3</c></rc>
    <rc><c>N </c><c>   3</c></rc>
    <rc><c>N </c><c>   3</c></rc>
    <rc><c>N </c><c>   3</c></rc>
    <rc><c>N </c><c>   3</c></rc>
    <rc><c>N </c><c>   3</c></rc>
    <rc><c>N </c><c>   3</c></rc>
    <rc><c>N </c><c>   3</c></rc>
    <rc><c>N </c><c>   3</c></rc>
    <rc><c>N </c><c>   3</c></rc>
    <rc><c>I </c><c>   4</c></rc>
    <rc><c>I </c><c>   4</c></rc>
    <rc><c>I </c><c>   4</c></rc>
    <rc><c>I </c><c>   4</c></rc>
    <rc><c>I </c><c>   4</c></rc>
    <rc><c>I </c><c>   4</c></rc>
    <rc><c>I </c><c>   4</c></rc>
    <rc><c>I </c><c>   4</c></rc>
    <rc><c>I </c><c>   4</c></rc>
    <rc><c>I </c><c>   4</c></rc>
    <rc><c>I </c><c>   4</c></rc>
    <rc><c>I </c><c>   4</c></rc>
    <rc><c>I </c><c>   4</c></rc>
    <rc><c>I </c><c>   4</c></rc>
    <rc><c>I </c><c>   4</c></rc>
    <rc><c>I </c><c>   4</c></rc>
    <rc><c>I </c><c>   4</c></rc>
    <rc><c>I </c><c>   4</c></rc>
    <rc><c>I </c><c>   4</c></rc>
    <rc><c>I </c><c>   4</c></rc>
    <rc><c>I </c><c>   4</c></rc>
    <rc><c>I </c><c>   4</c></rc>
    <rc><c>I </c><c>   4</c></rc>
    <rc><c>I </c><c>   4</c></rc>
    <rc><c>I </c><c>   4</c></rc>
    <rc><c>I </c><c>   4</c></rc>
    <rc><c>I </c><c>   4</c></rc>
    <rc><c>I </c><c>   4</c></rc>
    <rc><c>I </c><c>   4</c></rc>
    <rc><c>I </c><c>   4</c></rc>
    <rc><c>I </c><c>   4</c></rc>
    <rc><c>I </c><c>   4</c></rc>
    <rc><c>I </c><c>   4</c></rc>
    <rc><c>I </c><c>   4</c></rc>
    <rc><c>I </c><c>   4</c></rc>
    <rc><c>I </c><c>   4</c></rc>
    <rc><c>I </c><c>   4</c></rc>
    <rc><c>I </c><c>   4</c></rc>
    <rc><c>I </c><c>   4</c></rc>
    <rc><c>I </c><c>   4</c></rc>
    <rc><c>I </c><c>   4</c></rc>
    <rc><c>I </c><c>   4</c></rc>
    <rc><c>I </c><c>   4</c></rc>
    <rc><c>I </c><c>   4</c></rc>
    <rc><c>I </c><c>   4</c></rc>
    <rc><c>I </c><c>   4</c></rc>
    <rc><c>I </c><c>   4</c></rc>
    <rc><c>I </c><c>   4</c></rc>
    <rc><c>I </c><c>   4</c></rc>
    <rc><c>I </c><c>   4</c></rc>
    <rc><c>I </c><c>   4</c></rc>
    <rc><c>I </c><c>   4</c></rc>
    <rc><c>I </c><c>   4</c></rc>
    <rc><c>I </c><c>   4</c></rc>
    <rc><c>I </c><c>   4</c></rc>
    <rc><c>I </c><c>   4</c></rc>
    <rc><c>I </c><c>   4</c></rc>
    <rc><c>I </c><c>   4</c></rc>
    <rc><c>I </c><c>   4</c></rc>
    <rc><c>I </c><c>   4</c></rc>
    <rc><c>I </c><c>   4</c></rc>
    <rc><c>I </c><c>   4</c></rc>
    <rc><c>I </c><c>   4</c></rc>
    <rc><c>I </c><c>   4</c></rc>
    <rc><c>I </c><c>   4</c></rc>
    <rc><c>I </c><c>   4</c></rc>
    <rc><c>I </c><c>   4</c></rc>
    <rc><c>I </c><c>   4</c></rc>
    <rc><c>I </c><c>   4</c></rc>
    <rc><c>I </c><c>   4</c></rc>
    <rc><c>I </c><c>   4</c></rc>
    <rc><c>I </c><c>   4</c></rc>
    <rc><c>Pb</c><c>   5</c></rc>
    <rc><c>Pb</c><c>   5</c></rc>
    <rc><c>Pb</c><c>   5</c></rc>
    <rc><c>Pb</c><c>   5</c></rc>
    <rc><c>Pb</c><c>   5</c></rc>
    <rc><c>Pb</c><c>   5</c></rc>
    <rc><c>Pb</c><c>   5</c></rc>
    <rc><c>Pb</c><c>   5</c></rc>
    <rc><c>Pb</c><c>   5</c></rc>
    <rc><c>Pb</c><c>   5</c></rc>
    <rc><c>Pb</c><c>   5</c></rc>
    <rc><c>Pb</c><c>   5</c></rc>
    <rc><c>Pb</c><c>   5</c></rc>
    <rc><c>Pb</c><c>   5</c></rc>
    <rc><c>Pb</c><c>   5</c></rc>
    <rc><c>Pb</c><c>   5</c></rc>
    <rc><c>Pb</c><c>   5</c></rc>
    <rc><c>Pb</c><c>   5</c></rc>
    <rc><c>Pb</c><c>   5</c></rc>
    <rc><c>Pb</c><c>   5</c></rc>
    <rc><c>Pb</c><c>   5</c></rc>
    <rc><c>Pb</c><c>   5</c></rc>
    <rc><c>Pb</c><c>   5</c></rc>
    <rc><c>Pb</c><c>   5</c></rc>
   </set>
  </array>
  <array name="atomtypes" >
   <dimension dim="1">type</dimension>
   <field type="int">atomspertype</field>
   <field type="string">element</field>
   <field>mass</field>
   <field>valence</field>
   <field type="string">pseudopotential</field>
   <set>
    <rc><c> 143</c><c>H </c><c>      1.00000000</c><c>      1.00000000</c><c>  PAW_PBE H 15Jun2001                   </c></rc>
    <rc><c>  39</c><c>C </c><c>     12.01100000</c><c>      4.00000000</c><c>  PAW_PBE C 08Apr2002                   </c></rc>
    <rc><c>  47</c><c>N </c><c>     14.00100000</c><c>      5.00000000</c><c>  PAW_PBE N 08Apr2002                   </c></rc>
    <rc><c>  72</c><c>I </c><c>    126.90400000</c><c>      7.00000000</c><c>  PAW_PBE I 08Apr2002                   </c></rc>
    <rc><c>  24</c><c>Pb</c><c>    207.20000000</c><c>      4.00000000</c><c>  PAW_PBE Pb 08Apr2002                  </c></rc>
   </set>
  </array>
 </atominfo>
 <structure name="initialpos" >
  <crystal>
   <varray name="basis" >
    <v>      18.06080055       0.00000000       0.00000000 </v>
    <v>      -0.00491865      18.06279945       0.00000000 </v>
    <v>       0.00000000       0.00000000      62.48749924 </v>
   </varray>
   <i name="volume">  20385.21054034 </i>
   <varray name="rec_basis" >
    <v>       0.05536853       0.00001508      -0.00000000 </v>
    <v>       0.00000000       0.05536240       0.00000000 </v>
    <v>       0.00000000      -0.00000000       0.01600320 </v>
   </varray>
  </crystal>
  <varray name="positions" >
   <v>       0.46901673       0.33893285       0.56479784 </v>
   <v>       0.44032324       0.82573712       0.57464918 </v>
   <v>       0.92334493       0.27044903       0.57842111 </v>
   <v>       0.93719948       0.81860842       0.57290103 </v>
   <v>       0.31975460       0.07875806       0.57002313 </v>
   <v>       0.34872261       0.54286704       0.55780859 </v>
   <v>       0.80446816       0.09231877       0.56701130 </v>
   <v>       0.10784065       0.25000356       0.55683897 </v>
   <v>       0.07537811       0.67394573       0.57630100 </v>
   <v>       0.54722723       0.15336179       0.56097579 </v>
   <v>       0.50397455       0.64418620       0.55778942 </v>
   <v>       0.37372938       0.01534237       0.55602869 </v>
   <v>       0.29768052       0.62461282       0.55251273 </v>
   <v>       0.87641342       0.03377190       0.55762630 </v>
   <v>       0.05849156       0.27383170       0.57963815 </v>
   <v>       0.98747328       0.69713163       0.58568465 </v>
   <v>       0.57217753       0.24429032       0.56777622 </v>
   <v>       0.44923528       0.68823247       0.57661167 </v>
   <v>       0.27177694       0.43718686       0.57247369 </v>
   <v>       0.18574278       0.05876965       0.57197225 </v>
   <v>       0.68288732       0.03148823       0.57452159 </v>
   <v>       0.38359254       0.30213206       0.55619950 </v>
   <v>       0.49789501       0.86986644       0.55623778 </v>
   <v>       0.88037445       0.23903347       0.55531651 </v>
   <v>       0.98982888       0.86710211       0.55429769 </v>
   <v>       0.17549150       0.44701355       0.56938000 </v>
   <v>       0.14920686       0.98164005       0.55908143 </v>
   <v>       0.67833696       0.93660156       0.56755077 </v>
   <v>       0.42839451       0.18485810       0.55187540 </v>
   <v>       0.54495777       0.75787665       0.54281530 </v>
   <v>       0.99684042       0.22403206       0.53756052 </v>
   <v>       0.08361353       0.77734068       0.55396627 </v>
   <v>       0.18343353       0.56581925       0.55659124 </v>
   <v>       0.26789168       0.94132702       0.54764140 </v>
   <v>       0.79831932       0.93073708       0.55636854 </v>
   <v>       0.44763174       0.30157736       0.67269821 </v>
   <v>       0.44917503       0.80842628       0.67336430 </v>
   <v>       0.94244653       0.28017552       0.67449361 </v>
   <v>       0.92241737       0.73154733       0.66965787 </v>
   <v>       0.30237996       0.05255569       0.67253564 </v>
   <v>       0.29472821       0.55719390       0.67459391 </v>
   <v>       0.80420764       0.05377194       0.67508717 </v>
   <v>       0.84224837       0.47024686       0.66298362 </v>
   <v>       0.08966047       0.17153848       0.64881092 </v>
   <v>       0.11394062       0.71585903       0.65251021 </v>
   <v>       0.57983161       0.16959840       0.64971039 </v>
   <v>       0.56948778       0.66816813       0.64875390 </v>
   <v>       0.18513741       0.41174288       0.64810119 </v>
   <v>       0.16808362       0.92560902       0.64761281 </v>
   <v>       0.64181758       0.47439237       0.65605401 </v>
   <v>       0.67478379       0.92101977       0.65071957 </v>
   <v>       0.05244420       0.18672614       0.67408301 </v>
   <v>       0.04724473       0.67043774       0.66770411 </v>
   <v>       0.55013243       0.20126371       0.67448647 </v>
   <v>       0.54284583       0.69851292       0.67398197 </v>
   <v>       0.20185984       0.44676793       0.67365207 </v>
   <v>       0.19706654       0.95222485       0.67300235 </v>
   <v>       0.71339174       0.41683704       0.66460174 </v>
   <v>       0.70209636       0.95144833       0.67590612 </v>
   <v>       0.41941319       0.32382038       0.64696491 </v>
   <v>       0.42447584       0.83679053       0.64761793 </v>
   <v>       0.92256913       0.31776804       0.64959892 </v>
   <v>       0.91229890       0.81286477       0.65537333 </v>
   <v>       0.33023714       0.07828537       0.64690783 </v>
   <v>       0.32552150       0.58512040       0.64947585 </v>
   <v>       0.83027550       0.07983620       0.64917989 </v>
   <v>       0.84995211       0.55718282       0.65108652 </v>
   <v>       0.01244250       0.25353283       0.63174043 </v>
   <v>       0.03418335       0.81161869       0.64280991 </v>
   <v>       0.50074475       0.24316713       0.63033048 </v>
   <v>       0.49681940       0.75138290       0.63050428 </v>
   <v>       0.24780624       0.00102754       0.62961671 </v>
   <v>       0.26214478       0.49449362       0.63116213 </v>
   <v>       0.75251791       0.99863259       0.63224908 </v>
   <v>       0.72288333       0.57037332       0.64613247 </v>
   <v>       0.44874502       0.30128397       0.76888902 </v>
   <v>       0.44874501       0.80128391       0.76888902 </v>
   <v>       0.94874497       0.30128397       0.76888902 </v>
   <v>       0.94874501       0.80128391       0.76888902 </v>
   <v>       0.30127600       0.05129450       0.76887296 </v>
   <v>       0.30127601       0.55129450       0.76887296 </v>
   <v>       0.80127594       0.05129450       0.76887296 </v>
   <v>       0.80127598       0.55129450       0.76887296 </v>
   <v>       0.07877100       0.17118050       0.74344197 </v>
   <v>       0.07877101       0.67118045       0.74344197 </v>
   <v>       0.57877100       0.17118050       0.74344197 </v>
   <v>       0.57877099       0.67118045       0.74344197 </v>
   <v>       0.17119950       0.42117448       0.74342103 </v>
   <v>       0.17119950       0.92117451       0.74342103 </v>
   <v>       0.67119951       0.42117448       0.74342103 </v>
   <v>       0.67119950       0.92117451       0.74342103 </v>
   <v>       0.05125600       0.19871499       0.76888902 </v>
   <v>       0.05125600       0.69871493       0.76888902 </v>
   <v>       0.55125603       0.19871499       0.76888902 </v>
   <v>       0.55125602       0.69871493       0.76888902 </v>
   <v>       0.19872349       0.44870397       0.76887205 </v>
   <v>       0.19872349       0.94870397       0.76887205 </v>
   <v>       0.69872352       0.44870397       0.76887205 </v>
   <v>       0.69872351       0.94870397       0.76887205 </v>
   <v>       0.42123152       0.32881747       0.74344197 </v>
   <v>       0.42123151       0.82881744       0.74344197 </v>
   <v>       0.92123147       0.32881747       0.74344197 </v>
   <v>       0.92123151       0.82881744       0.74344197 </v>
   <v>       0.32880050       0.07882500       0.74342103 </v>
   <v>       0.32880049       0.57882496       0.74342103 </v>
   <v>       0.82880048       0.07882500       0.74342103 </v>
   <v>       0.82880052       0.57882496       0.74342103 </v>
   <v>       0.00000350       0.25000148       0.72582199 </v>
   <v>       0.00000350       0.75000145       0.72582199 </v>
   <v>       0.50000351       0.25000148       0.72582199 </v>
   <v>       0.50000350       0.75000145       0.72582199 </v>
   <v>       0.25000050       0.00000000       0.72580398 </v>
   <v>       0.25000052       0.50000000       0.72580398 </v>
   <v>       0.75000050       0.00000000       0.72580398 </v>
   <v>       0.75000049       0.50000000       0.72580398 </v>
   <v>       0.72041369       0.44331438       0.53986604 </v>
   <v>       0.73943607       0.49472741       0.51658025 </v>
   <v>       0.66173975       0.55181915       0.55692908 </v>
   <v>       0.70845961       0.63779440       0.55564080 </v>
   <v>       0.85145428       0.50857514       0.56749314 </v>
   <v>       0.79137476       0.57756685       0.57748141 </v>
   <v>       0.87625842       0.56088631       0.53116575 </v>
   <v>       0.80653738       0.62262425       0.52174455 </v>
   <v>       0.87307102       0.46135002       0.51813330 </v>
   <v>       0.86175213       0.42365236       0.54378461 </v>
   <v>       0.87246891       0.32606074       0.51837779 </v>
   <v>       0.78396209       0.32334810       0.53010835 </v>
   <v>       0.63788903       0.55107481       0.51834293 </v>
   <v>       0.69252305       0.63266157       0.51441679 </v>
   <v>       0.61077513       0.63632652       0.52966783 </v>
   <v>       0.75956008       0.46601539       0.59577114 </v>
   <v>       0.75431413       0.41201295       0.57230392 </v>
   <v>       0.68645318       0.48106527       0.57798224 </v>
   <v>       0.81831086       0.69117848       0.55789522 </v>
   <v>       0.89707111       0.69143275       0.54136884 </v>
   <v>       0.89511207       0.63123149       0.56378482 </v>
   <v>       0.82063426       0.38151747       0.48464106 </v>
   <v>       0.78664394       0.29256237       0.49141106 </v>
   <v>       0.66256905       0.30354405       0.51774778 </v>
   <v>       0.73293845       0.46277002       0.47088672 </v>
   <v>       0.53574523       0.35471762       0.51671877 </v>
   <v>       0.60482545       0.51362936       0.46933722 </v>
   <v>       0.50631708       0.46156153       0.49274660 </v>
   <v>       0.99440907       0.24242123       0.55427389 </v>
   <v>       0.03338075       0.76873223       0.56351548 </v>
   <v>       0.46592891       0.22832509       0.55737699 </v>
   <v>       0.50354166       0.75740543       0.55559855 </v>
   <v>       0.23493825       0.53567140       0.55987462 </v>
   <v>       0.26173395       0.99331677       0.55655755 </v>
   <v>       0.77706097       0.98397715       0.56217366 </v>
   <v>       0.00620074       0.24504029       0.64884615 </v>
   <v>       0.01387389       0.76711762       0.65325786 </v>
   <v>       0.49979977       0.24702717       0.64773777 </v>
   <v>       0.49638906       0.75221647       0.64797866 </v>
   <v>       0.25643792       0.49765583       0.64855465 </v>
   <v>       0.24922283       0.00181236       0.64703951 </v>
   <v>       0.74467246       0.51884107       0.65321696 </v>
   <v>       0.75291316       0.00042938       0.64971613 </v>
   <v>       0.49998898       0.24999498       0.74327702 </v>
   <v>       0.49998903       0.74999496       0.74327702 </v>
   <v>       0.99998898       0.24999498       0.74327702 </v>
   <v>       0.99998903       0.74999496       0.74327702 </v>
   <v>       0.25000050       0.00000100       0.74325596 </v>
   <v>       0.25000052       0.50000100       0.74325596 </v>
   <v>       0.75000050       0.00000100       0.74325596 </v>
   <v>       0.75000049       0.50000100       0.74325596 </v>
   <v>       0.70703025       0.37964663       0.49458189 </v>
   <v>       0.65028446       0.34946620       0.50710887 </v>
   <v>       0.68936991       0.43865646       0.48088775 </v>
   <v>       0.57884416       0.37834337       0.50656574 </v>
   <v>       0.61749571       0.46746806       0.48006581 </v>
   <v>       0.56196170       0.43783958       0.49305846 </v>
   <v>       0.76269625       0.47691051       0.53185381 </v>
   <v>       0.69753315       0.58631236       0.54688923 </v>
   <v>       0.79342247       0.52593946       0.56827754 </v>
   <v>       0.83051004       0.59687333       0.53599716 </v>
   <v>       0.83346784       0.43192317       0.52841752 </v>
   <v>       0.81883736       0.35499372       0.51892166 </v>
   <v>       0.65869201       0.60157465       0.52592459 </v>
   <v>       0.74526522       0.46777571       0.57872165 </v>
   <v>       0.86125695       0.65536975       0.55101322 </v>
   <v>       0.78549015       0.35136892       0.49637931 </v>
   <v>       0.05715249       0.25455684       0.56420532 </v>
   <v>       0.03072448       0.70884237       0.57543119 </v>
   <v>       0.53379282       0.20835781       0.56191433 </v>
   <v>       0.48370304       0.69317660       0.56355870 </v>
   <v>       0.43927429       0.29570731       0.55876508 </v>
   <v>       0.47675982       0.82123865       0.56197898 </v>
   <v>       0.92905613       0.25017439       0.56313760 </v>
   <v>       0.97987008       0.81803726       0.56209961 </v>
   <v>       0.22805242       0.46671807       0.56645113 </v>
   <v>       0.19497328       0.01270888       0.56276741 </v>
   <v>       0.70711008       0.98565256       0.56793287 </v>
   <v>       0.32134265       0.03226310       0.56070596 </v>
   <v>       0.29839868       0.56918516       0.55637324 </v>
   <v>       0.82233705       0.04078136       0.56277345 </v>
   <v>       0.05154618       0.19775836       0.65806125 </v>
   <v>       0.06057959       0.71307780       0.65773672 </v>
   <v>       0.54624627       0.20389182       0.65821942 </v>
   <v>       0.53789707       0.70312364       0.65786767 </v>
   <v>       0.21263388       0.44868026       0.65765754 </v>
   <v>       0.20213772       0.95773850       0.65680520 </v>
   <v>       0.69754676       0.46661105       0.65835409 </v>
   <v>       0.70798971       0.95473262       0.65971319 </v>
   <v>       0.45333327       0.29348986       0.65653170 </v>
   <v>       0.45428104       0.80206231       0.65716782 </v>
   <v>       0.95440342       0.28353623       0.65858503 </v>
   <v>       0.94550494       0.77067249       0.66010267 </v>
   <v>       0.29678459       0.04630826       0.65626267 </v>
   <v>       0.29448979       0.54948945       0.65841929 </v>
   <v>       0.79764907       0.04795800       0.65882159 </v>
   <v>       0.81670932       0.51473536       0.65599821 </v>
   <v>       0.04586250       0.20411950       0.75272599 </v>
   <v>       0.04586250       0.70411946       0.75272599 </v>
   <v>       0.54586251       0.20411950       0.75272599 </v>
   <v>       0.54586250       0.70411946       0.75272599 </v>
   <v>       0.20411900       0.45410100       0.75270499 </v>
   <v>       0.20411899       0.95410095       0.75270499 </v>
   <v>       0.70411898       0.45410100       0.75270499 </v>
   <v>       0.70411896       0.95410095       0.75270499 </v>
   <v>       0.45414002       0.29588849       0.75272697 </v>
   <v>       0.45414001       0.79588852       0.75272697 </v>
   <v>       0.95414002       0.29588849       0.75272697 </v>
[...]
   <v>       0.54722723       0.15336179       0.56097579 </v>
   <v>       0.50397455       0.64418620       0.55778942 </v>
   <v>       0.37372938       0.01534237       0.55602869 </v>
   <v>       0.29768052       0.62461282       0.55251273 </v>
   <v>       0.87641342       0.03377190       0.55762630 </v>
   <v>       0.05849156       0.27383170       0.57963815 </v>
   <v>       0.98747328       0.69713163       0.58568465 </v>
   <v>       0.57217753       0.24429032       0.56777622 </v>
   <v>       0.44923528       0.68823247       0.57661167 </v>
   <v>       0.27177694       0.43718686       0.57247369 </v>
   <v>       0.18574278       0.05876965       0.57197225 </v>
   <v>       0.68288732       0.03148823       0.57452159 </v>
   <v>       0.38359254       0.30213206       0.55619950 </v>
   <v>       0.49789501       0.86986644       0.55623778 </v>
   <v>       0.88037445       0.23903347       0.55531651 </v>
   <v>       0.98982888       0.86710211       0.55429769 </v>
   <v>       0.17549150       0.44701355       0.56938000 </v>
   <v>       0.14920686       0.98164005       0.55908143 </v>
   <v>       0.67833696       0.93660156       0.56755077 </v>
   <v>       0.42839451       0.18485810       0.55187540 </v>
   <v>       0.54495777       0.75787665       0.54281530 </v>
   <v>       0.99684042       0.22403206       0.53756052 </v>
   <v>       0.08361353       0.77734068       0.55396627 </v>
   <v>       0.18343353       0.56581925       0.55659124 </v>
   <v>       0.26789168       0.94132702       0.54764140 </v>
   <v>       0.79831932       0.93073708       0.55636854 </v>
   <v>       0.44763174       0.30157736       0.67269821 </v>
   <v>       0.44917503       0.80842628       0.67336430 </v>
   <v>       0.94244653       0.28017552       0.67449361 </v>
   <v>       0.92241737       0.73154733       0.66965787 </v>
   <v>       0.30237996       0.05255569       0.67253564 </v>
   <v>       0.29472821       0.55719390       0.67459391 </v>
   <v>       0.80420764       0.05377194       0.67508717 </v>
   <v>       0.84224837       0.47024686       0.66298362 </v>
   <v>       0.08966047       0.17153848       0.64881092 </v>
   <v>       0.11394062       0.71585903       0.65251021 </v>
   <v>       0.57983161       0.16959840       0.64971039 </v>
   <v>       0.56948778       0.66816813       0.64875390 </v>
   <v>       0.18513741       0.41174288       0.64810119 </v>
   <v>       0.16808362       0.92560902       0.64761281 </v>
   <v>       0.64181758       0.47439237       0.65605401 </v>
   <v>       0.67478379       0.92101977       0.65071957 </v>
   <v>       0.05244420       0.18672614       0.67408301 </v>
   <v>       0.04724473       0.67043774       0.66770411 </v>
   <v>       0.55013243       0.20126371       0.67448647 </v>
   <v>       0.54284583       0.69851292       0.67398197 </v>
   <v>       0.20185984       0.44676793       0.67365207 </v>
   <v>       0.19706654       0.95222485       0.67300235 </v>
   <v>       0.71339174       0.41683704       0.66460174 </v>
   <v>       0.70209636       0.95144833       0.67590612 </v>
   <v>       0.41941319       0.32382038       0.64696491 </v>
   <v>       0.42447584       0.83679053       0.64761793 </v>
   <v>       0.92256913       0.31776804       0.64959892 </v>
   <v>       0.91229890       0.81286477       0.65537333 </v>
   <v>       0.33023714       0.07828537       0.64690783 </v>
   <v>       0.32552150       0.58512040       0.64947585 </v>
   <v>       0.83027550       0.07983620       0.64917989 </v>
   <v>       0.84995211       0.55718282       0.65108652 </v>
   <v>       0.01244250       0.25353283       0.63174043 </v>
   <v>       0.03418335       0.81161869       0.64280991 </v>
   <v>       0.50074475       0.24316713       0.63033048 </v>
   <v>       0.49681940       0.75138290       0.63050428 </v>
   <v>       0.24780624       0.00102754       0.62961671 </v>
   <v>       0.26214478       0.49449362       0.63116213 </v>
   <v>       0.75251791       0.99863259       0.63224908 </v>
   <v>       0.72288333       0.57037332       0.64613247 </v>
   <v>       0.44874502       0.30128397       0.76888902 </v>
   <v>       0.44874501       0.80128391       0.76888902 </v>
   <v>       0.94874497       0.30128397       0.76888902 </v>
   <v>       0.94874501       0.80128391       0.76888902 </v>
   <v>       0.30127600       0.05129450       0.76887296 </v>
   <v>       0.30127601       0.55129450       0.76887296 </v>
   <v>       0.80127594       0.05129450       0.76887296 </v>
   <v>       0.80127598       0.55129450       0.76887296 </v>
   <v>       0.07877100       0.17118050       0.74344197 </v>
   <v>       0.07877101       0.67118045       0.74344197 </v>
   <v>       0.57877100       0.17118050       0.74344197 </v>
   <v>       0.57877099       0.67118045       0.74344197 </v>
   <v>       0.17119950       0.42117448       0.74342103 </v>
   <v>       0.17119950       0.92117451       0.74342103 </v>
   <v>       0.67119951       0.42117448       0.74342103 </v>
   <v>       0.67119950       0.92117451       0.74342103 </v>
   <v>       0.05125600       0.19871499       0.76888902 </v>
   <v>       0.05125600       0.69871493       0.76888902 </v>
   <v>       0.55125603       0.19871499       0.76888902 </v>
   <v>       0.55125602       0.69871493       0.76888902 </v>
   <v>       0.19872349       0.44870397       0.76887205 </v>
   <v>       0.19872349       0.94870397       0.76887205 </v>
   <v>       0.69872352       0.44870397       0.76887205 </v>
   <v>       0.69872351       0.94870397       0.76887205 </v>
   <v>       0.42123152       0.32881747       0.74344197 </v>
   <v>       0.42123151       0.82881744       0.74344197 </v>
   <v>       0.92123147       0.32881747       0.74344197 </v>
   <v>       0.92123151       0.82881744       0.74344197 </v>
   <v>       0.32880050       0.07882500       0.74342103 </v>
   <v>       0.32880049       0.57882496       0.74342103 </v>
   <v>       0.82880048       0.07882500       0.74342103 </v>
   <v>       0.82880052       0.57882496       0.74342103 </v>
   <v>       0.00000350       0.25000148       0.72582199 </v>
   <v>       0.00000350       0.75000145       0.72582199 </v>
   <v>       0.50000351       0.25000148       0.72582199 </v>
   <v>       0.50000350       0.75000145       0.72582199 </v>
   <v>       0.25000050       0.00000000       0.72580398 </v>
   <v>       0.25000052       0.50000000       0.72580398 </v>
   <v>       0.75000050       0.00000000       0.72580398 </v>
   <v>       0.75000049       0.50000000       0.72580398 </v>
   <v>       0.72041369       0.44331438       0.53986604 </v>
   <v>       0.73943607       0.49472741       0.51658025 </v>
   <v>       0.66173975       0.55181915       0.55692908 </v>
   <v>       0.70845961       0.63779440       0.55564080 </v>
   <v>       0.85145428       0.50857514       0.56749314 </v>
   <v>       0.79137476       0.57756685       0.57748141 </v>
   <v>       0.87625842       0.56088631       0.53116575 </v>
   <v>       0.80653738       0.62262425       0.52174455 </v>
   <v>       0.87307102       0.46135002       0.51813330 </v>
   <v>       0.86175213       0.42365236       0.54378461 </v>
   <v>       0.87246891       0.32606074       0.51837779 </v>
   <v>       0.78396209       0.32334810       0.53010835 </v>
   <v>       0.63788903       0.55107481       0.51834293 </v>
   <v>       0.69252305       0.63266157       0.51441679 </v>
   <v>       0.61077513       0.63632652       0.52966783 </v>
   <v>       0.75956008       0.46601539       0.59577114 </v>
   <v>       0.75431413       0.41201295       0.57230392 </v>
   <v>       0.68645318       0.48106527       0.57798224 </v>
   <v>       0.81831086       0.69117848       0.55789522 </v>
   <v>       0.89707111       0.69143275       0.54136884 </v>
   <v>       0.89511207       0.63123149       0.56378482 </v>
   <v>       0.82063426       0.38151747       0.48464106 </v>
   <v>       0.78664394       0.29256237       0.49141106 </v>
   <v>       0.66256905       0.30354405       0.51774778 </v>
   <v>       0.73293845       0.46277002       0.47088672 </v>
   <v>       0.53574523       0.35471762       0.51671877 </v>
   <v>       0.60482545       0.51362936       0.46933722 </v>
   <v>       0.50631708       0.46156153       0.49274660 </v>
   <v>       0.99440907       0.24242123       0.55427389 </v>
   <v>       0.03338075       0.76873223       0.56351548 </v>
   <v>       0.46592891       0.22832509       0.55737699 </v>
   <v>       0.50354166       0.75740543       0.55559855 </v>
   <v>       0.23493825       0.53567140       0.55987462 </v>
   <v>       0.26173395       0.99331677       0.55655755 </v>
   <v>       0.77706097       0.98397715       0.56217366 </v>
   <v>       0.00620074       0.24504029       0.64884615 </v>
   <v>       0.01387389       0.76711762       0.65325786 </v>
   <v>       0.49979977       0.24702717       0.64773777 </v>
   <v>       0.49638906       0.75221647       0.64797866 </v>
   <v>       0.25643792       0.49765583       0.64855465 </v>
   <v>       0.24922283       0.00181236       0.64703951 </v>
   <v>       0.74467246       0.51884107       0.65321696 </v>
   <v>       0.75291316       0.00042938       0.64971613 </v>
   <v>       0.49998898       0.24999498       0.74327702 </v>
   <v>       0.49998903       0.74999496       0.74327702 </v>
   <v>       0.99998898       0.24999498       0.74327702 </v>
   <v>       0.99998903       0.74999496       0.74327702 </v>
   <v>       0.25000050       0.00000100       0.74325596 </v>
   <v>       0.25000052       0.50000100       0.74325596 </v>
   <v>       0.75000050       0.00000100       0.74325596 </v>
   <v>       0.75000049       0.50000100       0.74325596 </v>
   <v>       0.70703025       0.37964663       0.49458189 </v>
   <v>       0.65028446       0.34946620       0.50710887 </v>
   <v>       0.68936991       0.43865646       0.48088775 </v>
   <v>       0.57884416       0.37834337       0.50656574 </v>
   <v>       0.61749571       0.46746806       0.48006581 </v>
   <v>       0.56196170       0.43783958       0.49305846 </v>
   <v>       0.76269625       0.47691051       0.53185381 </v>
   <v>       0.69753315       0.58631236       0.54688923 </v>
   <v>       0.79342247       0.52593946       0.56827754 </v>
   <v>       0.83051004       0.59687333       0.53599716 </v>
   <v>       0.83346784       0.43192317       0.52841752 </v>
   <v>       0.81883736       0.35499372       0.51892166 </v>
   <v>       0.65869201       0.60157465       0.52592459 </v>
   <v>       0.74526522       0.46777571       0.57872165 </v>
   <v>       0.86125695       0.65536975       0.55101322 </v>
   <v>       0.78549015       0.35136892       0.49637931 </v>
   <v>       0.05715249       0.25455684       0.56420532 </v>
   <v>       0.03072448       0.70884237       0.57543119 </v>
   <v>       0.53379282       0.20835781       0.56191433 </v>
   <v>       0.48370304       0.69317660       0.56355870 </v>
   <v>       0.43927429       0.29570731       0.55876508 </v>
   <v>       0.47675982       0.82123865       0.56197898 </v>
   <v>       0.92905613       0.25017439       0.56313760 </v>
   <v>       0.97987008       0.81803726       0.56209961 </v>
   <v>       0.22805242       0.46671807       0.56645113 </v>
   <v>       0.19497328       0.01270888       0.56276741 </v>
   <v>       0.70711008       0.98565256       0.56793287 </v>
   <v>       0.32134265       0.03226310       0.56070596 </v>
   <v>       0.29839868       0.56918516       0.55637324 </v>
   <v>       0.82233705       0.04078136       0.56277345 </v>
   <v>       0.05154618       0.19775836       0.65806125 </v>
   <v>       0.06057959       0.71307780       0.65773672 </v>
   <v>       0.54624627       0.20389182       0.65821942 </v>
   <v>       0.53789707       0.70312364       0.65786767 </v>
   <v>       0.21263388       0.44868026       0.65765754 </v>
   <v>       0.20213772       0.95773850       0.65680520 </v>
   <v>       0.69754676       0.46661105       0.65835409 </v>
   <v>       0.70798971       0.95473262       0.65971319 </v>
   <v>       0.45333327       0.29348986       0.65653170 </v>
   <v>       0.45428104       0.80206231       0.65716782 </v>
   <v>       0.95440342       0.28353623       0.65858503 </v>
   <v>       0.94550494       0.77067249       0.66010267 </v>
   <v>       0.29678459       0.04630826       0.65626267 </v>
   <v>       0.29448979       0.54948945       0.65841929 </v>
   <v>       0.79764907       0.04795800       0.65882159 </v>
   <v>       0.81670932       0.51473536       0.65599821 </v>
   <v>       0.04586250       0.20411950       0.75272599 </v>
   <v>       0.04586250       0.70411946       0.75272599 </v>
   <v>       0.54586251       0.20411950       0.75272599 </v>
   <v>       0.54586250       0.70411946       0.75272599 </v>
   <v>       0.20411900       0.45410100       0.75270499 </v>
   <v>       0.20411899       0.95410095       0.75270499 </v>
   <v>       0.70411898       0.45410100       0.75270499 </v>
   <v>       0.70411896       0.95410095       0.75270499 </v>
   <v>       0.45414002       0.29588849       0.75272697 </v>
   <v>       0.45414001       0.79588852       0.75272697 </v>
   <v>       0.95414002       0.29588849       0.75272697 </v>
   <v>       0.95414006       0.79588852       0.75272697 </v>
   <v>       0.29588249       0.04590050       0.75270499 </v>
   <v>       0.29588248       0.54590053       0.75270499 </v>
   <v>       0.79588244       0.04590050       0.75270499 </v>
   <v>       0.79588248       0.54590053       0.75270499 </v>
   <v>       0.77155577       0.54604678       0.54550498 </v>
   <v>       0.51505987       0.01313457       0.55301192 </v>
   <v>       0.48712162       0.49803809       0.55340219 </v>
   <v>       0.00703961       0.00811261       0.55025868 </v>
   <v>       0.02637296       0.50126028       0.55448609 </v>
   <v>       0.25033445       0.24040238       0.55272890 </v>
   <v>       0.25355687       0.76244561       0.55265882 </v>
   <v>       0.73516445       0.21172970       0.55580703 </v>
   <v>       0.69915171       0.79636929       0.55523727 </v>
   <v>       0.99709592       0.98760003       0.65380051 </v>
   <v>       0.01445894       0.49670273       0.65528158 </v>
   <v>       0.49670900       0.00360767       0.65496309 </v>
   <v>       0.50144690       0.49550317       0.65442527 </v>
   <v>       0.25333943       0.24681477       0.65459254 </v>
   <v>       0.25467174       0.75548507       0.65425592 </v>
   <v>       0.74720649       0.26690741       0.65521375 </v>
   <v>       0.74613051       0.74117732       0.65456134 </v>
   <v>       0.12911753       0.12340571       0.60745481 </v>
   <v>       0.15338191       0.60564055       0.60776963 </v>
   <v>       0.63984207       0.11364741       0.61120446 </v>
   <v>       0.63171440       0.61915850       0.60754571 </v>
   <v>       0.36184623       0.38857628       0.60590128 </v>
   <v>       0.37018053       0.88503216       0.60676125 </v>
   <v>       0.88808468       0.36915188       0.60815283 </v>
   <v>       0.86693246       0.88195321       0.60592991 </v>
   <v>       0.12248685       0.36392279       0.60852430 </v>
   <v>       0.12325217       0.87527974       0.60691112 </v>
   <v>       0.59570680       0.34726403       0.60095485 </v>
   <v>       0.61650977       0.86711689       0.61409029 </v>
   <v>       0.38754053       0.13308622       0.60691998 </v>
   <v>       0.38624491       0.63524126       0.60940546 </v>
   <v>       0.88433333       0.13716614       0.61150402 </v>
   <v>       0.89807007       0.64072953       0.61387931 </v>
   <v>       0.00000000       0.00000000       0.75492797 </v>
   <v>       0.00000000       0.50000000       0.75492797 </v>
   <v>       0.50000000       0.00000000       0.75492797 </v>
   <v>       0.49999999       0.50000000       0.75492797 </v>
   <v>       0.25000050       0.25000000       0.75493902 </v>
   <v>       0.25000051       0.74999997       0.75493902 </v>
   <v>       0.75000047       0.25000000       0.75493902 </v>
   <v>       0.75000046       0.74999997       0.75493902 </v>
   <v>       0.13579050       0.11421000       0.70478299 </v>
   <v>       0.13579050       0.61420998       0.70478299 </v>
   <v>       0.63579045       0.11421000       0.70478299 </v>
   <v>       0.63579049       0.61420998       0.70478299 </v>
   <v>       0.36420952       0.38578999       0.70478299 </v>
   <v>       0.36420950       0.88578996       0.70478299 </v>
   <v>       0.86420954       0.38578999       0.70478299 </v>
   <v>       0.86420953       0.88578996       0.70478299 </v>
   <v>       0.11421799       0.36421899       0.70478098 </v>
   <v>       0.11421799       0.86421899       0.70478098 </v>
   <v>       0.61421800       0.36421899       0.70478098 </v>
   <v>       0.61421799       0.86421899       0.70478098 </v>
   <v>       0.38578201       0.13578149       0.70478202 </v>
   <v>       0.38578200       0.63578149       0.70478202 </v>
   <v>       0.88578199       0.13578149       0.70478202 </v>
   <v>       0.88578203       0.63578149       0.70478202 </v>
   <v>       0.13466700       0.11533200       0.80125603 </v>
   <v>       0.13466699       0.61533199       0.80125603 </v>
   <v>       0.63466699       0.11533200       0.80125603 </v>
   <v>       0.63466698       0.61533199       0.80125603 </v>
   <v>       0.36533300       0.38466799       0.80125603 </v>
   <v>       0.36533299       0.88466796       0.80125603 </v>
   <v>       0.86533295       0.38466799       0.80125603 </v>
   <v>       0.86533294       0.88466796       0.80125603 </v>
   <v>       0.11532850       0.36533700       0.80126500 </v>
   <v>       0.11532850       0.86533698       0.80126500 </v>
   <v>       0.61532850       0.36533700       0.80126500 </v>
   <v>       0.61532849       0.86533698       0.80126500 </v>
   <v>       0.38467151       0.13466300       0.80126500 </v>
   <v>       0.38467150       0.63466297       0.80126500 </v>
   <v>       0.88467149       0.13466300       0.80126500 </v>
   <v>       0.88467153       0.63466297       0.80126500 </v>
   <v>       0.99735715       0.00413489       0.60387414 </v>
   <v>       0.00768995       0.50330028       0.60438419 </v>
   <v>       0.50445847       0.00137087       0.60522390 </v>
   <v>       0.50132999       0.49878000       0.60410893 </v>
   <v>       0.25399286       0.24969715       0.60407932 </v>
   <v>       0.25085902       0.75244868       0.60292180 </v>
   <v>       0.74632901       0.25164747       0.60526162 </v>
   <v>       0.74356799       0.75641157       0.60423365 </v>
   <v>       0.00000050       0.00000050       0.70482896 </v>
   <v>       0.00000050       0.50000048       0.70482896 </v>
   <v>       0.50000048       0.00000050       0.70482896 </v>
   <v>       0.50000046       0.50000048       0.70482896 </v>
   <v>       0.24999999       0.24999947       0.70482499 </v>
   <v>       0.25000001       0.74999950       0.70482499 </v>
   <v>       0.74999999       0.24999947       0.70482499 </v>
   <v>       0.74999998       0.74999950       0.70482499 </v>
   <v>       0.00000000       0.00000000       0.80731797 </v>
   <v>       0.00000000       0.50000000       0.80731797 </v>
   <v>       0.50000000       0.00000000       0.80731797 </v>
   <v>       0.49999999       0.50000000       0.80731797 </v>
   <v>       0.24999999       0.25000000       0.80731797 </v>
   <v>       0.25000001       0.74999997       0.80731797 </v>
   <v>       0.74999999       0.25000000       0.80731797 </v>
   <v>       0.74999998       0.74999997       0.80731797 </v>
  </varray>
 </structure>
</modeling>
