 vasp.6.2.1 16May21 (build Nov 15 2021 14:57:28) complex                         
 executed on             LinuxPGI date 2023.07.30  22:40:43
 running on    4 total cores
 distrk:  each k-point on    4 cores,    1 groups
 distr:  one band on NCORE=   1 cores,    4 groups


--------------------------------------------------------------------------------------------------------


 INCAR:
   SYSTEM = PSC
   ISTART = 1
   ICHARG = 1
   PREC = Normal
   ENCUT = 500
   GGA_COMPAT = F
   NELM = 600
   ISYM = 0
   LREAL = Auto
   ISMEAR = 0
   SIGMA = 0.05
   AMIN = 0.01
   BMIX = 0.01
   LVTOT = T
   LWAVE = F
   LDIPOL = T
   IDIPOL = 3
   LVDW = T
   IVDW = 12

 POTCAR:    PAW_PBE H 15Jun2001                   
 POTCAR:    PAW_PBE C 08Apr2002                   
 POTCAR:    PAW_PBE N 08Apr2002                   
 POTCAR:    PAW_PBE I 08Apr2002                   
 POTCAR:    PAW_PBE Pb 08Apr2002                  
 WARNING: For LVTOT=.TRUE., VASP.5.x writes the TOTAL local potential to the
     file LOCPOT. If you want only the Hartree contributions, use LVHAR=.TRUE.
     instead. 

 POTCAR:    PAW_PBE H 15Jun2001                   
   SHA256 =  030f79b5d3ab3cf0e668861823c8fb652ff669f3e15e46930bd03bfd63a607b6 H/POTCAR              
   COPYR  = (c) Copyright 15Jun2001 Georg Kresse                                                    
   COPYR  = This file is part of the software VASP. Any use, copying, and all other rights are regul
   COPYR  = If you do not have a valid VASP license, you may not use, copy or distribute this file. 
   VRHFIN =H: ultrasoft test                                                                        
   LEXCH  = PE                                                                                      
   EATOM  =    12.4884 eV,    0.9179 Ry                                                             
                                                                                                    
   TITEL  = PAW_PBE H 15Jun2001                                                                     
   LULTRA =        F    use ultrasoft PP ?                                                          
   IUNSCR =        0    unscreen: 0-lin 1-nonlin 2-no                                               
   RPACOR =    0.000    partial core radius                                                         
   POMASS =    1.000; ZVAL   =    1.000    mass and valenz                                          
   RCORE  =    1.100    outmost cutoff radius                                                       
   RWIGS  =    0.700; RWIGS  =    0.370    wigner-seitz radius (au A)                               
   ENMAX  =  250.000; ENMIN  =  200.000 eV                                                          
   RCLOC  =    0.701    cutoff for local pot                                                        
   LCOR   =        T    correct aug charges                                                         
   LPAW   =        T    paw PP                                                                      
   EAUG   =  400.000                                                                                
   RMAX   =    1.123    core radius for proj-oper                                                   
   RAUG   =    1.200    factor for augmentation sphere                                              
   RDEP   =    1.112    radius for radial grids                                                     
   RDEPT  =    0.926    core radius for aug-charge                                                  
                                                                                                    
   Atomic configuration                                                                             
    2 entries                                                                                       
     n  l   j            E        occ.                                                              
     1  0  0.50        -6.4927   1.0000                                                             
     2  1  0.50        -3.4015   0.0000                                                             
   Description                                                                                      
     l       E           TYP  RCUT    TYP  RCUT                                                     
     0     -6.4927494     23  1.100                                                                 
     0      6.8029130     23  1.100                                                                 
     1     -4.0817478     23  1.100                                                                 
  local pseudopotential read in
  atomic valenz-charges read in
  non local Contribution for L=            0  read in
    real space projection operators read in
  non local Contribution for L=            0  read in
    real space projection operators read in
  non local Contribution for L=            1  read in
    real space projection operators read in
    PAW grid and wavefunctions read in
 
   number of l-projection  operators is LMAX  =            3
   number of lm-projection operators is LMMAX =            5
 
 POTCAR:    PAW_PBE C 08Apr2002                   
   SHA256 =  253f7b50bb8d59471dbedb8285d89021f4a42ed1a2c5d38a03a736e69125dd95 C/POTCAR              
   COPYR  = (c) Copyright 08Apr2002 Georg Kresse                                                    
   COPYR  = This file is part of the software VASP. Any use, copying, and all other rights are regul
   COPYR  = If you do not have a valid VASP license, you may not use, copy or distribute this file. 
   VRHFIN =C: s2p2                                                                                  
   LEXCH  = PE                                                                                      
   EATOM  =   147.1560 eV,   10.8157 Ry                                                             
                                                                                                    
   TITEL  = PAW_PBE C 08Apr2002                                                                     
   LULTRA =        F    use ultrasoft PP ?                                                          
   IUNSCR =        1    unscreen: 0-lin 1-nonlin 2-no                                               
   RPACOR =    1.200    partial core radius                                                         
   POMASS =   12.011; ZVAL   =    4.000    mass and valenz                                          
   RCORE  =    1.500    outmost cutoff radius                                                       
   RWIGS  =    1.630; RWIGS  =    0.863    wigner-seitz radius (au A)                               
   ENMAX  =  400.000; ENMIN  =  300.000 eV                                                          
   ICORE  =        2    local potential                                                             
   LCOR   =        T    correct aug charges                                                         
   LPAW   =        T    paw PP                                                                      
   EAUG   =  644.873                                                                                
   DEXC   =    0.000                                                                                
   RMAX   =    1.529    core radius for proj-oper                                                   
   RAUG   =    1.300    factor for augmentation sphere                                              
   RDEP   =    1.501    radius for radial grids                                                     
   RDEPT  =    1.300    core radius for aug-charge                                                  
                                                                                                    
   Atomic configuration                                                                             
    4 entries                                                                                       
     n  l   j            E        occ.                                                              
     1  0  0.50      -273.3789   2.0000                                                             
     2  0  0.50       -13.7508   2.0000                                                             
     2  1  0.50        -5.2854   2.0000                                                             
     3  2  1.50        -5.4423   0.0000                                                             
   Description                                                                                      
     l       E           TYP  RCUT    TYP  RCUT                                                     
     0    -13.7508458     23  1.200                                                                 
     0     -8.2022199     23  1.200                                                                 
     1     -5.2854383     23  1.500                                                                 
     1     34.0145650     23  1.500                                                                 
     2     -5.4423304      7  1.500                                                                 
  local pseudopotential read in
  partial core-charges read in
  partial kinetic energy density read in
  atomic valenz-charges read in
  non local Contribution for L=            0  read in
    real space projection operators read in
  non local Contribution for L=            0  read in
    real space projection operators read in
  non local Contribution for L=            1  read in
    real space projection operators read in
  non local Contribution for L=            1  read in
    real space projection operators read in
    PAW grid and wavefunctions read in
 
   number of l-projection  operators is LMAX  =            4
   number of lm-projection operators is LMMAX =            8
 
 POTCAR:    PAW_PBE N 08Apr2002                   
   SHA256 =  e053789ff3a61a86a1b75d8a110fcc91f86041011e7b0817c7c99e4e8a6349d7 N/POTCAR              
   COPYR  = (c) Copyright 08Apr2002 Georg Kresse                                                    
   COPYR  = This file is part of the software VASP. Any use, copying, and all other rights are regul
   COPYR  = If you do not have a valid VASP license, you may not use, copy or distribute this file. 
   VRHFIN =N: s2p3                                                                                  
   LEXCH  = PE                                                                                      
   EATOM  =   264.5486 eV,   19.4438 Ry                                                             
                                                                                                    
   TITEL  = PAW_PBE N 08Apr2002                                                                     
   LULTRA =        F    use ultrasoft PP ?                                                          
   IUNSCR =        1    unscreen: 0-lin 1-nonlin 2-no                                               
   RPACOR =    1.200    partial core radius                                                         
   POMASS =   14.001; ZVAL   =    5.000    mass and valenz                                          
   RCORE  =    1.500    outmost cutoff radius                                                       
   RWIGS  =    1.400; RWIGS  =    0.741    wigner-seitz radius (au A)                               
   ENMAX  =  400.000; ENMIN  =  300.000 eV                                                          
   ICORE  =        2    local potential                                                             
   LCOR   =        T    correct aug charges                                                         
   LPAW   =        T    paw PP                                                                      
   EAUG   =  627.112                                                                                
   DEXC   =    0.000                                                                                
   RMAX   =    1.529    core radius for proj-oper                                                   
   RAUG   =    1.300    factor for augmentation sphere                                              
   RDEP   =    1.514    radius for radial grids                                                     
   RDEPT  =    1.338    core radius for aug-charge                                                  
                                                                                                    
   Atomic configuration                                                                             
    4 entries                                                                                       
     n  l   j            E        occ.                                                              
     1  0  0.50      -384.7179   2.0000                                                             
     2  0  0.50       -18.5828   2.0000                                                             
     2  1  0.50        -7.0898   3.0000                                                             
     3  2  1.50        -6.8029   0.0000                                                             
   Description                                                                                      
     l       E           TYP  RCUT    TYP  RCUT                                                     
     0    -18.5828119     23  1.200                                                                 
     0    -13.5018863     23  1.200                                                                 
     1     -7.0897853     23  1.500                                                                 
     1      9.5240782     23  1.500                                                                 
     2     -6.8029130      7  1.500                                                                 
  local pseudopotential read in
  partial core-charges read in
  partial kinetic energy density read in
  atomic valenz-charges read in
  non local Contribution for L=            0  read in
    real space projection operators read in
  non local Contribution for L=            0  read in
    real space projection operators read in
  non local Contribution for L=            1  read in
    real space projection operators read in
  non local Contribution for L=            1  read in
    real space projection operators read in
    PAW grid and wavefunctions read in
 
   number of l-projection  operators is LMAX  =            4
   number of lm-projection operators is LMMAX =            8
 
 POTCAR:    PAW_PBE I 08Apr2002                   
   SHA256 =  e40f3f59b681c1fc3e3091736183c4589116986673d2b852a5012aec72758799 I/POTCAR              
   COPYR  = (c) Copyright 08Apr2002 Georg Kresse                                                    
   COPYR  = This file is part of the software VASP. Any use, copying, and all other rights are regul
   COPYR  = If you do not have a valid VASP license, you may not use, copy or distribute this file. 
   VRHFIN =I : s2p5                                                                                 
   LEXCH  = PE                                                                                      
   EATOM  =   315.8678 eV,   23.2156 Ry                                                             
                                                                                                    
   TITEL  = PAW_PBE I 08Apr2002                                                                     
   LULTRA =        F    use ultrasoft PP ?                                                          
   IUNSCR =        1    unscreen: 0-lin 1-nonlin 2-no                                               
   RPACOR =    2.200    partial core radius                                                         
   POMASS =  126.904; ZVAL   =    7.000    mass and valenz                                          
   RCORE  =    2.300    outmost cutoff radius                                                       
   RWIGS  =    2.810; RWIGS  =    1.487    wigner-seitz radius (au A)                               
   ENMAX  =  175.647; ENMIN  =  131.735 eV                                                          
   ICORE  =        3    local potential                                                             
   LCOR   =        T    correct aug charges                                                         
   LPAW   =        T    paw PP                                                                      
   EAUG   =  370.139                                                                                
   DEXC   =    0.000                                                                                
   RMAX   =    2.359    core radius for proj-oper                                                   
   RAUG   =    1.300    factor for augmentation sphere                                              
   RDEP   =    2.392    radius for radial grids                                                     
   RDEPT  =    2.170    core radius for aug-charge                                                  
                                                                                                    
   Atomic configuration                                                                             
   13 entries                                                                                       
     n  l   j            E        occ.                                                              
     1  0  0.50    -32976.3739   2.0000                                                             
     2  0  0.50     -5094.5933   2.0000                                                             
     2  1  1.50     -4572.0131   6.0000                                                             
     3  0  0.50     -1028.2813   2.0000                                                             
     3  1  1.50      -859.0250   6.0000                                                             
     3  2  2.50      -605.7620  10.0000                                                             
     4  0  0.50      -180.5540   2.0000                                                             
     4  1  1.50      -127.5306   6.0000                                                             
     4  2  2.50       -50.2720  10.0000                                                             
     5  0  0.50       -17.4058   2.0000                                                             
     5  1  0.50        -7.0851   5.0000                                                             
     5  2  1.50        -7.0750   0.0000                                                             
     4  3  2.50        -7.0750   0.0000                                                             
   Description                                                                                      
     l       E           TYP  RCUT    TYP  RCUT                                                     
     0    -17.4058016     23  2.300                                                                 
     0    -18.7663842     23  2.300                                                                 
     1     -7.0850686     23  2.300                                                                 
     1     -4.2150896     23  2.300                                                                 
     2     -7.0750295     23  2.300                                                                 
     3     -1.3605826     23  2.300                                                                 
  local pseudopotential read in
  partial core-charges read in
  partial kinetic energy density read in
  atomic valenz-charges read in
  non local Contribution for L=            0  read in
    real space projection operators read in
  non local Contribution for L=            0  read in
    real space projection operators read in
  non local Contribution for L=            1  read in
    real space projection operators read in
  non local Contribution for L=            1  read in
    real space projection operators read in
  non local Contribution for L=            2  read in
    real space projection operators read in
    PAW grid and wavefunctions read in
 
   number of l-projection  operators is LMAX  =            5
   number of lm-projection operators is LMMAX =           13
 
 POTCAR:    PAW_PBE Pb 08Apr2002                  
   SHA256 =  797118a27cf1bcd06b9881c67a26cdde129e3cd1a551dd4a281f9681ce847303 Pb/POTCAR             
   COPYR  = (c) Copyright 08Apr2002 Georg Kresse                                                    
   COPYR  = This file is part of the software VASP. Any use, copying, and all other rights are regul
   COPYR  = If you do not have a valid VASP license, you may not use, copy or distribute this file. 
   VRHFIN =Pb:                                                                                      
   LEXCH  = PE                                                                                      
   EATOM  =    96.9868 eV,    7.1283 Ry                                                             
                                                                                                    
   TITEL  = PAW_PBE Pb 08Apr2002                                                                    
   LULTRA =        F    use ultrasoft PP ?                                                          
   IUNSCR =        1    unscreen: 0-lin 1-nonlin 2-no                                               
   RPACOR =    2.200    partial core radius                                                         
   POMASS =  207.200; ZVAL   =    4.000    mass and valenz                                          
   RCORE  =    3.100    outmost cutoff radius                                                       
   RWIGS  =    3.260; RWIGS  =    1.725    wigner-seitz radius (au A)                               
   ENMAX  =   97.973; ENMIN  =   73.480 eV                                                          
   ICORE  =        3    local potential                                                             
   LCOR   =        T    correct aug charges                                                         
   LPAW   =        T    paw PP                                                                      
   EAUG   =  234.873                                                                                
   DEXC   =    0.000                                                                                
   RMAX   =    3.158    core radius for proj-oper                                                   
   RAUG   =    1.300    factor for augmentation sphere                                              
   RDEP   =    3.202    radius for radial grids                                                     
   RDEPT  =    2.659    core radius for aug-charge                                                  
                                                                                                    
   Atomic configuration                                                                             
   17 entries                                                                                       
     n  l   j            E        occ.                                                              
     1  0  0.50    -88091.8466   2.0000                                                             
     2  0  0.50    -15753.4197   2.0000                                                             
     2  1  1.50    -13508.1797   6.0000                                                             
     3  0  0.50     -3781.7194   2.0000                                                             
     3  1  1.50     -3138.2529   6.0000                                                             
     3  2  2.50     -2483.2977  10.0000                                                             
     4  0  0.50      -856.2895   2.0000                                                             
     4  1  1.50      -645.4943   6.0000                                                             
     4  2  2.50      -401.8768  10.0000                                                             
     4  3  3.50      -132.9059  14.0000                                                             
     5  0  0.50      -144.0950   2.0000                                                             
     5  1  1.50       -85.7879   6.0000                                                             
     5  2  2.50       -21.1769  10.0000                                                             
     6  0  0.50       -12.0372   2.0000                                                             
     6  1  1.50        -3.4971   2.0000                                                             
     6  2  2.50        -1.3606   0.0000                                                             
     5  3  2.50        -2.7212   0.0000                                                             
   Description                                                                                      
     l       E           TYP  RCUT    TYP  RCUT                                                     
     0    -12.0371566     23  3.100                                                                 
     0    -13.3977392     23  3.100                                                                 
     1     -3.4971341     23  3.100                                                                 
     1     -5.4423304     23  3.100                                                                 
     2     -1.3605826     23  3.100                                                                 
     3     -1.3605826     23  3.100                                                                 
  local pseudopotential read in
  partial core-charges read in
  partial kinetic energy density read in
  atomic valenz-charges read in
  non local Contribution for L=            0  read in
    real space projection operators read in
  non local Contribution for L=            0  read in
    real space projection operators read in
  non local Contribution for L=            1  read in
    real space projection operators read in
  non local Contribution for L=            1  read in
    real space projection operators read in
  non local Contribution for L=            2  read in
    real space projection operators read in
    PAW grid and wavefunctions read in
 
   number of l-projection  operators is LMAX  =            5
   number of lm-projection operators is LMMAX =           13
 
 Optimization of the real space projectors (new method)

 maximal supplied QI-value         = 34.20
 optimisation between [QCUT,QGAM] = [ 11.29, 22.57] = [ 35.68,142.71] Ry 
 Optimized for a Real-space Cutoff    1.16 Angstroem

   l    n(q)    QCUT    max X(q) W(low)/X(q) W(high)/X(q)  e(spline) 
   0      8    11.287    19.460    0.40E-03    0.73E-03    0.16E-06
   0      8    11.287    12.209    0.38E-03    0.70E-03    0.15E-06
   1      7    11.287     4.655    0.22E-03    0.25E-04    0.22E-06
 Optimization of the real space projectors (new method)

 maximal supplied QI-value         = 25.13
 optimisation between [QCUT,QGAM] = [ 11.31, 22.87] = [ 35.82,146.48] Ry 
 Optimized for a Real-space Cutoff    1.00 Angstroem

   l    n(q)    QCUT    max X(q) W(low)/X(q) W(high)/X(q)  e(spline) 
   0      7    11.310   115.676    0.43E-03    0.13E-02    0.19E-06
   0      7    11.310    87.132    0.43E-03    0.13E-02    0.18E-06
   1      6    11.310     4.429    0.42E-03    0.74E-03    0.11E-06
   1      6    11.310     2.733    0.34E-03    0.55E-03    0.92E-07
 Optimization of the real space projectors (new method)

 maximal supplied QI-value         = 25.13
 optimisation between [QCUT,QGAM] = [ 11.31, 22.87] = [ 35.82,146.48] Ry 
 Optimized for a Real-space Cutoff    1.27 Angstroem

   l    n(q)    QCUT    max X(q) W(low)/X(q) W(high)/X(q)  e(spline) 
   0      9    11.310    79.467    0.75E-04    0.16E-03    0.36E-06
   0      9    11.310    66.151    0.74E-04    0.16E-03    0.36E-06
   1      8    11.310    17.416    0.35E-03    0.12E-03    0.95E-06
   1      8    11.310    12.382    0.37E-03    0.13E-03    0.98E-06
 Optimization of the real space projectors (new method)

 maximal supplied QI-value         = 16.25
 optimisation between [QCUT,QGAM] = [ 11.38, 22.75] = [ 36.24,144.96] Ry 
 Optimized for a Real-space Cutoff    1.31 Angstroem

   l    n(q)    QCUT    max X(q) W(low)/X(q) W(high)/X(q)  e(spline) 
   0      9    11.376   194.483    0.24E-03    0.23E-03    0.67E-07
   0      9    11.376   190.334    0.23E-03    0.22E-03    0.65E-07
   1      8    11.376   116.687    0.25E-03    0.63E-04    0.16E-06
   1      8    11.376    88.696    0.25E-03    0.61E-04    0.16E-06
   2      8    11.376     4.877    0.17E-03    0.14E-03    0.29E-07
 Optimization of the real space projectors (new method)

 maximal supplied QI-value         = 12.09
 optimisation between [QCUT,QGAM] = [ 11.37, 22.86] = [ 36.19,146.31] Ry 
 Optimized for a Real-space Cutoff    1.66 Angstroem

   l    n(q)    QCUT    max X(q) W(low)/X(q) W(high)/X(q)  e(spline) 
   0     11    11.369   135.111    0.12E-03    0.69E-04    0.19E-05
   0     11    11.369   146.850    0.11E-03    0.65E-04    0.18E-05
   1     11    11.369   148.016    0.17E-03    0.32E-03    0.89E-06
   1     11    11.369   122.989    0.17E-03    0.32E-03    0.91E-06
   2     10    11.369     8.916    0.12E-03    0.45E-04    0.33E-06
  PAW_PBE H 15Jun2001                   :
 energy of atom  1       EATOM=  -12.4884
 kinetic energy error for atom=    0.0020 (will be added to EATOM!!)
  PAW_PBE C 08Apr2002                   :
 energy of atom  2       EATOM= -147.1560
 kinetic energy error for atom=    0.0076 (will be added to EATOM!!)
  PAW_PBE N 08Apr2002                   :
 energy of atom  3       EATOM= -264.5486
 kinetic energy error for atom=    0.0138 (will be added to EATOM!!)
  PAW_PBE I 08Apr2002                   :
 energy of atom  4       EATOM= -315.8678
 kinetic energy error for atom=    0.0009 (will be added to EATOM!!)
  PAW_PBE Pb 08Apr2002                  :
 energy of atom  5       EATOM=  -96.9868
 kinetic energy error for atom=    0.0000 (will be added to EATOM!!)
 
 
 POSCAR:  H  C  N  I Pb
  positions in cartesian coordinates
  No initial velocities read in
 exchange correlation table for  LEXCH =        8
   RHO(1)=    0.500       N(1)  =     2000
   RHO(2)=  100.500       N(2)  =     4000
 


--------------------------------------------------------------------------------------------------------


 ion  position               nearest neighbor table
   1  0.465  0.340  0.562- 187 1.02
   2  0.437  0.822  0.575- 188 1.02
   3  0.923  0.289  0.576- 189 1.03
   4  0.934  0.818  0.573- 190 1.03
   5  0.325  0.076  0.571- 194 1.02
   6  0.349  0.544  0.556- 195 1.03
   7  0.807  0.093  0.565- 196 1.03
   8  0.109  0.250  0.556- 183 1.03
   9  0.075  0.677  0.577- 184 1.02
  10  0.553  0.156  0.561- 185 1.03
  11  0.503  0.643  0.556- 186 1.02
  12  0.379  0.011  0.557- 194 1.03
  13  0.294  0.622  0.551- 195 1.03
  14  0.877  0.033  0.556- 196 1.02
  15  0.061  0.295  0.576- 183 1.03
  16  0.986  0.698  0.585- 184 1.03
  17  0.573  0.248  0.567- 185 1.03
  18  0.445  0.684  0.575- 186 1.03
  19  0.274  0.434  0.572- 191 1.02
  20  0.190  0.057  0.572- 192 1.03
  21  0.688  0.033  0.576- 193 1.02
  22  0.382  0.296  0.555- 187 1.03
  23  0.496  0.869  0.557- 188 1.03
  24  0.882  0.235  0.555- 189 1.02
  25  0.988  0.869  0.555- 190 1.03
  26  0.179  0.442  0.569- 191 1.02
  27  0.155  0.979  0.560- 192 1.02
  28  0.682  0.937  0.570- 193 1.03
  29  0.431  0.181  0.553- 146 1.09
  30  0.543  0.760  0.543- 147 1.09
  31  0.999  0.206  0.540- 144 1.09
  32  0.084  0.781  0.555- 145 1.09
  33  0.183  0.560  0.556- 148 1.09
  34  0.274  0.937  0.549- 149 1.09
  35  0.799  0.929  0.558- 150 1.09
  36  0.441  0.302  0.671- 205 1.02
  37  0.453  0.804  0.674- 206 1.02
  38  0.949  0.287  0.675- 207 1.02
  39  0.918  0.738  0.668- 208 1.03
  40  0.301  0.052  0.673- 209 1.01
  41  0.297  0.561  0.673- 210 1.02
  42  0.805  0.058  0.673- 211 1.02
  43  0.841  0.469  0.662- 212 1.02
  44  0.084  0.167  0.648- 197 1.02
  45  0.111  0.708  0.654- 198 1.03
  46  0.578  0.172  0.650- 199 1.02
  47  0.574  0.670  0.647- 200 1.02
  48  0.184  0.413  0.650- 201 1.02
  49  0.169  0.924  0.647- 202 1.02
  50  0.641  0.474  0.655- 203 1.03
  51  0.675  0.919  0.653- 204 1.02
  52  0.052  0.187  0.673- 197 1.02
  53  0.036  0.664  0.666- 198 1.02
  54  0.542  0.202  0.674- 199 1.02
  55  0.552  0.698  0.672- 200 1.02
  56  0.205  0.450  0.675- 201 1.02
  57  0.199  0.951  0.673- 202 1.02
  58  0.713  0.413  0.662- 203 1.03
  59  0.706  0.955  0.677- 204 1.02
  60  0.420  0.327  0.645- 205 1.02
  61  0.423  0.833  0.649- 206 1.02
  62  0.924  0.322  0.650- 207 1.03
  63  0.920  0.824  0.655- 208 1.02
  64  0.328  0.080  0.647- 209 1.02
  65  0.323  0.587  0.648- 210 1.02
  66  0.829  0.079  0.647- 211 1.02
  67  0.849  0.557  0.651- 212 1.02
  68  0.007  0.251  0.631- 151 1.10
  69  0.043  0.814  0.645- 152 1.09
  70  0.505  0.249  0.630- 153 1.09
  71  0.494  0.751  0.630- 154 1.09
  72  0.248  0.002  0.630- 156 1.09
  73  0.257  0.495  0.631- 155 1.09
  74  0.750  0.994  0.632- 158 1.09
  75  0.722  0.571  0.647- 157 1.09
  76  0.449  0.301  0.769- 221 1.02
  77  0.449  0.801  0.769- 222 1.02
  78  0.949  0.301  0.769- 223 1.02
  79  0.949  0.801  0.769- 224 1.02
  80  0.301  0.051  0.769- 225 1.02
  81  0.301  0.551  0.769- 226 1.02
  82  0.801  0.051  0.769- 227 1.02
  83  0.801  0.551  0.769- 228 1.02
  84  0.079  0.171  0.743- 213 1.02
  85  0.079  0.671  0.743- 214 1.02
  86  0.579  0.171  0.743- 215 1.02
  87  0.579  0.671  0.743- 216 1.02
  88  0.171  0.421  0.743- 217 1.02
  89  0.171  0.921  0.743- 218 1.02
  90  0.671  0.421  0.743- 219 1.02
  91  0.671  0.921  0.743- 220 1.02
  92  0.051  0.199  0.769- 213 1.02
  93  0.051  0.699  0.769- 214 1.02
  94  0.551  0.199  0.769- 215 1.02
  95  0.551  0.699  0.769- 216 1.02
  96  0.199  0.449  0.769- 217 1.02
  97  0.199  0.949  0.769- 218 1.02
  98  0.699  0.449  0.769- 219 1.02
  99  0.699  0.949  0.769- 220 1.02
 100  0.421  0.329  0.743- 221 1.02
 101  0.421  0.829  0.743- 222 1.02
 102  0.921  0.329  0.743- 223 1.02
 103  0.921  0.829  0.743- 224 1.02
 104  0.329  0.079  0.743- 225 1.02
 105  0.329  0.579  0.743- 226 1.02
 106  0.829  0.079  0.743- 227 1.02
 107  0.829  0.579  0.743- 228 1.02
 108  0.000  0.250  0.726- 161 1.09
 109  0.000  0.750  0.726- 162 1.09
 110  0.500  0.250  0.726- 159 1.09
 111  0.500  0.750  0.726- 160 1.09
 112  0.250  0.000  0.726- 163 1.09
 113  0.250  0.500  0.726- 164 1.09
 114  0.750  0.000  0.726- 165 1.09
 115  0.750  0.500  0.726- 166 1.09
 116  0.720  0.446  0.538- 173 1.10
 117  0.743  0.498  0.515- 173 1.10
 118  0.663  0.553  0.556- 174 1.10
 119  0.710  0.639  0.554- 174 1.10
 120  0.854  0.510  0.567- 175 1.10
 121  0.793  0.579  0.576- 175 1.10
 122  0.879  0.560  0.531- 176 1.09
 123  0.809  0.617  0.520- 176 1.10
 124  0.873  0.462  0.517- 177 1.10
 125  0.864  0.426  0.543- 177 1.10
 126  0.873  0.326  0.519- 178 1.10
 127  0.784  0.324  0.530- 178 1.10
 128  0.639  0.553  0.517- 179 1.10
 129  0.697  0.633  0.513- 179 1.10
 130  0.615  0.639  0.528- 179 1.10
 131  0.765  0.466  0.595- 180 1.10
 132  0.756  0.414  0.571- 180 1.10
 133  0.688  0.483  0.578- 180 1.10
 134  0.818  0.693  0.556- 181 1.10
 135  0.897  0.694  0.539- 181 1.10
 136  0.898  0.636  0.562- 181 1.10
 137  0.821  0.381  0.485- 182 1.10
 138  0.787  0.292  0.491- 182 1.10
 139  0.663  0.302  0.518- 168 1.10
 140  0.732  0.460  0.470- 169 1.09
 141  0.536  0.353  0.517- 170 1.09
 142  0.604  0.510  0.469- 171 1.09
 143  0.506  0.457  0.492- 172 1.09
 144  0.996  0.240  0.554-  31 1.09 183 1.31 189 1.31
 145  0.033  0.771  0.564-  32 1.09 184 1.31 190 1.32
 146  0.467  0.227  0.557-  29 1.09 187 1.31 185 1.31
 147  0.501  0.757  0.555-  30 1.09 186 1.31 188 1.31
 148  0.235  0.531  0.559-  33 1.09 191 1.31 195 1.31
 149  0.268  0.990  0.558-  34 1.09 192 1.31 194 1.31
 150  0.780  0.983  0.563-  35 1.09 196 1.31 193 1.31
 151  0.004  0.245  0.648-  68 1.10 197 1.31 207 1.31
 152  0.017  0.768  0.654-  69 1.09 198 1.31 208 1.32
 153  0.500  0.250  0.647-  70 1.09 199 1.31 205 1.32
 154  0.498  0.751  0.648-  71 1.09 200 1.31 206 1.31
 155  0.254  0.499  0.648-  73 1.09 201 1.31 210 1.32
 156  0.249  0.002  0.647-  72 1.09 202 1.31 209 1.32
 157  0.744  0.519  0.653-  75 1.09 203 1.31 212 1.31
 158  0.752  0.999  0.650-  74 1.09 204 1.31 211 1.32
 159  0.500  0.250  0.743- 110 1.09 221 1.31 215 1.31
 160  0.500  0.750  0.743- 111 1.09 222 1.31 216 1.31
 161  1.000  0.250  0.743- 108 1.09 223 1.31 213 1.31
 162  1.000  0.750  0.743- 109 1.09 224 1.31 214 1.31
 163  0.250  0.000  0.743- 112 1.09 225 1.31 218 1.31
 164  0.250  0.500  0.743- 113 1.09 226 1.31 217 1.31
 165  0.750  0.000  0.743- 114 1.09 227 1.31 220 1.31
 166  0.750  0.500  0.743- 115 1.09 228 1.31 219 1.31
 167  0.707  0.378  0.494- 169 1.40 168 1.41 182 1.51
 168  0.651  0.348  0.507- 139 1.10 170 1.40 167 1.41
 169  0.689  0.436  0.481- 140 1.09 171 1.39 167 1.40
 170  0.578  0.376  0.506- 141 1.09 172 1.40 168 1.40
 171  0.617  0.464  0.479- 142 1.09 169 1.39 172 1.40
 172  0.561  0.435  0.493- 143 1.09 170 1.40 171 1.40
 173  0.764  0.478  0.531- 117 1.10 116 1.10 229 1.52 177 1.53
 174  0.699  0.587  0.546- 119 1.10 118 1.10 179 1.52 229 1.53
 175  0.796  0.527  0.567- 121 1.10 120 1.10 180 1.51 229 1.52
 176  0.833  0.596  0.535- 122 1.09 123 1.10 181 1.52 229 1.52
 177  0.835  0.433  0.528- 124 1.10 125 1.10 173 1.53 178 1.53
 178  0.820  0.355  0.519- 127 1.10 126 1.10 177 1.53 182 1.54
 179  0.662  0.603  0.524- 130 1.10 128 1.10 129 1.10 174 1.52
 180  0.748  0.470  0.578- 132 1.10 133 1.10 131 1.10 175 1.51
 181  0.862  0.658  0.549- 136 1.10 134 1.10 135 1.10 176 1.52
 182  0.786  0.351  0.496- 137 1.10 138 1.10 167 1.51 178 1.54
 183  0.058  0.263  0.563-   8 1.03  15 1.03 144 1.31
 184  0.029  0.710  0.576-   9 1.02  16 1.03 145 1.31
 185  0.536  0.210  0.562-  10 1.03  17 1.03 146 1.31
 186  0.480  0.691  0.562-  11 1.02  18 1.03 147 1.31
 187  0.438  0.293  0.557-   1 1.02  22 1.03 146 1.31
 188  0.474  0.819  0.563-   2 1.02  23 1.03 147 1.31
 189  0.930  0.254  0.562-  24 1.02   3 1.03 144 1.31
 190  0.978  0.819  0.562-  25 1.03   4 1.03 145 1.32
 191  0.230  0.462  0.566-  26 1.02  19 1.02 148 1.31
 192  0.201  0.009  0.564-  27 1.02  20 1.03 149 1.31
 193  0.711  0.986  0.570-  21 1.02  28 1.03 150 1.31
 194  0.327  0.029  0.562-   5 1.02  12 1.03 149 1.31
 195  0.297  0.567  0.555-  13 1.03   6 1.03 148 1.31
 196  0.824  0.040  0.561-  14 1.02   7 1.03 150 1.31
 197  0.049  0.196  0.657-  52 1.02  44 1.02 151 1.31
 198  0.056  0.709  0.658-  53 1.02  45 1.03 152 1.31
 199  0.543  0.206  0.658-  54 1.02  46 1.02 153 1.31
 200  0.543  0.703  0.656-  47 1.02  55 1.02 154 1.31
 201  0.213  0.451  0.659-  48 1.02  56 1.02 155 1.31
 202  0.203  0.956  0.657-  57 1.02  49 1.02 156 1.31
 203  0.696  0.465  0.657-  58 1.03  50 1.03 157 1.31
 204  0.709  0.955  0.661-  59 1.02  51 1.02 158 1.31
 205  0.451  0.296  0.655-  36 1.02  60 1.02 153 1.32
 206  0.456  0.799  0.658-  61 1.02  37 1.02 154 1.31
 207  0.957  0.287  0.659-  38 1.02  62 1.03 151 1.31
 208  0.947  0.777  0.659-  63 1.02  39 1.03 152 1.32
 209  0.296  0.047  0.656-  40 1.01  64 1.02 156 1.32
 210  0.294  0.552  0.657-  65 1.02  41 1.02 155 1.32
 211  0.797  0.049  0.657-  42 1.02  66 1.02 158 1.32
 212  0.816  0.514  0.656-  43 1.02  67 1.02 157 1.31
 213  0.046  0.204  0.753-  92 1.02  84 1.02 161 1.31
 214  0.046  0.704  0.753-  93 1.02  85 1.02 162 1.31
 215  0.546  0.204  0.753-  94 1.02  86 1.02 159 1.31
 216  0.546  0.704  0.753-  95 1.02  87 1.02 160 1.31
 217  0.204  0.454  0.753-  96 1.02  88 1.02 164 1.31
 218  0.204  0.954  0.753-  97 1.02  89 1.02 163 1.31
 219  0.704  0.454  0.753-  98 1.02  90 1.02 166 1.31
 220  0.704  0.954  0.753-  99 1.02  91 1.02 165 1.31
 221  0.454  0.296  0.753-  76 1.02 100 1.02 159 1.31
 222  0.454  0.796  0.753-  77 1.02 101 1.02 160 1.31
 223  0.954  0.296  0.753-  78 1.02 102 1.02 161 1.31
 224  0.954  0.796  0.753-  79 1.02 103 1.02 162 1.31
 225  0.296  0.046  0.753-  80 1.02 104 1.02 163 1.31
 226  0.296  0.546  0.753-  81 1.02 105 1.02 164 1.31
 227  0.796  0.046  0.753-  82 1.02 106 1.02 165 1.31
 228  0.796  0.546  0.753-  83 1.02 107 1.02 166 1.31
 229  0.774  0.547  0.545- 173 1.52 176 1.52 175 1.52 174 1.53
 230  0.520  0.011  0.553- 304 3.27
 231  0.490  0.494  0.552- 305 3.18
 232  0.012  0.009  0.551- 302 3.34
 233  0.024  0.499  0.554- 303 3.13
 234  0.252  0.230  0.553- 306 3.22
 235  0.253  0.763  0.552- 307 3.18
 236  0.735  0.213  0.556- 308 3.16
 237  0.700  0.796  0.555- 309 3.20
 238  0.999  0.986  0.654- 302 3.14 310 3.20
 239  0.013  0.500  0.655- 311 3.11 303 3.20
 240  0.494  0.004  0.655- 304 3.10 312 3.12
 241  0.500  0.496  0.654- 305 3.17 313 3.19
 242  0.252  0.247  0.655- 314 3.14 306 3.14
 243  0.251  0.754  0.654- 315 3.17 307 3.20
 244  0.748  0.270  0.655- 316 3.13 308 3.14
 245  0.749  0.739  0.655- 317 3.15 309 3.20
 246  0.130  0.121  0.607- 306 3.20 302 3.20
 247  0.150  0.608  0.607- 307 3.21 303 3.22
 248  0.639  0.115  0.612- 308 3.17 304 3.20
 249  0.632  0.618  0.606- 305 3.19 309 3.21
 250  0.361  0.390  0.605- 306 3.21 305 3.22
 251  0.370  0.886  0.608- 304 3.21 307 3.22
 252  0.889  0.367  0.608- 303 3.26 308 3.31
 253  0.867  0.882  0.606- 309 3.20 302 3.23
 254  0.121  0.367  0.609- 306 3.19 303 3.28
 255  0.123  0.875  0.606- 307 3.20 302 3.24
 256  0.598  0.350  0.601- 305 3.20 308 3.23
 257  0.617  0.867  0.615- 309 3.12 304 3.20
 258  0.388  0.135  0.607- 306 3.20 304 3.22
 259  0.386  0.636  0.609- 307 3.25 305 3.28
 260  0.883  0.136  0.611- 302 3.20 308 3.24
 261  0.894  0.640  0.613- 303 3.21 309 3.48
 262  0.000  0.000  0.755- 310 3.13 318 3.27
 263  0.000  0.500  0.755- 311 3.13 319 3.27
 264  0.500  0.000  0.755- 312 3.13 320 3.27
 265  0.500  0.500  0.755- 313 3.13 321 3.27
 266  0.250  0.250  0.755- 314 3.13 322 3.27
 267  0.250  0.750  0.755- 315 3.13 323 3.27
 268  0.750  0.250  0.755- 316 3.13 324 3.27
 269  0.750  0.750  0.755- 317 3.13 325 3.27
 270  0.136  0.114  0.705- 310 3.20 314 3.20
 271  0.136  0.614  0.705- 311 3.20 315 3.20
 272  0.636  0.114  0.705- 312 3.20 316 3.20
 273  0.636  0.614  0.705- 313 3.20 317 3.20
 274  0.364  0.386  0.705- 313 3.20 314 3.20
 275  0.364  0.886  0.705- 312 3.20 315 3.20
 276  0.864  0.386  0.705- 311 3.20 316 3.20
 277  0.864  0.886  0.705- 310 3.20 317 3.20
 278  0.114  0.364  0.705- 314 3.21 311 3.21
 279  0.114  0.864  0.705- 315 3.21 310 3.21
 280  0.614  0.364  0.705- 316 3.21 313 3.21
 281  0.614  0.864  0.705- 317 3.21 312 3.21
 282  0.386  0.136  0.705- 314 3.21 312 3.21
 283  0.386  0.636  0.705- 315 3.21 313 3.21
 284  0.886  0.136  0.705- 316 3.21 310 3.21
 285  0.886  0.636  0.705- 317 3.21 311 3.21
 286  0.135  0.115  0.801- 318 3.22 322 3.22
 287  0.135  0.615  0.801- 319 3.22 323 3.22
 288  0.635  0.115  0.801- 320 3.22 324 3.22
 289  0.635  0.615  0.801- 321 3.22 325 3.22
 290  0.365  0.385  0.801- 321 3.22 322 3.22
 291  0.365  0.885  0.801- 320 3.22 323 3.22
 292  0.865  0.385  0.801- 319 3.22 324 3.22
 293  0.865  0.885  0.801- 318 3.22 325 3.22
 294  0.115  0.365  0.801- 319 3.23 322 3.23
 295  0.115  0.865  0.801- 318 3.23 323 3.23
 296  0.615  0.365  0.801- 321 3.23 324 3.23
 297  0.615  0.865  0.801- 320 3.23 325 3.23
 298  0.385  0.135  0.801- 320 3.23 322 3.23
 299  0.385  0.635  0.801- 321 3.23 323 3.23
 300  0.885  0.135  0.801- 318 3.23 324 3.23
 301  0.885  0.635  0.801- 319 3.23 325 3.23
 302  0.998  0.004  0.604- 238 3.14 260 3.20 246 3.20 253 3.23 255 3.24 232 3.34
 303  0.005  0.505  0.604- 233 3.13 239 3.20 261 3.21 247 3.22 252 3.26 254 3.28
 304  0.505  0.001  0.605- 240 3.10 248 3.20 257 3.20 251 3.21 258 3.22 230 3.27
 305  0.502  0.498  0.603- 241 3.17 231 3.18 249 3.19 256 3.20 250 3.22 259 3.28
 306  0.252  0.249  0.604- 242 3.14 254 3.19 246 3.20 258 3.20 250 3.21 234 3.22
 307  0.251  0.754  0.603- 235 3.18 255 3.20 243 3.20 247 3.21 251 3.22 259 3.25
 308  0.747  0.251  0.605- 244 3.14 236 3.16 248 3.17 256 3.23 260 3.24 252 3.31
 309  0.743  0.756  0.604- 257 3.12 245 3.20 253 3.20 237 3.20 249 3.21 261 3.48
 310  0.000  0.000  0.705- 262 3.13 238 3.20 270 3.20 277 3.20 279 3.21 284 3.21
 311  0.000  0.500  0.705- 239 3.11 263 3.13 271 3.20 276 3.20 278 3.21 285 3.21
 312  0.500  0.000  0.705- 240 3.12 264 3.13 272 3.20 275 3.20 281 3.21 282 3.21
 313  0.500  0.500  0.705- 265 3.13 241 3.19 273 3.20 274 3.20 280 3.21 283 3.21
 314  0.250  0.250  0.705- 266 3.13 242 3.14 270 3.20 274 3.20 282 3.21 278 3.21
 315  0.250  0.750  0.705- 267 3.13 243 3.17 271 3.20 275 3.20 283 3.21 279 3.21
 316  0.750  0.250  0.705- 268 3.13 244 3.13 272 3.20 276 3.20 284 3.21 280 3.21
 317  0.750  0.750  0.705- 269 3.13 245 3.15 273 3.20 277 3.20 285 3.21 281 3.21
 318  0.000  0.000  0.807- 286 3.22 293 3.22 300 3.23 295 3.23 262 3.27
 319  0.000  0.500  0.807- 287 3.22 292 3.22 301 3.23 294 3.23 263 3.27
 320  0.500  0.000  0.807- 288 3.22 291 3.22 298 3.23 297 3.23 264 3.27
 321  0.500  0.500  0.807- 289 3.22 290 3.22 299 3.23 296 3.23 265 3.27
 322  0.250  0.250  0.807- 290 3.22 286 3.22 294 3.23 298 3.23 266 3.27
 323  0.250  0.750  0.807- 291 3.22 287 3.22 299 3.23 295 3.23 267 3.27
 324  0.750  0.250  0.807- 292 3.22 288 3.22 296 3.23 300 3.23 268 3.27
 325  0.750  0.750  0.807- 293 3.22 289 3.22 297 3.23 301 3.23 269 3.27
 

IMPORTANT INFORMATION: All symmetrisations will be switched off!
NOSYMM: (Re-)initialisation of all symmetry stuff for point group C_1.


----------------------------------------------------------------------------------------

                                     Primitive cell                                     

  volume of cell :   20385.2105

  direct lattice vectors                    reciprocal lattice vectors
    18.060800552  0.000000000  0.000000000     0.055368531  0.000015077 -0.000000000
    -0.004918649 18.062799454  0.000000000     0.000000000  0.055362404  0.000000000
     0.000000000  0.000000000 62.487499237     0.000000000 -0.000000000  0.016003201

  length of vectors
    18.060800552 18.062800123 62.487499237     0.055368533  0.055362404  0.016003201

  position of ions in fractional coordinates (direct lattice)
     0.464945716  0.339635082  0.562383663
     0.437140669  0.822154053  0.574926760
     0.923339879  0.288754649  0.575515928
     0.933600693  0.817791274  0.572553421
     0.325312556  0.076077880  0.570670660
     0.348850666  0.543952820  0.556498514
     0.807325695  0.093166193  0.564603894
     0.108707280  0.250454562  0.556081011
     0.074753618  0.676505677  0.577457540
     0.552582138  0.155682685  0.561021269
     0.502875336  0.643219682  0.555922348
     0.379018342  0.011265365  0.557323263
     0.293544247  0.621759053  0.551035934
     0.877180397  0.032646364  0.555672298
     0.060567215  0.295351432  0.576272671
     0.985661084  0.697974384  0.585467565
     0.573047238  0.248276921  0.567486429
     0.445066454  0.684004112  0.574761261
     0.274468227  0.433879695  0.571771038
     0.190092345  0.056620573  0.572298305
     0.687807584  0.032755771  0.576030863
     0.381515862  0.296348358  0.555085572
     0.495645477  0.868723317  0.557409523
     0.882491405  0.235361203  0.555448255
     0.988295171  0.868724161  0.555131480
     0.178996756  0.442388361  0.569180432
     0.155380602  0.978681660  0.560023388
     0.682286454  0.937392867  0.570476285
     0.430532973  0.181088016  0.552633238
     0.542583517  0.760015751  0.542610177
     0.998644453  0.206391011  0.539853094
     0.084300454  0.781040905  0.555384399
     0.183467822  0.560144609  0.556070022
     0.273508227  0.937213605  0.549208909
     0.799164469  0.929076173  0.557730327
     0.440684523  0.302325348  0.671014582
     0.453424772  0.804379232  0.674021653
     0.948922418  0.286645275  0.674674250
     0.918215426  0.737703811  0.667833465
     0.301486663  0.051806548  0.672571778
     0.296946342  0.561224216  0.673445305
     0.805357600  0.058453868  0.673226756
     0.841241791  0.468566254  0.661838186
     0.083615425  0.167060340  0.647581306
     0.111339613  0.707634516  0.653873092
     0.578486653  0.171749079  0.650082722
     0.573724800  0.669938699  0.646530803
     0.183862451  0.413184447  0.649827972
     0.169050521  0.924311767  0.647364588
     0.640601788  0.474023002  0.655265705
     0.675407376  0.919008496  0.652506547
     0.052350995  0.186695634  0.673300135
     0.035750386  0.664300221  0.665968285
     0.542426265  0.202379231  0.674367609
     0.552174920  0.698390694  0.672462259
     0.205143642  0.449788751  0.674712160
     0.198622973  0.950577364  0.672899664
     0.713098541  0.413403795  0.662005212
     0.706098466  0.955191507  0.676889781
     0.419887376  0.327449557  0.644855786
     0.422965011  0.833140094  0.649036920
     0.924422628  0.322124381  0.649566384
     0.919975594  0.824426625  0.655383343
     0.328397790  0.079576057  0.647088166
     0.323045602  0.586715581  0.647689849
     0.828849295  0.079314953  0.646813880
     0.848616369  0.556915660  0.651219119
     0.007088047  0.250574465  0.630973309
     0.042928728  0.813629970  0.645121525
     0.505364742  0.248787765  0.629690887
     0.494073680  0.750861791  0.630176275
     0.247777029  0.002445127  0.629568487
     0.256543996  0.494901801  0.631041316
     0.750313017  0.993691387  0.632076985
     0.721547940  0.570987303  0.647176135
     0.448745018  0.301283966  0.768889017
     0.448745007  0.801283913  0.768889017
     0.948744965  0.301283966  0.768889017
     0.948745007  0.801283913  0.768889017
     0.301275995  0.051294496  0.768872961
     0.301276011  0.551294499  0.768872961
     0.801275943  0.051294496  0.768872961
     0.801275984  0.551294499  0.768872961
     0.078771004  0.171180501  0.743441971
     0.078771006  0.671180448  0.743441971
     0.578771004  0.171180501  0.743441971
     0.578770992  0.671180448  0.743441971
     0.171199499  0.421174482  0.743421032
     0.171199501  0.921174508  0.743421032
     0.671199512  0.421174482  0.743421032
     0.671199501  0.921174508  0.743421032
     0.051256000  0.198714991  0.768889017
     0.051256002  0.698714925  0.768889017
     0.551256027  0.198714991  0.768889017
     0.551256016  0.698714925  0.768889017
     0.198723491  0.448703970  0.768872046
     0.198723493  0.948703970  0.768872046
     0.698723518  0.448703970  0.768872046
     0.698723507  0.948703970  0.768872046
     0.421231519  0.328817467  0.743441971
     0.421231508  0.828817440  0.743441971
     0.921231466  0.328817467  0.743441971
     0.921231508  0.828817440  0.743441971
     0.328800503  0.078824997  0.743421032
     0.328800492  0.578824964  0.743421032
     0.828800477  0.078824997  0.743421032
     0.828800519  0.578824964  0.743421032
     0.000003500  0.250001478  0.725821992
     0.000003500  0.750001452  0.725821992
     0.500003506  0.250001478  0.725821992
     0.500003495  0.750001452  0.725821992
     0.250000502  0.000000000  0.725803983
     0.250000517  0.500000000  0.725803983
     0.750000502  0.000000000  0.725803983
     0.750000490  0.500000000  0.725803983
     0.720080803  0.445578346  0.538361219
     0.742775493  0.497500240  0.515473951
     0.662944353  0.553172778  0.555673275
     0.710316187  0.639176117  0.554294459
     0.854044084  0.509941755  0.566961300
     0.793457211  0.579433352  0.576360702
     0.879094400  0.559566210  0.530775961
     0.808867492  0.617199496  0.519972226
     0.872983126  0.462416906  0.517272223
     0.863596368  0.425853705  0.543166318
     0.873214421  0.326168421  0.518519176
     0.784466160  0.323957517  0.529842730
     0.638727652  0.553011375  0.516830728
     0.696894962  0.632625981  0.512944880
     0.614562481  0.639106424  0.527911680
     0.764585894  0.466484916  0.594840716
     0.755513163  0.414234989  0.571171187
     0.688339521  0.482557329  0.577834324
     0.818163599  0.692777507  0.555695680
     0.896616706  0.693844759  0.538877863
     0.897649012  0.636442886  0.561780759
     0.820936299  0.380758659  0.484797527
     0.787242067  0.292058571  0.491251912
     0.663254333  0.301785492  0.518053690
     0.732194295  0.460270521  0.470421422
     0.535590185  0.352737862  0.516561876
     0.604341132  0.509557229  0.468530907
     0.505678445  0.457401282  0.492260201
     0.995742140  0.240061255  0.554347204
     0.033023886  0.770589283  0.564187735
     0.467227234  0.226532213  0.557176872
     0.500746734  0.756507924  0.555113471
     0.235323880  0.530938292  0.558942484
     0.267504334  0.989860290  0.557653224
     0.779572750  0.983295922  0.562852629
     0.004267916  0.244798397  0.648447996
     0.016858996  0.768197124  0.653824743
     0.499606314  0.249598975  0.647106846
     0.497823062  0.751104026  0.647621231
     0.254358352  0.499070708  0.648430048
     0.248564463  0.001673948  0.647075956
     0.743505941  0.518696775  0.653246990
     0.752042995  0.999027660  0.649512357
     0.499988984  0.249994984  0.743277021
     0.499989025  0.749994958  0.743277021
     0.999988984  0.249994984  0.743277021
     0.999989025  0.749994958  0.743277021
     0.250000502  0.000001000  0.743255960
     0.250000517  0.500001003  0.743255960
     0.750000502  0.000001000  0.743255960
     0.750000491  0.500001003  0.743255960
     0.707046861  0.378417081  0.494422255
     0.650516120  0.347770337  0.507174378
     0.688879501  0.436452791  0.480519969
     0.578435524  0.376053539  0.506271976
     0.617045719  0.464387527  0.479484697
     0.561438086  0.434692621  0.492546300
     0.764246038  0.478266829  0.530897079
     0.699304650  0.587440863  0.545658821
     0.795703324  0.527305705  0.567437469
     0.832923649  0.596148365  0.534862838
     0.834502338  0.432584725  0.527829755
     0.819633464  0.355311063  0.518683638
     0.661549799  0.602764076  0.524397427
     0.747605894  0.469529601  0.578005989
     0.862167652  0.657901192  0.548970824
     0.785832460  0.350553040  0.496155359
     0.058184597  0.262720630  0.562794573
     0.029481333  0.709843361  0.575530763
     0.536345491  0.210048572  0.561574358
     0.480482232  0.690852238  0.561968785
     0.437647640  0.292850695  0.557488213
     0.474165979  0.819215122  0.562538845
     0.930121573  0.254350135  0.562441536
     0.978472939  0.818579068  0.562323287
     0.230341781  0.462473663  0.565722282
     0.200862899  0.009468262  0.563676097
     0.711279913  0.986188345  0.569839439
     0.327107846  0.028947096  0.561575518
     0.297064972  0.566581546  0.554805487
     0.824259954  0.040051684  0.561136404
     0.048683622  0.196337933  0.657253468
     0.055862220  0.708625054  0.657664561
     0.542603082  0.205592222  0.658123271
     0.543254645  0.703185782  0.656353630
     0.212557664  0.451079972  0.658518430
     0.202740542  0.956350859  0.656707338
     0.696460691  0.465243906  0.657293393
     0.709082605  0.954996060  0.660598986
     0.450560793  0.295928431  0.655099900
     0.455956895  0.798882040  0.657798987
     0.956950983  0.287362796  0.658504145
     0.947194643  0.776992324  0.659409905
     0.295682554  0.046780933  0.656488667
     0.293924420  0.551910015  0.657338324
     0.797352637  0.049346571  0.657343574
     0.815617366  0.513647414  0.655528636
     0.045862501  0.204119496  0.752725994
     0.045862500  0.704119456  0.752725994
     0.545862507  0.204119496  0.752725994
     0.545862496  0.704119456  0.752725994
     0.204119002  0.454101003  0.752704994
     0.204118991  0.954100951  0.752704994
     0.704118976  0.454101003  0.752704994
     0.704118964  0.954100951  0.752704994
     0.454140018  0.295888490  0.752726971
     0.454140007  0.795888516  0.752726971
     0.954140018  0.295888490  0.752726971
     0.954140060  0.795888516  0.752726971
     0.295882492  0.045900498  0.752704994
     0.295882481  0.545900528  0.752704994
     0.795882439  0.045900498  0.752704994
     0.795882481  0.545900528  0.752704994
     0.773521917  0.547046079  0.544645007
     0.519677273  0.010780653  0.553286262
     0.490184007  0.494133436  0.552321958
     0.012427927  0.008533264  0.550607565
     0.023780286  0.499105924  0.554442499
     0.251523257  0.230463213  0.553037250
     0.253276555  0.763011281  0.552145043
     0.734826821  0.212694793  0.555806603
     0.699849956  0.796469080  0.555348747
     0.999161687  0.986055600  0.653851909
     0.012878201  0.500387430  0.655272725
     0.494466940  0.004116049  0.654956561
     0.499991511  0.495626819  0.653855816
     0.252058602  0.247123872  0.654615794
     0.250834221  0.753858219  0.654134436
     0.747520550  0.269578391  0.655008329
     0.748982113  0.739424171  0.654545468
     0.130173429  0.121380995  0.607272524
     0.149814873  0.608347750  0.607375694
     0.638596035  0.114903113  0.611987334
     0.631687680  0.617798433  0.606438190
     0.360966774  0.389874842  0.605073781
     0.369575038  0.886104584  0.607641189
     0.888726087  0.367043901  0.607533440
     0.867360567  0.882243119  0.606402538
     0.121437027  0.366593853  0.608951143
     0.123374319  0.875294730  0.606231422
     0.598285318  0.349649407  0.601022556
     0.616971773  0.867406067  0.614711634
     0.387718048  0.135177034  0.607223564
     0.385610759  0.635686083  0.608857375
     0.882524830  0.135510003  0.610795445
     0.893697197  0.639554043  0.612851399
     0.000000000  0.000000000  0.754927972
     0.000000000  0.500000000  0.754927972
     0.500000000  0.000000000  0.754927972
     0.499999989  0.500000000  0.754927972
     0.250000496  0.250000000  0.754939022
     0.250000511  0.749999974  0.754939022
     0.750000470  0.250000000  0.754939022
     0.750000458  0.749999974  0.754939022
     0.135790500  0.114209997  0.704782994
     0.135790502  0.614209984  0.704782994
     0.635790447  0.114209997  0.704782994
     0.635790488  0.614209984  0.704782994
     0.364209516  0.385789989  0.704782994
     0.364209505  0.885789963  0.704782994
     0.864209542  0.385789989  0.704782994
     0.864209531  0.885789963  0.704782994
     0.114217990  0.364218986  0.704780979
     0.114217992  0.864218986  0.704780979
     0.614218004  0.364218986  0.704780979
     0.614217992  0.864218986  0.704780979
     0.385782012  0.135781489  0.704782017
     0.385782001  0.635781489  0.704782017
     0.885781985  0.135781489  0.704782017
     0.885782027  0.635781489  0.704782017
     0.134667000  0.115332001  0.801256025
     0.134666989  0.615331988  0.801256025
     0.634666987  0.115332001  0.801256025
     0.634666976  0.615331988  0.801256025
     0.365333002  0.384667985  0.801256025
     0.365332990  0.884667959  0.801256025
     0.865332949  0.384667985  0.801256025
     0.865332938  0.884667959  0.801256025
     0.115328503  0.365337004  0.801264999
     0.115328505  0.865336978  0.801264999
     0.615328503  0.365337004  0.801264999
     0.615328492  0.865336978  0.801264999
     0.384671513  0.134662996  0.801264999
     0.384671501  0.634662970  0.801264999
     0.884671486  0.134662996  0.801264999
     0.884671528  0.634662970  0.801264999
     0.998307589  0.003703915  0.603826827
     0.004978845  0.504569377  0.604179742
     0.504920259  0.000864896  0.605400690
     0.502293087  0.498251129  0.603141632
     0.252428702  0.248868572  0.604331018
     0.251230651  0.753594600  0.602981382
     0.746998834  0.251098298  0.605045760
     0.743265562  0.755955607  0.603664380
     0.000000500  0.000000500  0.704828963
     0.000000500  0.500000475  0.704828963
     0.500000475  0.000000500  0.704828963
     0.500000464  0.500000475  0.704828963
     0.249999994  0.249999472  0.704824995
     0.250000010  0.749999498  0.704824995
     0.749999994  0.249999472  0.704824995
     0.749999983  0.749999498  0.704824995
     0.000000000  0.000000000  0.807317968
     0.000000000  0.500000000  0.807317968
     0.500000000  0.000000000  0.807317968
     0.499999989  0.500000000  0.807317968
     0.249999994  0.250000000  0.807317968
     0.250000010  0.749999974  0.807317968
     0.749999994  0.250000000  0.807317968
     0.749999983  0.749999974  0.807317968

  ion indices of the primitive-cell ions
   primitive index   ion index
                 1           1
                 2           2
                 3           3
                 4           4
                 5           5
                 6           6
                 7           7
                 8           8
                 9           9
                10          10
                11          11
                12          12
                13          13
                14          14
                15          15
                16          16
                17          17
                18          18
                19          19
                20          20
                21          21
                22          22
                23          23
                24          24
                25          25
                26          26
                27          27
                28          28
                29          29
                30          30
                31          31
                32          32
                33          33
                34          34
                35          35
                36          36
                37          37
                38          38
                39          39
                40          40
                41          41
                42          42
                43          43
                44          44
                45          45
                46          46
                47          47
                48          48
                49          49
                50          50
                51          51
                52          52
                53          53
                54          54
                55          55
                56          56
                57          57
                58          58
                59          59
                60          60
                61          61
                62          62
                63          63
                64          64
                65          65
                66          66
                67          67
                68          68
                69          69
                70          70
                71          71
                72          72
                73          73
                74          74
                75          75
                76          76
                77          77
                78          78
                79          79
                80          80
                81          81
                82          82
                83          83
                84          84
                85          85
                86          86
                87          87
                88          88
                89          89
                90          90
                91          91
                92          92
                93          93
                94          94
                95          95
                96          96
                97          97
                98          98
                99          99
               100         100
               101         101
               102         102
               103         103
               104         104
               105         105
               106         106
               107         107
               108         108
               109         109
               110         110
               111         111
               112         112
               113         113
               114         114
               115         115
               116         116
               117         117
               118         118
               119         119
               120         120
               121         121
               122         122
               123         123
               124         124
               125         125
               126         126
               127         127
               128         128
               129         129
               130         130
               131         131
               132         132
               133         133
               134         134
               135         135
               136         136
               137         137
               138         138
               139         139
               140         140
               141         141
               142         142
               143         143
               144         144
               145         145
               146         146
               147         147
               148         148
               149         149
               150         150
               151         151
               152         152
               153         153
               154         154
               155         155
               156         156
               157         157
               158         158
               159         159
               160         160
               161         161
               162         162
               163         163
               164         164
               165         165
               166         166
               167         167
               168         168
               169         169
               170         170
               171         171
               172         172
               173         173
               174         174
               175         175
               176         176
               177         177
               178         178
               179         179
               180         180
               181         181
               182         182
               183         183
               184         184
               185         185
               186         186
               187         187
               188         188
               189         189
               190         190
               191         191
               192         192
               193         193
               194         194
               195         195
               196         196
               197         197
               198         198
               199         199
               200         200
               201         201
               202         202
               203         203
               204         204
               205         205
               206         206
               207         207
               208         208
               209         209
               210         210
               211         211
               212         212
               213         213
               214         214
               215         215
               216         216
               217         217
               218         218
               219         219
               220         220
               221         221
               222         222
               223         223
               224         224
               225         225
               226         226
               227         227
               228         228
               229         229
               230         230
               231         231
               232         232
               233         233
               234         234
               235         235
               236         236
               237         237
               238         238
               239         239
               240         240
               241         241
               242         242
               243         243
               244         244
               245         245
               246         246
               247         247
               248         248
               249         249
               250         250
               251         251
               252         252
               253         253
               254         254
               255         255
               256         256
               257         257
               258         258
               259         259
               260         260
               261         261
               262         262
               263         263
               264         264
               265         265
               266         266
               267         267
               268         268
               269         269
               270         270
               271         271
               272         272
               273         273
               274         274
               275         275
               276         276
               277         277
               278         278
               279         279
               280         280
               281         281
               282         282
               283         283
               284         284
               285         285
               286         286
               287         287
               288         288
               289         289
               290         290
               291         291
               292         292
               293         293
               294         294
               295         295
               296         296
               297         297
               298         298
               299         299
               300         300
               301         301
               302         302
               303         303
               304         304
               305         305
               306         306
               307         307
               308         308
               309         309
               310         310
               311         311
               312         312
               313         313
               314         314
               315         315
               316         316
               317         317
               318         318
               319         319
               320         320
               321         321
               322         322
               323         323
               324         324
               325         325

----------------------------------------------------------------------------------------

 
 
 KPOINTS: Automatic Mesh                          

Automatic generation of k-mesh.
 Grid dimensions read from file:
 generate k-points for:    3    3    1

 Generating k-lattice:

  Cartesian coordinates                     Fractional coordinates (reciprocal lattice)
     0.018456177  0.000005026 -0.000000000     0.333333333  0.000000000  0.000000000
     0.000000000  0.018454135  0.000000000     0.000000000  0.333333333  0.000000000
     0.000000000 -0.000000000  0.016003201     0.000000000  0.000000000  1.000000000

  Length of vectors
     0.018456178  0.018454135  0.016003201

  Shift w.r.t. Gamma in fractional coordinates (k-lattice)
     0.000000000  0.000000000  0.000000000

 
 Subroutine IBZKPT returns following result:
 ===========================================
 
 Found      5 irreducible k-points:
 
 Following reciprocal coordinates:
            Coordinates               Weight
  0.000000  0.000000  0.000000      1.000000
  0.333333  0.000000  0.000000      2.000000
  0.000000  0.333333  0.000000      2.000000
  0.333333  0.333333  0.000000      2.000000
 -0.333333  0.333333  0.000000      2.000000
 
 Following cartesian coordinates:
            Coordinates               Weight
  0.000000  0.000000  0.000000      1.000000
  0.018456  0.000005  0.000000      2.000000
  0.000000  0.018454  0.000000      2.000000
  0.018456  0.018459  0.000000      2.000000
 -0.018456  0.018449  0.000000      2.000000
 


--------------------------------------------------------------------------------------------------------




 Dimension of arrays:
   k-points           NKPTS =      5   k-points in BZ     NKDIM =      5   number of bands    NBANDS=    732
   number of dos      NEDOS =    301   number of ions     NIONS =    325
   non local maximal  LDIM  =      5   non local SUM 2l+1 LMDIM =     13
   total plane-waves  NPLWV = ******
   max r-space proj   IRMAX =   3336   max aug-charges    IRDMAX=  19845
   dimension x,y,z NGX =   100 NGY =  100 NGZ =  350
   dimension x,y,z NGXF=   200 NGYF=  200 NGZF=  700
   support grid    NGXF=   200 NGYF=  200 NGZF=  700
   ions per type =             143  39  47  72  24
   NGX,Y,Z   is equivalent  to a cutoff of   9.20,  9.20,  9.31 a.u.
   NGXF,Y,Z  is equivalent  to a cutoff of  18.41, 18.41, 18.62 a.u.

 SYSTEM =  PSC                                     
 POSCAR =   H  C  N  I Pb                          

 Startparameter for this run:
   NWRITE =      2    write-flag & timer
   PREC   = normal    normal or accurate (medium, high low for compatibility)
   ISTART =      0    job   : 0-new  1-cont  2-samecut
   ICHARG =      1    charge: 1-file 2-atom 10-const
   ISPIN  =      1    spin polarized calculation?
   LNONCOLLINEAR =      F non collinear calculations
   LSORBIT =      F    spin-orbit coupling
   INIWAV =      1    electr: 0-lowe 1-rand  2-diag
   LASPH  =      F    aspherical Exc in radial PAW
 Electronic Relaxation 1
   ENCUT  =  500.0 eV  36.75 Ry    6.06 a.u.  32.93 32.93113.93*2*pi/ulx,y,z
   ENINI  =  500.0     initial cutoff
   ENAUG  =  644.9 eV  augmentation charge cutoff
   NELM   =    600;   NELMIN=  2; NELMDL=  0     # of ELM steps 
   EDIFF  = 0.1E-03   stopping-criterion for ELM
   LREAL  =      T    real-space projection
   NLSPLINE    = F    spline interpolate recip. space projectors
   LCOMPAT=      F    compatible to vasp.4.4
   GGA_COMPAT  = F    GGA compatible to vasp.4.4-vasp.4.6
   LMAXPAW     = -100 max onsite density
   LMAXMIX     =    2 max onsite mixed and CHGCAR
   VOSKOWN=      0    Vosko Wilk Nusair interpolation
   ROPT   =   -0.00050  -0.00050  -0.00050  -0.00050
   ROPT   =   -0.00050
 Ionic relaxation
   EDIFFG = 0.1E-02   stopping-criterion for IOM
   NSW    =      0    number of steps for IOM
   NBLOCK =      1;   KBLOCK =      1    inner block; outer block 
   IBRION =     -1    ionic relax: 0-MD 1-quasi-New 2-CG
   NFREE  =      0    steps in history (QN), initial steepest desc. (CG)
   ISIF   =      2    stress and relaxation
   IWAVPR =     10    prediction:  0-non 1-charg 2-wave 3-comb
   ISYM   =      0    0-nonsym 1-usesym 2-fastsym
   LCORR  =      T    Harris-Foulkes like correction to forces

   POTIM  = 0.5000    time-step for ionic-motion
   TEIN   =    0.0    initial temperature
   TEBEG  =    0.0;   TEEND  =   0.0 temperature during run
   SMASS  =  -3.00    Nose mass-parameter (am)
   estimated Nose-frequenzy (Omega)   =  0.10E-29 period in steps = 0.13E+47 mass=  -0.745E-26a.u.
   SCALEE = 1.0000    scale energy and forces
   NPACO  =    256;   APACO  = 16.0  distance and # of slots for P.C.
   PSTRESS=    0.0 pullay stress

  Mass of Ions in am
   POMASS =   1.00 12.01 14.00126.90207.20
  Ionic Valenz
   ZVAL   =   1.00  4.00  5.00  7.00  4.00
  Atomic Wigner-Seitz radii
   RWIGS  =  -1.00 -1.00 -1.00 -1.00 -1.00
  virtual crystal weights 
   VCA    =   1.00  1.00  1.00  1.00  1.00
   NELECT =    1134.0000    total number of electrons
   NUPDOWN=      -1.0000    fix difference up-down

 DOS related values:
   EMIN   =  10.00;   EMAX   =-10.00  energy-range for DOS
   EFERMI =   0.00
   ISMEAR =     0;   SIGMA  =   0.05  broadening in eV -4-tet -1-fermi 0-gaus

 Electronic relaxation 2 (details)
   IALGO  =     38    algorithm
   LDIAG  =      T    sub-space diagonalisation (order eigenvalues)
   LSUBROT=      F    optimize rotation matrix (better conditioning)
   TURBO    =      0    0=normal 1=particle mesh
   IRESTART =      0    0=no restart 2=restart with 2 vectors
   NREBOOT  =      0    no. of reboots
   NMIN     =      0    reboot dimension
   EREF     =   0.00    reference energy to select bands
   IMIX   =      4    mixing-type and parameters
     AMIX     =   0.40;   BMIX     =  0.01
     AMIX_MAG =   1.60;   BMIX_MAG =  0.01
     AMIN     =   0.01
     WC   =   100.;   INIMIX=   1;  MIXPRE=   1;  MAXMIX= -45

 Intra band minimization:
   WEIMIN = 0.0000     energy-eigenvalue tresh-hold
   EBREAK =  0.34E-07  absolut break condition
   DEPER  =   0.30     relativ break condition  

   TIME   =   0.40     timestep for ELM

  volume/ion in A,a.u.               =      62.72       423.28
  Fermi-wavevector in a.u.,A,eV,Ry     =   0.624944  1.180972  5.313816  0.390554
  Thomas-Fermi vector in A             =   1.685677
 
 Write flags
   LWAVE        =      F    write WAVECAR
   LDOWNSAMPLE  =      F    k-point downsampling of WAVECAR
   LCHARG       =      T    write CHGCAR
   LVTOT        =      T    write LOCPOT, total local potential
   LVHAR        =      F    write LOCPOT, Hartree potential only
   LELF         =      F    write electronic localiz. function (ELF)
   LORBIT       =      0    0 simple, 1 ext, 2 COOP (PROOUT), +10 PAW based schemes


 Dipole corrections
   LMONO  =      F    monopole corrections only (constant potential shift)
   LDIPOL =      T    correct potential (dipole corrections)
   IDIPOL =      3    1-x, 2-y, 3-z, 4-all directions 
   EPSILON=  1.0000000 bulk dielectric constant

 Exchange correlation treatment:
   GGA     =    --    GGA type
   LEXCH   =     8    internal setting for exchange type
   VOSKOWN=      0    Vosko Wilk Nusair interpolation
   LHFCALC =     F    Hartree Fock is set to
   LHFONE  =     F    Hartree Fock one center treatment
   AEXX    =    0.0000 exact exchange contribution

 Linear response parameters
   LEPSILON=     F    determine dielectric tensor
   LRPA    =     F    only Hartree local field effects (RPA)
   LNABLA  =     F    use nabla operator in PAW spheres
   LVEL    =     F    velocity operator in full k-point grid
   LINTERFAST=   F  fast interpolation
   KINTER  =     0    interpolate to denser k-point grid
   CSHIFT  =0.1000    complex shift for real part using Kramers Kronig
   OMEGAMAX=  -1.0    maximum frequency
   DEG_THRESHOLD= 0.2000000E-02 threshold for treating states as degnerate
   RTIME   =   -0.100 relaxation time in fs
  (WPLASMAI=    0.000 imaginary part of plasma frequency in eV, 0.658/RTIME)
   DFIELD  = 0.0000000 0.0000000 0.0000000 field for delta impulse in time
 
 Orbital magnetization related:
   ORBITALMAG=     F  switch on orbital magnetization
   LCHIMAG   =     F  perturbation theory with respect to B field
   DQ        =  0.001000  dq finite difference perturbation B field
   LLRAUG    =     F  two centre corrections for induced B field



--------------------------------------------------------------------------------------------------------


 Static calculation
 charge density and potential will be updated during run
 non-spin polarized calculation
 Variant of blocked Davidson
 Davidson routine will perform the subspace rotation
 perform sub-space diagonalisation
    after iterative eigenvector-optimisation
 modified Broyden-mixing scheme, WC =      100.0
 initial mixing is a Kerker type mixing with AMIX =  0.4000 and BMIX =      0.0100
 Hartree-type preconditioning will be used
 using additional bands           165
 real space projection scheme for non local part
[...]
     13.54561      0.00000     45.35368         0.005737     -0.005655      0.013820
     13.54315      9.03140     45.35368        -0.006127      0.001925     -0.014409
     13.00304      8.04839     33.64085        -0.008227      0.005897      0.024237
     13.41267      8.98625     32.21068         0.057149     -0.004309      0.046573
     11.97058      9.99185     34.72263         0.054849      0.061014     -0.059104
     12.82574     11.54531     34.63647        -0.034550      0.007591     -0.024784
     15.42221      9.21098     35.42799        -0.041627      0.009785     -0.045318
     14.32762     10.46619     36.01534        -0.006594      0.016465      0.048425
     15.87440     10.10733     33.16686         0.012634     -0.030637      0.004309
     14.60576     11.14835     32.49176         0.004999      0.065775     -0.048592
     15.76450      8.35254     32.32305         0.053219     -0.067755     -0.038477
     15.59515      7.69211     33.94110         0.015497     -0.013263     -0.002264
     15.76935      5.89151     32.40097        -0.006443     -0.025533     -0.042707
     14.16649      5.85158     33.10855         0.018622      0.061553      0.005666
     11.53321      9.98893     32.29546         0.043583     -0.014676     -0.003372
     12.58337     11.42700     32.05264        -0.044953     -0.026771      0.042482
     11.09635     11.54405     32.98788        -0.058016      0.094751      0.004759
     13.80674      8.42602     37.17011        -0.057043      0.005065     -0.029904
     13.64314      7.48224     35.69106         0.003584     -0.068785     -0.019416
     12.42959      8.71634     36.10742         0.056644      0.019151      0.001720
     14.77328     12.51350     34.72403         0.030858      0.016051     -0.021742
     16.19020     12.53278     33.67313        -0.008174      0.006654     -0.024674
     16.20913     11.49594     35.10427        -0.065477     -0.019543      0.001505
     14.82489      6.87757     30.29379         0.075349      0.079967     -0.134174
     14.21679      5.27540     30.69710         0.016324     -0.060547     -0.026182
     11.97742      5.45109     32.37188        -0.036108      0.139441     -0.093040
     13.22175      8.31377     29.39546        -0.007943      0.002204     -0.004707
      9.67145      6.37143     32.27866        -0.013418      0.000167     -0.011365
     10.91238      9.20403     29.27732        -0.023045      0.055395     -0.026823
      9.13071      8.26195     30.76011        -0.084485      0.027524     -0.037896
     17.98272      4.33618     34.63977        -0.033874     -0.036626      0.109954
      0.59265     13.91900     35.25468        -0.029111      0.036137     -0.031892
      8.43738      4.09181     34.81659         0.077229     -0.154326      0.045286
      9.04017     13.66465     34.68765        -0.153861      0.127540      0.196682
      4.24753      9.59023     34.92692         0.123810      0.182469     -0.114252
      4.82647     17.87965     34.84636        -0.026837     -0.042460      0.082105
     14.07487     17.76108     35.17125         0.039474      0.072378     -0.098414
      0.07588      4.42174     40.51989         0.025886      0.028781     -0.383066
      0.30071     13.87579     40.85587        -0.375793      0.048139      0.054479
      9.02206      4.50846     40.43609        -0.299668      0.342559     -0.146942
      8.98739     13.56704     40.46823        -0.016743     -0.002090     -0.132334
      4.59146      9.01461     40.51877         0.095060      0.194284      0.085944
      4.48926      0.03024     40.43416         0.234353      0.234569      0.002090
     13.42576      9.36912     40.81977        -0.079919     -0.094617     -0.087652
     13.57758     18.04524     40.58640         0.249182      0.282658     -0.066867
      9.02897      4.51561     46.44552         0.010204      0.006958      0.018551
      9.02651     13.54701     46.44552         0.021197     -0.004669      0.036222
     18.05937      4.51561     46.44552         0.015323      0.005843      0.035889
     18.05691     13.54701     46.44552         0.016435      0.001878     -0.002862
      4.51521      0.00002     46.44421        -0.004228     -0.006237      0.047120
      4.51275      9.03142     46.44421        -0.006611     -0.005107      0.036821
     13.54561      0.00002     46.44421        -0.012054     -0.013535      0.034263
     13.54315      9.03142     46.44421        -0.008491     -0.003532      0.012400
     12.76797      6.83527     30.89521        -0.082205     -0.127483      0.171151
     11.74713      6.28171     31.69206        -0.011532      0.049930     -0.061151
     12.43957      7.88356     30.02649         0.143347     -0.049744     -0.045866
     10.44516      6.79258     31.63567         0.182231     -0.100720      0.045604
     11.14206      8.38814     29.96180        -0.244837     -0.048494      0.096169
     10.13788      7.85177     30.77799         0.198504      0.030054     -0.062466
     13.80054      8.63884     33.17443         0.049277      0.015947     -0.059099
     12.62711     10.61083     34.09686         0.024651     -0.089106      0.030648
     14.36845      9.52462     35.45775        -0.038127      0.050415      0.007987
     15.04034     10.76811     33.42224         0.040862     -0.014476     -0.064730
     15.06965      7.81369     32.98276        -0.129505      0.025224     -0.025190
     14.80149      6.41791     32.41124         0.021459     -0.069168      0.048587
     11.94515     10.88761     32.76828         0.148067      0.001284      0.003867
     13.50005      8.48102     36.11815         0.000402     -0.057604      0.017691
     15.56820     11.88354     34.30381        -0.065879     -0.007753     -0.034514
     14.19104      6.33197     31.00351        -0.077466      0.049737      0.071850
      1.04957      4.74547     35.16763         0.169356      0.163901     -0.068229
      0.52896     12.82176     35.96348        -0.015417     -0.022856      0.018601
      9.68580      3.79407     35.09138         0.055352      0.032071      0.020329
      8.67450     12.47873     35.11602         0.007244     -0.024616     -0.052741
      7.90283      5.28970     34.83604        -0.036143      0.214059      0.052516
      8.55979     14.79732     35.15165         0.184731     -0.065870     -0.178132
     16.79749      4.59428     35.14557        -0.011342      0.157547     -0.199719
     17.66798     14.78583     35.13818        -0.235910      0.008279      0.095637
      4.15788      8.35357     35.35057        -0.101264     -0.134761      0.034614
      3.62770      0.17102     35.22271        -0.097143      0.098773      0.004160
     12.84143     17.81332     35.60784        -0.143645     -0.288256      0.067138
      5.90769      0.52287     35.09145         0.037099      0.121195     -0.004779
      5.36244     10.23405     34.66841         0.042278      0.087565     -0.023596
     14.88660      0.72345     35.06401        -0.061269      0.284497     -0.024690
      0.87830      3.54641     41.07013         0.107222     -0.105026     -0.019619
      1.00543     12.79975     41.09581         0.358697     -0.153815      0.010572
      9.79883      3.71357     41.12448         0.205504     -0.173965     -0.025883
      9.80816     12.70150     41.01390         0.036444     -0.009639      0.136836
      3.83674      8.14777     41.14917         0.050057      0.055032      0.117065
      3.65695     17.27437     41.03600        -0.057569     -0.074209     -0.126244
     12.57635      8.40361     41.07262        -0.032267     -0.029990      0.003683
     12.80190     17.24990     41.27918        -0.080681     -0.084078     -0.003500
      8.13603      5.34530     40.93555         0.148321     -0.151751     -0.282630
      8.23102     14.43005     41.10421        -0.038086     -0.007912     -0.021504
     17.28189      5.19058     41.14828        -0.207650      0.194939      0.019990
     17.10327     14.03466     41.20488        -0.079731     -0.056055      0.057163
      5.34003      0.84499     41.02234        -0.145942     -0.107231     -0.436921
      5.30580      9.96904     41.07543        -0.140465     -0.197283      0.025417
     14.40058      0.89134     41.07576        -0.170326     -0.227759     -0.301855
     14.72818      9.27791     40.96235         0.035293      0.176854     -0.020358
      0.82731      3.68697     47.03596         0.017768     -0.025182     -0.087756
      0.82485     12.71837     47.03596         0.024311     -0.022990     -0.063781
      9.85771      3.68697     47.03596         0.023538     -0.028893     -0.076739
      9.85525     12.71837     47.03596         0.012617     -0.016587     -0.076867
      3.68432      8.20234     47.03465        -0.006593     -0.011229     -0.064663
      3.68186     17.23373     47.03465        -0.009125     -0.004316     -0.063395
     12.71472      8.20234     47.03465        -0.007198     -0.010972     -0.049741
     12.71226     17.23373     47.03465        -0.009704     -0.002873     -0.072114
      8.20068      5.34457     47.03603        -0.023714      0.018205     -0.080774
      8.19822     14.37597     47.03603        -0.025599      0.024638     -0.082224
     17.23108      5.34457     47.03603        -0.027132      0.018675     -0.098741
     17.22862     14.37597     47.03603        -0.022558      0.027533     -0.064241
      5.34365      0.82909     47.03465         0.013030      0.015295     -0.065951
      5.34119      9.86049     47.03465         0.018591      0.014991     -0.061621
     14.37405      0.82909     47.03465         0.021650      0.024663     -0.067176
     14.37159      9.86049     47.03465         0.020913      0.019656     -0.062177
     13.96773      9.88118     34.03350        -0.074876     -0.110272     -0.057957
      9.38573      0.19473     34.57347         0.025410     -0.007170     -0.009371
      8.85069      8.92543     34.51322        -0.022772      0.047814      0.004923
      0.22442      0.15413     34.40609        -0.016120      0.014327     -0.005398
      0.42704      9.01525     34.64573         0.023143     -0.021356      0.018016
      4.54158      4.16281     34.55791        -0.014859      0.018984      0.001385
      4.57062     13.78212     34.50216        -0.003719     -0.020461      0.035495
     13.27051      3.84186     34.73096         0.023580     -0.044754     -0.013320
     12.63593     14.38646     34.70235         0.002504      0.009374     -0.019223
     18.04081     17.81092     40.85757        -0.015345      0.010022     -0.011440
      0.23013      9.03840     40.94635        -0.003827     -0.002760      0.005726
      8.93045      0.07435     40.92660         0.019107     -0.008314      0.029553
      9.02781      8.95241     40.85781         0.003483      0.016189      0.013465
      4.55116      4.46375     40.90530        -0.000584      0.013450      0.000958
      4.52656     13.61679     40.87523        -0.008245      0.015097      0.006599
     13.49949      4.86934     40.92983         0.003408     -0.008861      0.011069
     13.52358     13.35607     40.90091        -0.012208     -0.004704     -0.011947
      2.35044      2.19248     37.94694        -0.003754     -0.001802      0.021057
      2.70278     10.98846     37.95339         0.035105     -0.029696     -0.006045
     11.53299      2.07547     38.24156        -0.009875      0.005265      0.002404
     11.40575     11.15917     37.89481        -0.010582      0.033084      0.023222
      6.51743      7.04223     37.80955         0.006056     -0.033667     -0.004491
      6.67046     16.00553     37.96998         0.002587     -0.036793     -0.004972
     16.04930      6.62984     37.96325         0.023078      0.032190      0.037008
     15.66089     15.93578     37.89258        -0.010896     -0.016182     -0.015593
      2.19145      6.62171     38.05183         0.014278     -0.007399     -0.026148
      2.22393     15.81027     37.88189         0.000818      0.011360      0.017596
     10.80379      6.31565     37.55640         0.003209     -0.017763     -0.005061
     11.13874     15.66778     38.41179         0.003082      0.001968      0.001677
      7.00183      2.44168     37.94388         0.003539     -0.003025     -0.001422
      6.96131     11.48227     38.04597        -0.019751     -0.013430     -0.027433
     15.93844      2.44769     38.16708         0.010149     -0.026929     -0.019545
     16.13774     11.55214     38.29555        -0.035282      0.030100     -0.126881
      0.00000      0.00000     47.17356        -0.000853      0.007074      0.344648
     -0.00246      9.03140     47.17356        -0.002028     -0.003999      0.469171
      9.03040      0.00000     47.17356         0.001138      0.001646      0.413816
      9.02794      9.03140     47.17356        -0.003899      0.001264      0.376747
      4.51398      4.51570     47.17425        -0.001281     -0.003417      0.415077
      4.51152     13.54710     47.17425         0.003843      0.001550      0.400989
     13.54438      4.51570     47.17425         0.007167     -0.000106      0.399768
     13.54192     13.54710     47.17425        -0.002732     -0.000925      0.420287
      2.45192      2.06295     44.04013        -0.012498     -0.019050     -0.047071
      2.44946     11.09435     44.04013         0.058783     -0.028173     -0.014616
     11.48232      2.06295     44.04013         0.024585      0.009485     -0.071490
     11.47986     11.09435     44.04013        -0.085823      0.038499     -0.042867
      6.57602      6.96845     44.04013         0.007035     -0.031029     -0.076402
      6.57356     15.99985     44.04013         0.012592      0.008998     -0.039321
     15.60642      6.96845     44.04013         0.028154     -0.024201     -0.086091
     15.60396     15.99985     44.04013        -0.042206      0.047885     -0.029401
      2.06108      6.57881     44.04000         0.032494     -0.026320     -0.026317
      2.05862     15.61021     44.04000         0.052247      0.064843     -0.029476
     11.09148      6.57881     44.04000        -0.032418     -0.029673     -0.001772
     11.08902     15.61021     44.04000        -0.039001     -0.008457     -0.031549
      6.96686      2.45259     44.04007        -0.010757     -0.004015     -0.044299
      6.96440     11.48399     44.04007        -0.010226      0.005336     -0.060893
     15.99726      2.45259     44.04007         0.017671      0.018252     -0.089100
     15.99481     11.48399     44.04007         0.040372      0.024138     -0.108733
      2.43163      2.08322     50.06849         0.004683     -0.014121      0.023042
      2.42917     11.11462     50.06849         0.016590     -0.005517      0.027015
     11.46203      2.08322     50.06849         0.011901     -0.008873      0.024133
     11.45957     11.11462     50.06849         0.006218     -0.013057      0.025693
      6.59631      6.94818     50.06849        -0.010226      0.010364      0.025127
      6.59385     15.97958     50.06849        -0.008646      0.012581      0.024723
     15.62671      6.94818     50.06849        -0.015895      0.001874      0.023382
     15.62425     15.97958     50.06849        -0.004451      0.019786      0.026750
      2.08113      6.59901     50.06905        -0.004647     -0.016783      0.024726
      2.07867     15.63041     50.06905        -0.014866     -0.002478      0.025510
     11.11153      6.59901     50.06905        -0.009965     -0.011256      0.026049
     11.10907     15.63041     50.06905        -0.012367     -0.006366      0.024735
      6.94681      2.43239     50.06905         0.010458      0.009490      0.024379
      6.94435     11.46379     50.06905         0.011253      0.009689      0.025815
     15.97721      2.43239     50.06905         0.014273      0.007004      0.023455
     15.97475     11.46379     50.06905         0.005887      0.013293      0.027003
     18.03022      0.06690     37.73163        -0.024938     -0.007230      0.005243
      0.08744      9.11394     37.75368         0.008327     -0.006142      0.004046
      9.11926      0.01562     37.82998        -0.012701      0.042323     -0.006600
      9.06936      8.99981     37.68881        -0.019198     -0.006870      0.004488
      4.55784      4.49526     37.76313         0.005666      0.028712     -0.016514
      4.53372     13.61203     37.67880        -0.019982     -0.014350     -0.034673
     13.49016      4.53554     37.80780         0.003687      0.000979      0.016364
     13.42025     13.65467     37.72148        -0.006870      0.010386      0.020535
      0.00001      0.00001     44.04300        -0.011545     -0.131567      0.091336
     -0.00245      9.03141     44.04300         0.042393      0.035681      0.180775
      9.03041      0.00001     44.04300        -0.001177     -0.011374      0.164745
      9.02795      9.03141     44.04300         0.075786     -0.026008      0.121543
      4.51397      4.51569     44.04275         0.000443      0.039740      0.121914
      4.51151     13.54709     44.04275        -0.063018      0.002541      0.115324
     13.54437      4.51569     44.04275        -0.109066      0.045480      0.207504
     13.54191     13.54709     44.04275         0.012366     -0.007844      0.123907
      0.00000      0.00000     50.44728        -0.000970     -0.004846     -0.612695
     -0.00246      9.03140     50.44728        -0.000213      0.005459     -0.647251
      9.03040      0.00000     50.44728        -0.000160     -0.002103     -0.630405
      9.02794      9.03140     50.44728         0.001242      0.003005     -0.625076
      4.51397      4.51570     50.44728        -0.000028      0.007468     -0.631401
      4.51151     13.54710     50.44728        -0.001549     -0.007281     -0.631003
     13.54437      4.51570     50.44728        -0.000901      0.008265     -0.627049
     13.54191     13.54710     50.44728         0.002653     -0.006948     -0.637389
 -----------------------------------------------------------------------------------
    total drift:                               -0.001433     -0.125027      0.728433


--------------------------------------------------------------------------------------------------------



  FREE ENERGIE OF THE ION-ELECTRON SYSTEM (eV)
  ---------------------------------------------------
  free  energy   TOTEN  =     -1576.26366141 eV

  energy  without entropy=    -1576.26366141  energy(sigma->0) =    -1576.26366141
 


--------------------------------------------------------------------------------------------------------


    POTLOK:  cpu time    0.5043: real time    0.5042


--------------------------------------------------------------------------------------------------------


     LOOP+:  cpu time  264.7086: real time  265.2781
 vacuum level on the upper side and lower side of the slab         2.332         1.514
    4ORBIT:  cpu time    0.0000: real time    0.0000

 total amount of memory used by VASP MPI-rank0  8653586. kBytes
=======================================================================

   base      :      30000. kBytes
   nonlr-proj:      53624. kBytes
   fftplans  :     249280. kBytes
   grid      :     701440. kBytes
   one-center:       2636. kBytes
   wavefun   :    7616606. kBytes
 
  
  
 General timing and accounting informations for this job:
 ========================================================
  
                  Total CPU time used (sec):      479.721
                            User time (sec):      391.469
                          System time (sec):       88.251
                         Elapsed time (sec):      480.124
  
                   Maximum memory used (kb):    10306708.
                   Average memory used (kb):          N/A
  
                          Minor page faults:      3542571
                          Major page faults:           14
                 Voluntary context switches:        10896
