<?xml version="1.0" encoding="ISO-8859-1"?>
<modeling>
 <generator>
  <i name="program" type="string">vasp </i>
  <i name="version" type="string">6.2.1  </i>
  <i name="subversion" type="string">16May21 (build Nov 15 2021 14:57:28) complex                          parallel </i>
  <i name="platform" type="string">LinuxPGI </i>
  <i name="date" type="string">2023 07 30 </i>
  <i name="time" type="string">22:40:43 </i>
 </generator>
 <incar>
  <i type="string" name="SYSTEM">PSC</i>
  <i type="int" name="ISTART">     1</i>
  <i type="string" name="PREC">Normal</i>
  <i name="BMIX">      0.01000000</i>
  <i name="AMIN">      0.01000000</i>
  <i type="int" name="ICHARG">     1</i>
  <i type="int" name="NELM">   600</i>
  <i type="int" name="ISYM">     0</i>
  <i name="ENCUT">    500.00000000</i>
  <i type="string" name="LREAL">Auto</i>
  <i type="int" name="ISMEAR">     0</i>
  <i name="SIGMA">      0.05000000</i>
  <i type="logical" name="LWAVE"> F  </i>
  <i type="logical" name="LVTOT"> T  </i>
  <i type="logical" name="GGA_COMPAT"> F  </i>
  <i type="logical" name="LDIPOL"> T  </i>
  <i type="int" name="IDIPOL">     3</i>
  <i type="int" name="IVDW">    12</i>
 </incar>
 <primitive_cell>
  <structure name="primitive_cell" >
   <crystal>
    <varray name="basis" >
     <v>      18.06080055       0.00000000       0.00000000 </v>
     <v>      -0.00491865      18.06279945       0.00000000 </v>
     <v>       0.00000000       0.00000000      62.48749924 </v>
    </varray>
    <i name="volume">  20385.21054034 </i>
    <varray name="rec_basis" >
     <v>       0.05536853       0.00001508      -0.00000000 </v>
     <v>       0.00000000       0.05536240       0.00000000 </v>
     <v>       0.00000000      -0.00000000       0.01600320 </v>
    </varray>
   </crystal>
   <varray name="positions" >
    <v>       0.46494572       0.33963508       0.56238366 </v>
    <v>       0.43714067       0.82215405       0.57492676 </v>
    <v>       0.92333988       0.28875465       0.57551593 </v>
    <v>       0.93360069       0.81779127       0.57255342 </v>
    <v>       0.32531256       0.07607788       0.57067066 </v>
    <v>       0.34885067       0.54395282       0.55649851 </v>
    <v>       0.80732570       0.09316619       0.56460389 </v>
    <v>       0.10870728       0.25045456       0.55608101 </v>
    <v>       0.07475362       0.67650568       0.57745754 </v>
    <v>       0.55258214       0.15568269       0.56102127 </v>
    <v>       0.50287534       0.64321968       0.55592235 </v>
    <v>       0.37901834       0.01126536       0.55732326 </v>
    <v>       0.29354425       0.62175905       0.55103593 </v>
    <v>       0.87718040       0.03264636       0.55567230 </v>
    <v>       0.06056721       0.29535143       0.57627267 </v>
    <v>       0.98566108       0.69797438       0.58546756 </v>
    <v>       0.57304724       0.24827692       0.56748643 </v>
    <v>       0.44506645       0.68400411       0.57476126 </v>
    <v>       0.27446823       0.43387969       0.57177104 </v>
    <v>       0.19009235       0.05662057       0.57229830 </v>
    <v>       0.68780758       0.03275577       0.57603086 </v>
    <v>       0.38151586       0.29634836       0.55508557 </v>
    <v>       0.49564548       0.86872332       0.55740952 </v>
    <v>       0.88249141       0.23536120       0.55544825 </v>
    <v>       0.98829517       0.86872416       0.55513148 </v>
    <v>       0.17899676       0.44238836       0.56918043 </v>
    <v>       0.15538060       0.97868166       0.56002339 </v>
    <v>       0.68228645       0.93739287       0.57047628 </v>
    <v>       0.43053297       0.18108802       0.55263324 </v>
    <v>       0.54258352       0.76001575       0.54261018 </v>
    <v>       0.99864445       0.20639101       0.53985309 </v>
    <v>       0.08430045       0.78104090       0.55538440 </v>
    <v>       0.18346782       0.56014461       0.55607002 </v>
    <v>       0.27350823       0.93721361       0.54920891 </v>
    <v>       0.79916447       0.92907617       0.55773033 </v>
    <v>       0.44068452       0.30232535       0.67101458 </v>
    <v>       0.45342477       0.80437923       0.67402165 </v>
    <v>       0.94892242       0.28664528       0.67467425 </v>
    <v>       0.91821543       0.73770381       0.66783346 </v>
    <v>       0.30148666       0.05180655       0.67257178 </v>
    <v>       0.29694634       0.56122422       0.67344531 </v>
    <v>       0.80535760       0.05845387       0.67322676 </v>
    <v>       0.84124179       0.46856625       0.66183819 </v>
    <v>       0.08361543       0.16706034       0.64758131 </v>
    <v>       0.11133961       0.70763452       0.65387309 </v>
    <v>       0.57848665       0.17174908       0.65008272 </v>
    <v>       0.57372480       0.66993870       0.64653080 </v>
    <v>       0.18386245       0.41318445       0.64982797 </v>
    <v>       0.16905052       0.92431177       0.64736459 </v>
    <v>       0.64060179       0.47402300       0.65526570 </v>
    <v>       0.67540738       0.91900850       0.65250655 </v>
    <v>       0.05235099       0.18669563       0.67330013 </v>
    <v>       0.03575039       0.66430022       0.66596828 </v>
    <v>       0.54242627       0.20237923       0.67436761 </v>
    <v>       0.55217492       0.69839069       0.67246226 </v>
    <v>       0.20514364       0.44978875       0.67471216 </v>
    <v>       0.19862297       0.95057736       0.67289966 </v>
    <v>       0.71309854       0.41340380       0.66200521 </v>
    <v>       0.70609847       0.95519151       0.67688978 </v>
    <v>       0.41988738       0.32744956       0.64485579 </v>
    <v>       0.42296501       0.83314009       0.64903692 </v>
    <v>       0.92442263       0.32212438       0.64956638 </v>
    <v>       0.91997559       0.82442662       0.65538334 </v>
    <v>       0.32839779       0.07957606       0.64708817 </v>
    <v>       0.32304560       0.58671558       0.64768985 </v>
    <v>       0.82884930       0.07931495       0.64681388 </v>
    <v>       0.84861637       0.55691566       0.65121912 </v>
    <v>       0.00708805       0.25057447       0.63097331 </v>
    <v>       0.04292873       0.81362997       0.64512152 </v>
    <v>       0.50536474       0.24878776       0.62969089 </v>
    <v>       0.49407368       0.75086179       0.63017627 </v>
    <v>       0.24777703       0.00244513       0.62956849 </v>
    <v>       0.25654400       0.49490180       0.63104132 </v>
    <v>       0.75031302       0.99369139       0.63207698 </v>
    <v>       0.72154794       0.57098730       0.64717614 </v>
    <v>       0.44874502       0.30128397       0.76888902 </v>
    <v>       0.44874501       0.80128391       0.76888902 </v>
    <v>       0.94874497       0.30128397       0.76888902 </v>
    <v>       0.94874501       0.80128391       0.76888902 </v>
    <v>       0.30127600       0.05129450       0.76887296 </v>
    <v>       0.30127601       0.55129450       0.76887296 </v>
    <v>       0.80127594       0.05129450       0.76887296 </v>
    <v>       0.80127598       0.55129450       0.76887296 </v>
    <v>       0.07877100       0.17118050       0.74344197 </v>
    <v>       0.07877101       0.67118045       0.74344197 </v>
    <v>       0.57877100       0.17118050       0.74344197 </v>
    <v>       0.57877099       0.67118045       0.74344197 </v>
    <v>       0.17119950       0.42117448       0.74342103 </v>
    <v>       0.17119950       0.92117451       0.74342103 </v>
    <v>       0.67119951       0.42117448       0.74342103 </v>
    <v>       0.67119950       0.92117451       0.74342103 </v>
    <v>       0.05125600       0.19871499       0.76888902 </v>
    <v>       0.05125600       0.69871493       0.76888902 </v>
    <v>       0.55125603       0.19871499       0.76888902 </v>
    <v>       0.55125602       0.69871493       0.76888902 </v>
    <v>       0.19872349       0.44870397       0.76887205 </v>
    <v>       0.19872349       0.94870397       0.76887205 </v>
    <v>       0.69872352       0.44870397       0.76887205 </v>
    <v>       0.69872351       0.94870397       0.76887205 </v>
    <v>       0.42123152       0.32881747       0.74344197 </v>
    <v>       0.42123151       0.82881744       0.74344197 </v>
    <v>       0.92123147       0.32881747       0.74344197 </v>
    <v>       0.92123151       0.82881744       0.74344197 </v>
    <v>       0.32880050       0.07882500       0.74342103 </v>
    <v>       0.32880049       0.57882496       0.74342103 </v>
    <v>       0.82880048       0.07882500       0.74342103 </v>
    <v>       0.82880052       0.57882496       0.74342103 </v>
    <v>       0.00000350       0.25000148       0.72582199 </v>
    <v>       0.00000350       0.75000145       0.72582199 </v>
    <v>       0.50000351       0.25000148       0.72582199 </v>
    <v>       0.50000350       0.75000145       0.72582199 </v>
    <v>       0.25000050       0.00000000       0.72580398 </v>
    <v>       0.25000052       0.50000000       0.72580398 </v>
    <v>       0.75000050       0.00000000       0.72580398 </v>
    <v>       0.75000049       0.50000000       0.72580398 </v>
    <v>       0.72008080       0.44557835       0.53836122 </v>
    <v>       0.74277549       0.49750024       0.51547395 </v>
    <v>       0.66294435       0.55317278       0.55567328 </v>
    <v>       0.71031619       0.63917612       0.55429446 </v>
    <v>       0.85404408       0.50994175       0.56696130 </v>
    <v>       0.79345721       0.57943335       0.57636070 </v>
    <v>       0.87909440       0.55956621       0.53077596 </v>
    <v>       0.80886749       0.61719950       0.51997223 </v>
    <v>       0.87298313       0.46241691       0.51727222 </v>
    <v>       0.86359637       0.42585370       0.54316632 </v>
    <v>       0.87321442       0.32616842       0.51851918 </v>
    <v>       0.78446616       0.32395752       0.52984273 </v>
    <v>       0.63872765       0.55301138       0.51683073 </v>
    <v>       0.69689496       0.63262598       0.51294488 </v>
    <v>       0.61456248       0.63910642       0.52791168 </v>
    <v>       0.76458589       0.46648492       0.59484072 </v>
    <v>       0.75551316       0.41423499       0.57117119 </v>
    <v>       0.68833952       0.48255733       0.57783432 </v>
    <v>       0.81816360       0.69277751       0.55569568 </v>
    <v>       0.89661671       0.69384476       0.53887786 </v>
    <v>       0.89764901       0.63644289       0.56178076 </v>
    <v>       0.82093630       0.38075866       0.48479753 </v>
    <v>       0.78724207       0.29205857       0.49125191 </v>
    <v>       0.66325433       0.30178549       0.51805369 </v>
    <v>       0.73219429       0.46027052       0.47042142 </v>
    <v>       0.53559019       0.35273786       0.51656188 </v>
    <v>       0.60434113       0.50955723       0.46853091 </v>
    <v>       0.50567844       0.45740128       0.49226020 </v>
    <v>       0.99574214       0.24006125       0.55434720 </v>
    <v>       0.03302389       0.77058928       0.56418773 </v>
    <v>       0.46722723       0.22653221       0.55717687 </v>
    <v>       0.50074673       0.75650792       0.55511347 </v>
    <v>       0.23532388       0.53093829       0.55894248 </v>
    <v>       0.26750433       0.98986029       0.55765322 </v>
    <v>       0.77957275       0.98329592       0.56285263 </v>
    <v>       0.00426792       0.24479840       0.64844800 </v>
    <v>       0.01685900       0.76819712       0.65382474 </v>
    <v>       0.49960631       0.24959898       0.64710685 </v>
    <v>       0.49782306       0.75110403       0.64762123 </v>
    <v>       0.25435835       0.49907071       0.64843005 </v>
    <v>       0.24856446       0.00167395       0.64707596 </v>
    <v>       0.74350594       0.51869678       0.65324699 </v>
    <v>       0.75204299       0.99902766       0.64951236 </v>
    <v>       0.49998898       0.24999498       0.74327702 </v>
    <v>       0.49998903       0.74999496       0.74327702 </v>
    <v>       0.99998898       0.24999498       0.74327702 </v>
    <v>       0.99998903       0.74999496       0.74327702 </v>
    <v>       0.25000050       0.00000100       0.74325596 </v>
    <v>       0.25000052       0.50000100       0.74325596 </v>
    <v>       0.75000050       0.00000100       0.74325596 </v>
    <v>       0.75000049       0.50000100       0.74325596 </v>
    <v>       0.70704686       0.37841708       0.49442225 </v>
    <v>       0.65051612       0.34777034       0.50717438 </v>
    <v>       0.68887950       0.43645279       0.48051997 </v>
    <v>       0.57843552       0.37605354       0.50627198 </v>
    <v>       0.61704572       0.46438753       0.47948470 </v>
    <v>       0.56143809       0.43469262       0.49254630 </v>
    <v>       0.76424604       0.47826683       0.53089708 </v>
    <v>       0.69930465       0.58744086       0.54565882 </v>
    <v>       0.79570332       0.52730570       0.56743747 </v>
    <v>       0.83292365       0.59614837       0.53486284 </v>
    <v>       0.83450234       0.43258473       0.52782975 </v>
    <v>       0.81963346       0.35531106       0.51868364 </v>
    <v>       0.66154980       0.60276408       0.52439743 </v>
    <v>       0.74760589       0.46952960       0.57800599 </v>
    <v>       0.86216765       0.65790119       0.54897082 </v>
    <v>       0.78583246       0.35055304       0.49615536 </v>
    <v>       0.05818460       0.26272063       0.56279457 </v>
    <v>       0.02948133       0.70984336       0.57553076 </v>
    <v>       0.53634549       0.21004857       0.56157436 </v>
    <v>       0.48048223       0.69085224       0.56196878 </v>
    <v>       0.43764764       0.29285069       0.55748821 </v>
    <v>       0.47416598       0.81921512       0.56253885 </v>
    <v>       0.93012157       0.25435013       0.56244154 </v>
    <v>       0.97847294       0.81857907       0.56232329 </v>
    <v>       0.23034178       0.46247366       0.56572228 </v>
    <v>       0.20086290       0.00946826       0.56367610 </v>
    <v>       0.71127991       0.98618835       0.56983944 </v>
    <v>       0.32710785       0.02894710       0.56157552 </v>
    <v>       0.29706497       0.56658155       0.55480549 </v>
    <v>       0.82425995       0.04005168       0.56113640 </v>
    <v>       0.04868362       0.19633793       0.65725347 </v>
    <v>       0.05586222       0.70862505       0.65766456 </v>
    <v>       0.54260308       0.20559222       0.65812327 </v>
    <v>       0.54325464       0.70318578       0.65635363 </v>
    <v>       0.21255766       0.45107997       0.65851843 </v>
    <v>       0.20274054       0.95635086       0.65670734 </v>
    <v>       0.69646069       0.46524391       0.65729339 </v>
    <v>       0.70908261       0.95499606       0.66059899 </v>
    <v>       0.45056079       0.29592843       0.65509990 </v>
    <v>       0.45595689       0.79888204       0.65779899 </v>
    <v>       0.95695098       0.28736280       0.65850415 </v>
    <v>       0.94719464       0.77699232       0.65940991 </v>
    <v>       0.29568255       0.04678093       0.65648867 </v>
    <v>       0.29392442       0.55191001       0.65733832 </v>
    <v>       0.79735264       0.04934657       0.65734357 </v>
    <v>       0.81561737       0.51364741       0.65552864 </v>
    <v>       0.04586250       0.20411950       0.75272599 </v>
    <v>       0.04586250       0.70411946       0.75272599 </v>
    <v>       0.54586251       0.20411950       0.75272599 </v>
    <v>       0.54586250       0.70411946       0.75272599 </v>
    <v>       0.20411900       0.45410100       0.75270499 </v>
    <v>       0.20411899       0.95410095       0.75270499 </v>
    <v>       0.70411898       0.45410100       0.75270499 </v>
    <v>       0.70411896       0.95410095       0.75270499 </v>
    <v>       0.45414002       0.29588849       0.75272697 </v>
    <v>       0.45414001       0.79588852       0.75272697 </v>
    <v>       0.95414002       0.29588849       0.75272697 </v>
    <v>       0.95414006       0.79588852       0.75272697 </v>
    <v>       0.29588249       0.04590050       0.75270499 </v>
    <v>       0.29588248       0.54590053       0.75270499 </v>
    <v>       0.79588244       0.04590050       0.75270499 </v>
    <v>       0.79588248       0.54590053       0.75270499 </v>
    <v>       0.77352192       0.54704608       0.54464501 </v>
    <v>       0.51967727       0.01078065       0.55328626 </v>
    <v>       0.49018401       0.49413344       0.55232196 </v>
    <v>       0.01242793       0.00853326       0.55060756 </v>
    <v>       0.02378029       0.49910592       0.55444250 </v>
    <v>       0.25152326       0.23046321       0.55303725 </v>
    <v>       0.25327655       0.76301128       0.55214504 </v>
    <v>       0.73482682       0.21269479       0.55580660 </v>
    <v>       0.69984996       0.79646908       0.55534875 </v>
    <v>       0.99916169       0.98605560       0.65385191 </v>
    <v>       0.01287820       0.50038743       0.65527273 </v>
    <v>       0.49446694       0.00411605       0.65495656 </v>
    <v>       0.49999151       0.49562682       0.65385582 </v>
    <v>       0.25205860       0.24712387       0.65461579 </v>
    <v>       0.25083422       0.75385822       0.65413444 </v>
    <v>       0.74752055       0.26957839       0.65500833 </v>
    <v>       0.74898211       0.73942417       0.65454547 </v>
    <v>       0.13017343       0.12138099       0.60727252 </v>
    <v>       0.14981487       0.60834775       0.60737569 </v>
    <v>       0.63859604       0.11490311       0.61198733 </v>
    <v>       0.63168768       0.61779843       0.60643819 </v>
    <v>       0.36096677       0.38987484       0.60507378 </v>
    <v>       0.36957504       0.88610458       0.60764119 </v>
    <v>       0.88872609       0.36704390       0.60753344 </v>
    <v>       0.86736057       0.88224312       0.60640254 </v>
    <v>       0.12143703       0.36659385       0.60895114 </v>
    <v>       0.12337432       0.87529473       0.60623142 </v>
    <v>       0.59828532       0.34964941       0.60102256 </v>
    <v>       0.61697177       0.86740607       0.61471163 </v>
    <v>       0.38771805       0.13517703       0.60722356 </v>
    <v>       0.38561076       0.63568608       0.60885737 </v>
    <v>       0.88252483       0.13551000       0.61079545 </v>
    <v>       0.89369720       0.63955404       0.61285140 </v>
    <v>       0.00000000       0.00000000       0.75492797 </v>
    <v>       0.00000000       0.50000000       0.75492797 </v>
    <v>       0.50000000       0.00000000       0.75492797 </v>
    <v>       0.49999999       0.50000000       0.75492797 </v>
    <v>       0.25000050       0.25000000       0.75493902 </v>
    <v>       0.25000051       0.74999997       0.75493902 </v>
    <v>       0.75000047       0.25000000       0.75493902 </v>
    <v>       0.75000046       0.74999997       0.75493902 </v>
    <v>       0.13579050       0.11421000       0.70478299 </v>
    <v>       0.13579050       0.61420998       0.70478299 </v>
    <v>       0.63579045       0.11421000       0.70478299 </v>
    <v>       0.63579049       0.61420998       0.70478299 </v>
    <v>       0.36420952       0.38578999       0.70478299 </v>
    <v>       0.36420950       0.88578996       0.70478299 </v>
    <v>       0.86420954       0.38578999       0.70478299 </v>
    <v>       0.86420953       0.88578996       0.70478299 </v>
    <v>       0.11421799       0.36421899       0.70478098 </v>
    <v>       0.11421799       0.86421899       0.70478098 </v>
    <v>       0.61421800       0.36421899       0.70478098 </v>
    <v>       0.61421799       0.86421899       0.70478098 </v>
    <v>       0.38578201       0.13578149       0.70478202 </v>
    <v>       0.38578200       0.63578149       0.70478202 </v>
    <v>       0.88578199       0.13578149       0.70478202 </v>
    <v>       0.88578203       0.63578149       0.70478202 </v>
    <v>       0.13466700       0.11533200       0.80125603 </v>
    <v>       0.13466699       0.61533199       0.80125603 </v>
    <v>       0.63466699       0.11533200       0.80125603 </v>
    <v>       0.63466698       0.61533199       0.80125603 </v>
    <v>       0.36533300       0.38466799       0.80125603 </v>
    <v>       0.36533299       0.88466796       0.80125603 </v>
    <v>       0.86533295       0.38466799       0.80125603 </v>
    <v>       0.86533294       0.88466796       0.80125603 </v>
    <v>       0.11532850       0.36533700       0.80126500 </v>
    <v>       0.11532850       0.86533698       0.80126500 </v>
    <v>       0.61532850       0.36533700       0.80126500 </v>
    <v>       0.61532849       0.86533698       0.80126500 </v>
    <v>       0.38467151       0.13466300       0.80126500 </v>
    <v>       0.38467150       0.63466297       0.80126500 </v>
    <v>       0.88467149       0.13466300       0.80126500 </v>
    <v>       0.88467153       0.63466297       0.80126500 </v>
    <v>       0.99830759       0.00370391       0.60382683 </v>
    <v>       0.00497885       0.50456938       0.60417974 </v>
    <v>       0.50492026       0.00086490       0.60540069 </v>
    <v>       0.50229309       0.49825113       0.60314163 </v>
    <v>       0.25242870       0.24886857       0.60433102 </v>
    <v>       0.25123065       0.75359460       0.60298138 </v>
    <v>       0.74699883       0.25109830       0.60504576 </v>
    <v>       0.74326556       0.75595561       0.60366438 </v>
    <v>       0.00000050       0.00000050       0.70482896 </v>
    <v>       0.00000050       0.50000048       0.70482896 </v>
    <v>       0.50000048       0.00000050       0.70482896 </v>
    <v>       0.50000046       0.50000048       0.70482896 </v>
    <v>       0.24999999       0.24999947       0.70482499 </v>
    <v>       0.25000001       0.74999950       0.70482499 </v>
    <v>       0.74999999       0.24999947       0.70482499 </v>
    <v>       0.74999998       0.74999950       0.70482499 </v>
    <v>       0.00000000       0.00000000       0.80731797 </v>
    <v>       0.00000000       0.50000000       0.80731797 </v>
    <v>       0.50000000       0.00000000       0.80731797 </v>
    <v>       0.49999999       0.50000000       0.80731797 </v>
    <v>       0.24999999       0.25000000       0.80731797 </v>
    <v>       0.25000001       0.74999997       0.80731797 </v>
    <v>       0.74999999       0.25000000       0.80731797 </v>
    <v>       0.74999998       0.74999997       0.80731797 </v>
   </varray>
  </structure>
  <varray name="primitive_index" >
   <v type="int" >        1 </v>
   <v type="int" >        2 </v>
   <v type="int" >        3 </v>
   <v type="int" >        4 </v>
   <v type="int" >        5 </v>
   <v type="int" >        6 </v>
   <v type="int" >        7 </v>
   <v type="int" >        8 </v>
   <v type="int" >        9 </v>
   <v type="int" >       10 </v>
   <v type="int" >       11 </v>
   <v type="int" >       12 </v>
   <v type="int" >       13 </v>
   <v type="int" >       14 </v>
   <v type="int" >       15 </v>
   <v type="int" >       16 </v>
   <v type="int" >       17 </v>
   <v type="int" >       18 </v>
   <v type="int" >       19 </v>
   <v type="int" >       20 </v>
   <v type="int" >       21 </v>
   <v type="int" >       22 </v>
   <v type="int" >       23 </v>
   <v type="int" >       24 </v>
   <v type="int" >       25 </v>
   <v type="int" >       26 </v>
   <v type="int" >       27 </v>
   <v type="int" >       28 </v>
   <v type="int" >       29 </v>
   <v type="int" >       30 </v>
   <v type="int" >       31 </v>
   <v type="int" >       32 </v>
   <v type="int" >       33 </v>
   <v type="int" >       34 </v>
   <v type="int" >       35 </v>
   <v type="int" >       36 </v>
   <v type="int" >       37 </v>
   <v type="int" >       38 </v>
   <v type="int" >       39 </v>
   <v type="int" >       40 </v>
   <v type="int" >       41 </v>
   <v type="int" >       42 </v>
   <v type="int" >       43 </v>
   <v type="int" >       44 </v>
   <v type="int" >       45 </v>
   <v type="int" >       46 </v>
   <v type="int" >       47 </v>
   <v type="int" >       48 </v>
   <v type="int" >       49 </v>
   <v type="int" >       50 </v>
   <v type="int" >       51 </v>
   <v type="int" >       52 </v>
   <v type="int" >       53 </v>
   <v type="int" >       54 </v>
   <v type="int" >       55 </v>
   <v type="int" >       56 </v>
   <v type="int" >       57 </v>
   <v type="int" >       58 </v>
   <v type="int" >       59 </v>
   <v type="int" >       60 </v>
   <v type="int" >       61 </v>
   <v type="int" >       62 </v>
   <v type="int" >       63 </v>
   <v type="int" >       64 </v>
   <v type="int" >       65 </v>
   <v type="int" >       66 </v>
   <v type="int" >       67 </v>
   <v type="int" >       68 </v>
   <v type="int" >       69 </v>
   <v type="int" >       70 </v>
   <v type="int" >       71 </v>
   <v type="int" >       72 </v>
   <v type="int" >       73 </v>
   <v type="int" >       74 </v>
   <v type="int" >       75 </v>
   <v type="int" >       76 </v>
   <v type="int" >       77 </v>
   <v type="int" >       78 </v>
   <v type="int" >       79 </v>
   <v type="int" >       80 </v>
   <v type="int" >       81 </v>
   <v type="int" >       82 </v>
   <v type="int" >       83 </v>
   <v type="int" >       84 </v>
   <v type="int" >       85 </v>
   <v type="int" >       86 </v>
   <v type="int" >       87 </v>
   <v type="int" >       88 </v>
   <v type="int" >       89 </v>
   <v type="int" >       90 </v>
   <v type="int" >       91 </v>
   <v type="int" >       92 </v>
   <v type="int" >       93 </v>
   <v type="int" >       94 </v>
   <v type="int" >       95 </v>
   <v type="int" >       96 </v>
   <v type="int" >       97 </v>
   <v type="int" >       98 </v>
   <v type="int" >       99 </v>
   <v type="int" >      100 </v>
   <v type="int" >      101 </v>
   <v type="int" >      102 </v>
   <v type="int" >      103 </v>
   <v type="int" >      104 </v>
   <v type="int" >      105 </v>
   <v type="int" >      106 </v>
   <v type="int" >      107 </v>
   <v type="int" >      108 </v>
   <v type="int" >      109 </v>
   <v type="int" >      110 </v>
   <v type="int" >      111 </v>
   <v type="int" >      112 </v>
   <v type="int" >      113 </v>
   <v type="int" >      114 </v>
   <v type="int" >      115 </v>
   <v type="int" >      116 </v>
   <v type="int" >      117 </v>
   <v type="int" >      118 </v>
   <v type="int" >      119 </v>
   <v type="int" >      120 </v>
   <v type="int" >      121 </v>
   <v type="int" >      122 </v>
   <v type="int" >      123 </v>
   <v type="int" >      124 </v>
   <v type="int" >      125 </v>
   <v type="int" >      126 </v>
   <v type="int" >      127 </v>
   <v type="int" >      128 </v>
   <v type="int" >      129 </v>
   <v type="int" >      130 </v>
   <v type="int" >      131 </v>
   <v type="int" >      132 </v>
   <v type="int" >      133 </v>
   <v type="int" >      134 </v>
   <v type="int" >      135 </v>
   <v type="int" >      136 </v>
   <v type="int" >      137 </v>
   <v type="int" >      138 </v>
   <v type="int" >      139 </v>
   <v type="int" >      140 </v>
   <v type="int" >      141 </v>
   <v type="int" >      142 </v>
   <v type="int" >      143 </v>
   <v type="int" >      144 </v>
   <v type="int" >      145 </v>
   <v type="int" >      146 </v>
   <v type="int" >      147 </v>
   <v type="int" >      148 </v>
   <v type="int" >      149 </v>
   <v type="int" >      150 </v>
   <v type="int" >      151 </v>
   <v type="int" >      152 </v>
   <v type="int" >      153 </v>
   <v type="int" >      154 </v>
   <v type="int" >      155 </v>
   <v type="int" >      156 </v>
   <v type="int" >      157 </v>
   <v type="int" >      158 </v>
   <v type="int" >      159 </v>
   <v type="int" >      160 </v>
   <v type="int" >      161 </v>
   <v type="int" >      162 </v>
   <v type="int" >      163 </v>
   <v type="int" >      164 </v>
   <v type="int" >      165 </v>
   <v type="int" >      166 </v>
   <v type="int" >      167 </v>
   <v type="int" >      168 </v>
   <v type="int" >      169 </v>
   <v type="int" >      170 </v>
   <v type="int" >      171 </v>
   <v type="int" >      172 </v>
   <v type="int" >      173 </v>
   <v type="int" >      174 </v>
   <v type="int" >      175 </v>
   <v type="int" >      176 </v>
   <v type="int" >      177 </v>
   <v type="int" >      178 </v>
   <v type="int" >      179 </v>
   <v type="int" >      180 </v>
   <v type="int" >      181 </v>
   <v type="int" >      182 </v>
   <v type="int" >      183 </v>
   <v type="int" >      184 </v>
   <v type="int" >      185 </v>
   <v type="int" >      186 </v>
   <v type="int" >      187 </v>
   <v type="int" >      188 </v>
   <v type="int" >      189 </v>
   <v type="int" >      190 </v>
   <v type="int" >      191 </v>
   <v type="int" >      192 </v>
   <v type="int" >      193 </v>
   <v type="int" >      194 </v>
   <v type="int" >      195 </v>
   <v type="int" >      196 </v>
   <v type="int" >      197 </v>
   <v type="int" >      198 </v>
   <v type="int" >      199 </v>
   <v type="int" >      200 </v>
   <v type="int" >      201 </v>
   <v type="int" >      202 </v>
   <v type="int" >      203 </v>
   <v type="int" >      204 </v>
   <v type="int" >      205 </v>
   <v type="int" >      206 </v>
   <v type="int" >      207 </v>
   <v type="int" >      208 </v>
   <v type="int" >      209 </v>
   <v type="int" >      210 </v>
   <v type="int" >      211 </v>
   <v type="int" >      212 </v>
   <v type="int" >      213 </v>
   <v type="int" >      214 </v>
   <v type="int" >      215 </v>
   <v type="int" >      216 </v>
   <v type="int" >      217 </v>
   <v type="int" >      218 </v>
   <v type="int" >      219 </v>
   <v type="int" >      220 </v>
   <v type="int" >      221 </v>
   <v type="int" >      222 </v>
   <v type="int" >      223 </v>
   <v type="int" >      224 </v>
   <v type="int" >      225 </v>
   <v type="int" >      226 </v>
   <v type="int" >      227 </v>
   <v type="int" >      228 </v>
   <v type="int" >      229 </v>
   <v type="int" >      230 </v>
   <v type="int" >      231 </v>
   <v type="int" >      232 </v>
   <v type="int" >      233 </v>
   <v type="int" >      234 </v>
   <v type="int" >      235 </v>
   <v type="int" >      236 </v>
   <v type="int" >      237 </v>
   <v type="int" >      238 </v>
   <v type="int" >      239 </v>
   <v type="int" >      240 </v>
   <v type="int" >      241 </v>
   <v type="int" >      242 </v>
   <v type="int" >      243 </v>
   <v type="int" >      244 </v>
   <v type="int" >      245 </v>
   <v type="int" >      246 </v>
   <v type="int" >      247 </v>
   <v type="int" >      248 </v>
   <v type="int" >      249 </v>
   <v type="int" >      250 </v>
   <v type="int" >      251 </v>
   <v type="int" >      252 </v>
   <v type="int" >      253 </v>
   <v type="int" >      254 </v>
   <v type="int" >      255 </v>
   <v type="int" >      256 </v>
   <v type="int" >      257 </v>
   <v type="int" >      258 </v>
   <v type="int" >      259 </v>
   <v type="int" >      260 </v>
   <v type="int" >      261 </v>
   <v type="int" >      262 </v>
   <v type="int" >      263 </v>
   <v type="int" >      264 </v>
   <v type="int" >      265 </v>
   <v type="int" >      266 </v>
   <v type="int" >      267 </v>
   <v type="int" >      268 </v>
   <v type="int" >      269 </v>
   <v type="int" >      270 </v>
   <v type="int" >      271 </v>
   <v type="int" >      272 </v>
   <v type="int" >      273 </v>
   <v type="int" >      274 </v>
   <v type="int" >      275 </v>
   <v type="int" >      276 </v>
   <v type="int" >      277 </v>
   <v type="int" >      278 </v>
   <v type="int" >      279 </v>
   <v type="int" >      280 </v>
   <v type="int" >      281 </v>
   <v type="int" >      282 </v>
   <v type="int" >      283 </v>
   <v type="int" >      284 </v>
   <v type="int" >      285 </v>
   <v type="int" >      286 </v>
   <v type="int" >      287 </v>
   <v type="int" >      288 </v>
   <v type="int" >      289 </v>
   <v type="int" >      290 </v>
   <v type="int" >      291 </v>
   <v type="int" >      292 </v>
   <v type="int" >      293 </v>
   <v type="int" >      294 </v>
   <v type="int" >      295 </v>
   <v type="int" >      296 </v>
   <v type="int" >      297 </v>
   <v type="int" >      298 </v>
   <v type="int" >      299 </v>
   <v type="int" >      300 </v>
   <v type="int" >      301 </v>
   <v type="int" >      302 </v>
   <v type="int" >      303 </v>
   <v type="int" >      304 </v>
   <v type="int" >      305 </v>
   <v type="int" >      306 </v>
   <v type="int" >      307 </v>
   <v type="int" >      308 </v>
   <v type="int" >      309 </v>
   <v type="int" >      310 </v>
   <v type="int" >      311 </v>
   <v type="int" >      312 </v>
   <v type="int" >      313 </v>
   <v type="int" >      314 </v>
   <v type="int" >      315 </v>
   <v type="int" >      316 </v>
   <v type="int" >      317 </v>
   <v type="int" >      318 </v>
   <v type="int" >      319 </v>
   <v type="int" >      320 </v>
   <v type="int" >      321 </v>
   <v type="int" >      322 </v>
   <v type="int" >      323 </v>
   <v type="int" >      324 </v>
   <v type="int" >      325 </v>
  </varray>
 </primitive_cell>
 <kpoints>
  <generation param="Gamma">
   <v type="int" name="divisions">       3        3        1 </v>
   <v name="usershift">      0.00000000       0.00000000       0.00000000 </v>
   <v name="genvec1">      0.33333333       0.00000000       0.00000000 </v>
   <v name="genvec2">      0.00000000       0.33333333       0.00000000 </v>
   <v name="genvec3">      0.00000000       0.00000000       1.00000000 </v>
   <v name="shift">      0.00000000       0.00000000       0.00000000 </v>
  </generation>
  <varray name="kpointlist" >
   <v>       0.00000000       0.00000000       0.00000000 </v>
   <v>       0.33333333       0.00000000       0.00000000 </v>
   <v>       0.00000000       0.33333333       0.00000000 </v>
   <v>       0.33333333       0.33333333       0.00000000 </v>
   <v>      -0.33333333       0.33333333       0.00000000 </v>
  </varray>
  <varray name="weights" >
   <v>       0.11111111 </v>
   <v>       0.22222222 </v>
   <v>       0.22222222 </v>
   <v>       0.22222222 </v>
   <v>       0.22222222 </v>
  </varray>
 </kpoints>
 <parameters>
  <separator name="general" >
   <i type="string" name="SYSTEM">PSC</i>
   <i type="logical" name="LCOMPAT"> F  </i>
  </separator>
  <separator name="electronic" >
   <i type="string" name="PREC">normal</i>
   <i name="ENMAX">    500.00000000</i>
   <i name="ENAUG">    644.87300000</i>
   <i name="EDIFF">      0.00010000</i>
   <i type="int" name="IALGO">    38</i>
   <i type="int" name="IWAVPR">    10</i>
   <i type="int" name="NBANDS">   732</i>
   <i type="int" name="NBANDSLOW">    -1</i>
   <i type="int" name="NBANDSHIGH">    -1</i>
   <i name="NELECT">   1134.00000000</i>
   <i type="int" name="TURBO">     0</i>
   <i type="int" name="IRESTART">     0</i>
   <i type="int" name="NREBOOT">     0</i>
   <i type="int" name="NMIN">     0</i>
   <i name="EREF">      0.00000000</i>
   <separator name="electronic smearing" >
    <i type="int" name="ISMEAR">     0</i>
    <i name="SIGMA">      0.05000000</i>
    <i name="KSPACING">      0.50000000</i>
    <i type="logical" name="KGAMMA"> T  </i>
    <i type="logical" name="KBLOWUP"> T  </i>
   </separator>
   <separator name="electronic projectors" >
    <i type="logical" name="LREAL"> T  </i>
    <v name="ROPT">     -0.00050000     -0.00050000     -0.00050000     -0.00050000     -0.00050000</v>
    <i type="int" name="LMAXPAW">  -100</i>
    <i type="int" name="LMAXMIX">     2</i>
    <i type="logical" name="NLSPLINE"> F  </i>
   </separator>
   <separator name="electronic startup" >
    <i type="int" name="ISTART">     0</i>
    <i type="int" name="ICHARG">     1</i>
    <i type="int" name="INIWAV">     1</i>
   </separator>
   <separator name="electronic spin" >
    <i type="int" name="ISPIN">     1</i>
    <i type="logical" name="LNONCOLLINEAR"> F  </i>
    <v name="MAGMOM">      1.00000000      1.00000000      1.00000000      1.00000000      1.00000000      1.00000000      1.00000000      1.00000000      1.00000000      1.00000000      1.00000000      1.00000000      1.00000000      1.00000000      1.00000000      1.00000000      1.00000000      1.00000000      1.00000000      1.00000000
      1.00000000      1.00000000      1.00000000      1.00000000      1.00000000      1.00000000      1.00000000      1.00000000      1.00000000      1.00000000      1.00000000      1.00000000      1.00000000      1.00000000      1.00000000      1.00000000      1.00000000      1.00000000      1.00000000      1.00000000
      1.00000000      1.00000000      1.00000000      1.00000000      1.00000000      1.00000000      1.00000000      1.00000000      1.00000000      1.00000000      1.00000000      1.00000000      1.00000000      1.00000000      1.00000000      1.00000000      1.00000000      1.00000000      1.00000000      1.00000000
      1.00000000      1.00000000      1.00000000      1.00000000      1.00000000      1.00000000      1.00000000      1.00000000      1.00000000      1.00000000      1.00000000      1.00000000      1.00000000      1.00000000      1.00000000      1.00000000      1.00000000      1.00000000      1.00000000      1.00000000
      1.00000000      1.00000000      1.00000000      1.00000000      1.00000000      1.00000000      1.00000000      1.00000000      1.00000000      1.00000000      1.00000000      1.00000000      1.00000000      1.00000000      1.00000000      1.00000000      1.00000000      1.00000000      1.00000000      1.00000000
      1.00000000      1.00000000      1.00000000      1.00000000      1.00000000      1.00000000      1.00000000      1.00000000      1.00000000      1.00000000      1.00000000      1.00000000      1.00000000      1.00000000      1.00000000      1.00000000      1.00000000      1.00000000      1.00000000      1.00000000
      1.00000000      1.00000000      1.00000000      1.00000000      1.00000000      1.00000000      1.00000000      1.00000000      1.00000000      1.00000000      1.00000000      1.00000000      1.00000000      1.00000000      1.00000000      1.00000000      1.00000000      1.00000000      1.00000000      1.00000000
      1.00000000      1.00000000      1.00000000      1.00000000      1.00000000      1.00000000      1.00000000      1.00000000      1.00000000      1.00000000      1.00000000      1.00000000      1.00000000      1.00000000      1.00000000      1.00000000      1.00000000      1.00000000      1.00000000      1.00000000
      1.00000000      1.00000000      1.00000000      1.00000000      1.00000000      1.00000000      1.00000000      1.00000000      1.00000000      1.00000000      1.00000000      1.00000000      1.00000000      1.00000000      1.00000000      1.00000000      1.00000000      1.00000000      1.00000000      1.00000000
      1.00000000      1.00000000      1.00000000      1.00000000      1.00000000      1.00000000      1.00000000      1.00000000      1.00000000      1.00000000      1.00000000      1.00000000      1.00000000      1.00000000      1.00000000      1.00000000      1.00000000      1.00000000      1.00000000      1.00000000
      1.00000000      1.00000000      1.00000000      1.00000000      1.00000000      1.00000000      1.00000000      1.00000000      1.00000000      1.00000000      1.00000000      1.00000000      1.00000000      1.00000000      1.00000000      1.00000000      1.00000000      1.00000000      1.00000000      1.00000000
      1.00000000      1.00000000      1.00000000      1.00000000      1.00000000      1.00000000      1.00000000      1.00000000      1.00000000      1.00000000      1.00000000      1.00000000      1.00000000      1.00000000      1.00000000      1.00000000      1.00000000      1.00000000      1.00000000      1.00000000
      1.00000000      1.00000000      1.00000000      1.00000000      1.00000000      1.00000000      1.00000000      1.00000000      1.00000000      1.00000000      1.00000000      1.00000000      1.00000000      1.00000000      1.00000000      1.00000000      1.00000000      1.00000000      1.00000000      1.00000000
      1.00000000      1.00000000      1.00000000      1.00000000      1.00000000      1.00000000      1.00000000      1.00000000      1.00000000      1.00000000      1.00000000      1.00000000      1.00000000      1.00000000      1.00000000      1.00000000      1.00000000      1.00000000      1.00000000      1.00000000
      1.00000000      1.00000000      1.00000000      1.00000000      1.00000000      1.00000000      1.00000000      1.00000000      1.00000000      1.00000000      1.00000000      1.00000000      1.00000000      1.00000000      1.00000000      1.00000000      1.00000000      1.00000000      1.00000000      1.00000000
      1.00000000      1.00000000      1.00000000      1.00000000      1.00000000      1.00000000      1.00000000      1.00000000      1.00000000      1.00000000      1.00000000      1.00000000      1.00000000      1.00000000      1.00000000      1.00000000      1.00000000      1.00000000      1.00000000      1.00000000
      1.00000000      1.00000000      1.00000000      1.00000000      1.00000000</v>
    <i name="NUPDOWN">     -1.00000000</i>
    <i type="logical" name="LSORBIT"> F  </i>
    <v name="SAXIS">      0.00000000      0.00000000      1.00000000</v>
    <i type="logical" name="LSPIRAL"> F  </i>
    <v name="QSPIRAL">      0.00000000      0.00000000      0.00000000</v>
    <i type="logical" name="LZEROZ"> F  </i>
   </separator>
   <separator name="electronic exchange-correlation" >
    <i type="logical" name="LASPH"> F  </i>
    <i type="logical" name="LMETAGGA"> F  </i>
   </separator>
   <separator name="electronic convergence" >
    <i type="int" name="NELM">   600</i>
    <i type="int" name="NELMDL">     0</i>
    <i type="int" name="NELMIN">     2</i>
    <i name="ENINI">    500.00000000</i>
    <separator name="electronic convergence detail" >
     <i type="logical" name="LDIAG"> T  </i>
     <i type="logical" name="LSUBROT"> F  </i>
     <i name="WEIMIN">      0.00000000</i>
     <i name="EBREAK">      0.00000003</i>
     <i name="DEPER">      0.30000000</i>
     <i type="int" name="NRMM">     4</i>
     <i name="TIME">      0.40000000</i>
    </separator>
   </separator>
   <separator name="electronic mixer" >
    <i name="AMIX">      0.40000000</i>
    <i name="BMIX">      0.01000000</i>
    <i name="AMIN">      0.01000000</i>
    <i name="AMIX_MAG">      1.60000000</i>
    <i name="BMIX_MAG">      0.01000000</i>
    <separator name="electronic mixer details" >
     <i type="int" name="IMIX">     4</i>
     <i type="logical" name="MIXFIRST"> F  </i>
     <i type="int" name="MAXMIX">   -45</i>
     <i name="WC">    100.00000000</i>
     <i type="int" name="INIMIX">     1</i>
     <i type="int" name="MIXPRE">     1</i>
     <i type="int" name="MREMOVE">     5</i>
    </separator>
   </separator>
   <separator name="electronic dipolcorrection" >
    <i type="logical" name="LDIPOL"> T  </i>
    <i type="logical" name="LMONO"> F  </i>
    <i type="int" name="IDIPOL">     3</i>
    <i name="EPSILON">      1.00000000</i>
    <v name="DIPOL">   -100.00000000   -100.00000000   -100.00000000</v>
    <i name="EFIELD">      0.00000000</i>
   </separator>
  </separator>
  <separator name="grids" >
   <i type="int" name="NGX">   100</i>
   <i type="int" name="NGY">   100</i>
   <i type="int" name="NGZ">   350</i>
   <i type="int" name="NGXF">   200</i>
   <i type="int" name="NGYF">   200</i>
   <i type="int" name="NGZF">   700</i>
   <i type="logical" name="ADDGRID"> F  </i>
  </separator>
  <separator name="ionic" >
   <i type="int" name="NSW">     0</i>
   <i type="int" name="IBRION">    -1</i>
   <i type="int" name="MDALGO">     0</i>
   <i type="int" name="ISIF">     2</i>
   <i name="PSTRESS">      0.00000000</i>
   <i name="EDIFFG">      0.00100000</i>
   <i type="int" name="NFREE">     0</i>
   <i name="POTIM">      0.50000000</i>
   <i name="SMASS">     -3.00000000</i>
   <i name="SCALEE">      1.00000000</i>
  </separator>
  <separator name="ionic md" >
   <i name="TEBEG">      0.00010000</i>
   <i name="TEEND">      0.00010000</i>
   <i type="int" name="NBLOCK">     1</i>
   <i type="int" name="KBLOCK">     1</i>
   <i type="int" name="NPACO">   256</i>
   <i name="APACO">     16.00000000</i>
  </separator>
  <separator name="symmetry" >
   <i type="int" name="ISYM">     0</i>
   <i name="SYMPREC">      0.00001000</i>
  </separator>
  <separator name="dos" >
   <i type="int" name="LORBIT">     0</i>
   <v name="RWIGS">     -1.00000000     -1.00000000     -1.00000000     -1.00000000     -1.00000000</v>
   <i type="int" name="NEDOS">   301</i>
   <i name="EMIN">     10.00000000</i>
   <i name="EMAX">    -10.00000000</i>
   <i name="EFERMI">      0.00000000</i>
  </separator>
  <separator name="writing" >
   <i type="int" name="NWRITE">     2</i>
   <i type="logical" name="LWAVE"> F  </i>
   <i type="logical" name="LDOWNSAMPLE"> F  </i>
   <i type="logical" name="LCHARG"> T  </i>
   <i type="logical" name="LPARD"> F  </i>
   <i type="logical" name="LVTOT"> T  </i>
   <i type="logical" name="LVHAR"> F  </i>
   <i type="logical" name="LELF"> F  </i>
   <i type="logical" name="LOPTICS"> F  </i>
   <v name="STM">      0.00000000      0.00000000      0.00000000      0.00000000      0.00000000      0.00000000      0.00000000</v>
  </separator>
  <separator name="performance" >
   <i type="int" name="NPAR">     4</i>
   <i type="int" name="NSIM">     4</i>
   <i type="int" name="NBLK">    -1</i>
   <i type="logical" name="LPLANE"> T  </i>
   <i type="logical" name="LSCALAPACK"> T  </i>
   <i type="logical" name="LSCAAWARE"> F  </i>
   <i type="logical" name="LSCALU"> F  </i>
   <i type="logical" name="LASYNC"> F  </i>
   <i type="logical" name="LORBITALREAL"> F  </i>
  </separator>
  <separator name="miscellaneous" >
   <i type="int" name="IDIOT">     3</i>
   <i type="int" name="PHON_NSTRUCT">    -1</i>
   <i type="logical" name="LMUSIC"> F  </i>
   <v name="POMASS">      1.00000000     12.01100000     14.00100000    126.90400000    207.20000000</v>
   <v name="DARWINR">      0.00000000      0.00000000      0.00000000      0.00000000      0.00000000</v>
   <v name="DARWINV">      1.00000000      1.00000000      1.00000000      1.00000000      1.00000000</v>
   <i type="logical" name="LCORR"> T  </i>
  </separator>
  <i type="logical" name="GGA_COMPAT"> F  </i>
  <i type="logical" name="LBERRY"> F  </i>
  <i type="int" name="ICORELEVEL">     0</i>
  <i type="logical" name="LDAU"> F  </i>
  <i type="int" name="I_CONSTRAINED_M">     0</i>
  <separator name="electronic exchange-correlation" >
   <i type="string" name="GGA">--</i>
   <i type="int" name="VOSKOWN">     0</i>
   <i type="logical" name="LHFCALC"> F  </i>
   <i type="string" name="PRECFOCK"></i>
   <i type="logical" name="LSYMGRAD"> F  </i>
   <i type="logical" name="LHFONE"> F  </i>
   <i type="logical" name="LRHFCALC"> F  </i>
   <i type="logical" name="LTHOMAS"> F  </i>
   <i type="logical" name="LMODELHF"> F  </i>
   <i type="logical" name="LFOCKACE"> F  </i>
   <i name="ENCUT4O">     -1.00000000</i>
   <i type="int" name="EXXOEP">     0</i>
   <i type="int" name="FOURORBIT">     0</i>
   <i name="AEXX">      0.00000000</i>
   <i name="HFALPHA">      0.00000000</i>
   <i name="MCALPHA">      0.00000000</i>
   <i name="ALDAX">      1.00000000</i>
   <i name="AGGAX">      1.00000000</i>
   <i name="ALDAC">      1.00000000</i>
   <i name="AGGAC">      1.00000000</i>
   <i type="int" name="NKREDX">     1</i>
   <i type="int" name="NKREDY">     1</i>
   <i type="int" name="NKREDZ">     1</i>
   <i type="logical" name="SHIFTRED"> F  </i>
   <i type="logical" name="ODDONLY"> F  </i>
   <i type="logical" name="EVENONLY"> F  </i>
   <i type="int" name="LMAXFOCK">     0</i>
   <i type="int" name="NMAXFOCKAE">     0</i>
   <i type="logical" name="LFOCKAEDFT"> F  </i>
   <i name="HFSCREEN">      0.00000000</i>
   <i name="HFSCREENC">      0.00000000</i>
   <i type="int" name="NBANDSGWLOW">     0</i>
  </separator>
  <separator name="vdW DFT" >
   <i type="logical" name="LUSE_VDW"> F  </i>
   <i name="Zab_VDW">     -0.84910000</i>
   <i name="PARAM1">      0.12340000</i>
   <i name="PARAM2">      1.00000000</i>
   <i name="PARAM3">      0.00000000</i>
  </separator>
  <separator name="model GW" >
   <i type="int" name="MODEL_GW">     0</i>
   <i name="MODEL_EPS0">     37.63423484</i>
   <i name="MODEL_ALPHA">      1.00000000</i>
  </separator>
  <separator name="linear response parameters" >
   <i type="logical" name="LEPSILON"> F  </i>
   <i type="logical" name="LRPA"> F  </i>
   <i type="logical" name="LNABLA"> F  </i>
   <i type="logical" name="LVEL"> F  </i>
   <i type="int" name="KINTER">     0</i>
   <i name="CSHIFT">      0.10000000</i>
   <i name="OMEGAMAX">     -1.00000000</i>
   <i name="DEG_THRESHOLD">      0.00200000</i>
   <i name="RTIME">     -0.10000000</i>
   <i name="WPLASMAI">      0.00000000</i>
   <v name="DFIELD">      0.00000000      0.00000000      0.00000000</v>
   <v name="WPLASMA">      0.00000000      0.00000000      0.00000000      0.00000000      0.00000000      0.00000000      0.00000000      0.00000000      0.00000000</v>
  </separator>
  <separator name="orbital magnetization" >
   <i type="logical" name="NUCIND"> F  </i>
   <v name="MAGPOS">      0.00000000      0.00000000      0.00000000</v>
   <i type="logical" name="LNICSALL"> T  </i>
   <i type="logical" name="ORBITALMAG"> F  </i>
   <i type="logical" name="LMAGBLOCH"> F  </i>
   <i type="logical" name="LCHIMAG"> F  </i>
   <i type="logical" name="LGAUGE"> T  </i>
   <i type="int" name="MAGATOM">     0</i>
   <v name="MAGDIPOL">      0.00000000      0.00000000      0.00000000</v>
   <v name="AVECCONST">      0.00000000      0.00000000      0.00000000</v>
  </separator>
  <separator name="response functions" >
   <i type="logical" name="LFINITE_TEMPERATURE"> F  </i>
   <i type="logical" name="LADDER"> F  </i>
   <i type="logical" name="LRPAFORCE"> F  </i>
   <i type="logical" name="LFXC"> F  </i>
   <i type="logical" name="LHARTREE"> T  </i>
   <i type="int" name="IBSE">     0</i>
   <v type="int" name="KPOINT">    -1     0     0     0</v>
   <i type="logical" name="LTCTC"> F  </i>
   <i type="logical" name="LTCTE"> F  </i>
   <i type="logical" name="LTETE"> F  </i>
   <i type="logical" name="LTRIPLET"> F  </i>
   <i type="logical" name="LFXCEPS"> F  </i>
   <i type="logical" name="LFXHEG"> F  </i>
   <i type="int" name="NATURALO">     2</i>
   <i type="logical" name="LHOLEGF"> F  </i>
   <i type="logical" name="L2ORDER"> F  </i>
   <i type="logical" name="LDMP1"> F  </i>
   <i type="logical" name="LMP2LT"> F  </i>
   <i type="logical" name="LSMP2LT"> F  </i>
   <i type="logical" name="LGWLF"> F  </i>
   <i name="ENCUTGW">     -2.00000000</i>
   <i name="ENCUTGWSOFT">     -2.00000000</i>
   <i name="ENCUTLF">     -1.00000000</i>
   <i type="logical" name="LESF_SPLINES"> F  </i>
   <i type="int" name="LMAXMP2">    -1</i>
   <i name="SCISSOR">      0.00000000</i>
   <i type="int" name="NOMEGA">     0</i>
   <i type="int" name="NOMEGAR">     0</i>
   <i type="int" name="NBANDSGW">    -1</i>
   <i type="int" name="NBANDSO">    -1</i>
   <i type="int" name="NBANDSV">    -1</i>
   <i type="int" name="NELM">   600</i>
   <i type="int" name="NELMHF">     1</i>
   <i type="int" name="DIM">     3</i>
   <i type="int" name="IESPILON">     4</i>
   <i type="int" name="ANTIRES">     0</i>
   <i name="OMEGAMAX">    -30.00000000</i>
   <i name="OMEGAMIN">    -30.00000000</i>
   <i name="OMEGATL">   -200.00000000</i>
   <i type="int" name="OMEGAGRID">     0</i>
   <i name="CSHIFT">     -0.10000000</i>
   <i type="logical" name="LSELFENERGY"> F  </i>
   <i type="logical" name="LSPECTRAL"> F  </i>
   <i type="logical" name="LSPECTRALGW"> F  </i>
   <i type="logical" name="LSINGLES"> F  </i>
   <i type="logical" name="LFERMIGW"> F  </i>
   <i type="logical" name="ODDONLYGW"> F  </i>
   <i type="logical" name="EVENONLYGW"> F  </i>
   <i type="int" name="NKREDLFX">     1</i>
   <i type="int" name="NKREDLFY">     1</i>
   <i type="int" name="NKREDLFZ">     1</i>
   <i type="int" name="MAXMEM">  2800</i>
   <i type="int" name="TELESCOPE">     0</i>
   <i type="int" name="NTAUPAR">    -1</i>
   <i type="int" name="NOMEGAPAR">    -1</i>
   <i name="DAMP_NEWTON">      0.80000001</i>
   <i name="LAMBDA">      1.00000000</i>
  </separator>
  <separator name="External order field" >
   <i name="OFIELD_KAPPA">      0.00000000</i>
   <v name="OFIELD_K">      0.00000000      0.00000000      0.00000000</v>
   <i name="OFIELD_Q6_NEAR">      0.00000000</i>
   <i name="OFIELD_Q6_FAR">      0.00000000</i>
   <i name="OFIELD_A">      0.00000000</i>
  </separator>
 </parameters>
 <atominfo>
  <atoms>     325 </atoms>
  <types>       5 </types>
  <array name="atoms" >
   <dimension dim="1">ion</dimension>
   <field type="string">element</field>
   <field type="int">atomtype</field>
   <set>
    <rc><c>H </c><c>   1</c></rc>
    <rc><c>H </c><c>   1</c></rc>
    <rc><c>H </c><c>   1</c></rc>
    <rc><c>H </c><c>   1</c></rc>
    <rc><c>H </c><c>   1</c></rc>
    <rc><c>H </c><c>   1</c></rc>
    <rc><c>H </c><c>   1</c></rc>
    <rc><c>H </c><c>   1</c></rc>
    <rc><c>H </c><c>   1</c></rc>
    <rc><c>H </c><c>   1</c></rc>
    <rc><c>H </c><c>   1</c></rc>
    <rc><c>H </c><c>   1</c></rc>
    <rc><c>H </c><c>   1</c></rc>
    <rc><c>H </c><c>   1</c></rc>
    <rc><c>H </c><c>   1</c></rc>
    <rc><c>H </c><c>   1</c></rc>
    <rc><c>H </c><c>   1</c></rc>
    <rc><c>H </c><c>   1</c></rc>
    <rc><c>H </c><c>   1</c></rc>
    <rc><c>H </c><c>   1</c></rc>
    <rc><c>H </c><c>   1</c></rc>
    <rc><c>H </c><c>   1</c></rc>
    <rc><c>H </c><c>   1</c></rc>
    <rc><c>H </c><c>   1</c></rc>
    <rc><c>H </c><c>   1</c></rc>
    <rc><c>H </c><c>   1</c></rc>
    <rc><c>H </c><c>   1</c></rc>
    <rc><c>H </c><c>   1</c></rc>
    <rc><c>H </c><c>   1</c></rc>
    <rc><c>H </c><c>   1</c></rc>
    <rc><c>H </c><c>   1</c></rc>
    <rc><c>H </c><c>   1</c></rc>
    <rc><c>H </c><c>   1</c></rc>
    <rc><c>H </c><c>   1</c></rc>
    <rc><c>H </c><c>   1</c></rc>
    <rc><c>H </c><c>   1</c></rc>
    <rc><c>H </c><c>   1</c></rc>
    <rc><c>H </c><c>   1</c></rc>
    <rc><c>H </c><c>   1</c></rc>
    <rc><c>H </c><c>   1</c></rc>
    <rc><c>H </c><c>   1</c></rc>
    <rc><c>H </c><c>   1</c></rc>
    <rc><c>H </c><c>   1</c></rc>
    <rc><c>H </c><c>   1</c></rc>
    <rc><c>H </c><c>   1</c></rc>
    <rc><c>H </c><c>   1</c></rc>
    <rc><c>H </c><c>   1</c></rc>
    <rc><c>H </c><c>   1</c></rc>
    <rc><c>H </c><c>   1</c></rc>
    <rc><c>H </c><c>   1</c></rc>
    <rc><c>H </c><c>   1</c></rc>
    <rc><c>H </c><c>   1</c></rc>
    <rc><c>H </c><c>   1</c></rc>
    <rc><c>H </c><c>   1</c></rc>
    <rc><c>H </c><c>   1</c></rc>
    <rc><c>H </c><c>   1</c></rc>
    <rc><c>H </c><c>   1</c></rc>
    <rc><c>H </c><c>   1</c></rc>
    <rc><c>H </c><c>   1</c></rc>
    <rc><c>H </c><c>   1</c></rc>
    <rc><c>H </c><c>   1</c></rc>
    <rc><c>H </c><c>   1</c></rc>
    <rc><c>H </c><c>   1</c></rc>
    <rc><c>H </c><c>   1</c></rc>
    <rc><c>H </c><c>   1</c></rc>
    <rc><c>H </c><c>   1</c></rc>
    <rc><c>H </c><c>   1</c></rc>
    <rc><c>H </c><c>   1</c></rc>
    <rc><c>H </c><c>   1</c></rc>
    <rc><c>H </c><c>   1</c></rc>
    <rc><c>H </c><c>   1</c></rc>
    <rc><c>H </c><c>   1</c></rc>
    <rc><c>H </c><c>   1</c></rc>
    <rc><c>H </c><c>   1</c></rc>
    <rc><c>H </c><c>   1</c></rc>
    <rc><c>H </c><c>   1</c></rc>
    <rc><c>H </c><c>   1</c></rc>
    <rc><c>H </c><c>   1</c></rc>
    <rc><c>H </c><c>   1</c></rc>
    <rc><c>H </c><c>   1</c></rc>
    <rc><c>H </c><c>   1</c></rc>
    <rc><c>H </c><c>   1</c></rc>
    <rc><c>H </c><c>   1</c></rc>
    <rc><c>H </c><c>   1</c></rc>
    <rc><c>H </c><c>   1</c></rc>
    <rc><c>H </c><c>   1</c></rc>
    <rc><c>H </c><c>   1</c></rc>
    <rc><c>H </c><c>   1</c></rc>
    <rc><c>H </c><c>   1</c></rc>
    <rc><c>H </c><c>   1</c></rc>
    <rc><c>H </c><c>   1</c></rc>
    <rc><c>H </c><c>   1</c></rc>
    <rc><c>H </c><c>   1</c></rc>
    <rc><c>H </c><c>   1</c></rc>
    <rc><c>H </c><c>   1</c></rc>
    <rc><c>H </c><c>   1</c></rc>
    <rc><c>H </c><c>   1</c></rc>
    <rc><c>H </c><c>   1</c></rc>
    <rc><c>H </c><c>   1</c></rc>
    <rc><c>H </c><c>   1</c></rc>
    <rc><c>H </c><c>   1</c></rc>
    <rc><c>H </c><c>   1</c></rc>
    <rc><c>H </c><c>   1</c></rc>
    <rc><c>H </c><c>   1</c></rc>
    <rc><c>H </c><c>   1</c></rc>
    <rc><c>H </c><c>   1</c></rc>
    <rc><c>H </c><c>   1</c></rc>
    <rc><c>H </c><c>   1</c></rc>
    <rc><c>H </c><c>   1</c></rc>
    <rc><c>H </c><c>   1</c></rc>
    <rc><c>H </c><c>   1</c></rc>
    <rc><c>H </c><c>   1</c></rc>
    <rc><c>H </c><c>   1</c></rc>
    <rc><c>H </c><c>   1</c></rc>
    <rc><c>H </c><c>   1</c></rc>
    <rc><c>H </c><c>   1</c></rc>
    <rc><c>H </c><c>   1</c></rc>
    <rc><c>H </c><c>   1</c></rc>
    <rc><c>H </c><c>   1</c></rc>
    <rc><c>H </c><c>   1</c></rc>
    <rc><c>H </c><c>   1</c></rc>
    <rc><c>H </c><c>   1</c></rc>
    <rc><c>H </c><c>   1</c></rc>
    <rc><c>H </c><c>   1</c></rc>
    <rc><c>H </c><c>   1</c></rc>
    <rc><c>H </c><c>   1</c></rc>
    <rc><c>H </c><c>   1</c></rc>
    <rc><c>H </c><c>   1</c></rc>
    <rc><c>H </c><c>   1</c></rc>
    <rc><c>H </c><c>   1</c></rc>
    <rc><c>H </c><c>   1</c></rc>
    <rc><c>H </c><c>   1</c></rc>
    <rc><c>H </c><c>   1</c></rc>
    <rc><c>H </c><c>   1</c></rc>
    <rc><c>H </c><c>   1</c></rc>
    <rc><c>H </c><c>   1</c></rc>
    <rc><c>H </c><c>   1</c></rc>
    <rc><c>H </c><c>   1</c></rc>
    <rc><c>H </c><c>   1</c></rc>
    <rc><c>H </c><c>   1</c></rc>
    <rc><c>H </c><c>   1</c></rc>
    <rc><c>H </c><c>   1</c></rc>
    <rc><c>H </c><c>   1</c></rc>
    <rc><c>C </c><c>   2</c></rc>
    <rc><c>C </c><c>   2</c></rc>
    <rc><c>C </c><c>   2</c></rc>
    <rc><c>C </c><c>   2</c></rc>
    <rc><c>C </c><c>   2</c></rc>
    <rc><c>C </c><c>   2</c></rc>
    <rc><c>C </c><c>   2</c></rc>
    <rc><c>C </c><c>   2</c></rc>
    <rc><c>C </c><c>   2</c></rc>
    <rc><c>C </c><c>   2</c></rc>
    <rc><c>C </c><c>   2</c></rc>
    <rc><c>C </c><c>   2</c></rc>
    <rc><c>C </c><c>   2</c></rc>
    <rc><c>C </c><c>   2</c></rc>
    <rc><c>C </c><c>   2</c></rc>
    <rc><c>C </c><c>   2</c></rc>
    <rc><c>C </c><c>   2</c></rc>
    <rc><c>C </c><c>   2</c></rc>
    <rc><c>C </c><c>   2</c></rc>
    <rc><c>C </c><c>   2</c></rc>
    <rc><c>C </c><c>   2</c></rc>
    <rc><c>C </c><c>   2</c></rc>
    <rc><c>C </c><c>   2</c></rc>
    <rc><c>C </c><c>   2</c></rc>
    <rc><c>C </c><c>   2</c></rc>
    <rc><c>C </c><c>   2</c></rc>
    <rc><c>C </c><c>   2</c></rc>
    <rc><c>C </c><c>   2</c></rc>
    <rc><c>C </c><c>   2</c></rc>
    <rc><c>C </c><c>   2</c></rc>
    <rc><c>C </c><c>   2</c></rc>
    <rc><c>C </c><c>   2</c></rc>
    <rc><c>C </c><c>   2</c></rc>
    <rc><c>C </c><c>   2</c></rc>
    <rc><c>C </c><c>   2</c></rc>
    <rc><c>C </c><c>   2</c></rc>
    <rc><c>C </c><c>   2</c></rc>
    <rc><c>C </c><c>   2</c></rc>
    <rc><c>C </c><c>   2</c></rc>
    <rc><c>N </c><c>   3</c></rc>
    <rc><c>N </c><c>   3</c></rc>
    <rc><c>N </c><c>   3</c></rc>
    <rc><c>N </c><c>   3</c></rc>
    <rc><c>N </c><c>   3</c></rc>
    <rc><c>N </c><c>   3</c></rc>
    <rc><c>N </c><c>   3</c></rc>
    <rc><c>N </c><c>   3</c></rc>
    <rc><c>N </c><c>   3</c></rc>
    <rc><c>N </c><c>   3</c></rc>
    <rc><c>N </c><c>   3</c></rc>
    <rc><c>N </c><c>   3</c></rc>
    <rc><c>N </c><c>   3</c></rc>
    <rc><c>N </c><c>   3</c></rc>
    <rc><c>N </c><c>   3</c></rc>
    <rc><c>N </c><c>   3</c></rc>
    <rc><c>N </c><c>   3</c></rc>
    <rc><c>N </c><c>   3</c></rc>
    <rc><c>N </c><c>   3</c></rc>
    <rc><c>N </c><c>   3</c></rc>
    <rc><c>N </c><c>   3</c></rc>
    <rc><c>N </c><c>   3</c></rc>
    <rc><c>N </c><c>   3</c></rc>
    <rc><c>N </c><c>   3</c></rc>
    <rc><c>N </c><c>   3</c></rc>
    <rc><c>N </c><c>   3</c></rc>
    <rc><c>N </c><c>   3</c></rc>
    <rc><c>N </c><c>   3</c></rc>
    <rc><c>N </c><c>   3</c></rc>
    <rc><c>N </c><c>   3</c></rc>
    <rc><c>N </c><c>   3</c></rc>
    <rc><c>N </c><c>   3</c></rc>
    <rc><c>N </c><c>   3</c></rc>
    <rc><c>N </c><c>   3</c></rc>
    <rc><c>N </c><c>   3</c></rc>
    <rc><c>N </c><c>   3</c></rc>
    <rc><c>N </c><c>   3</c></rc>
    <rc><c>N </c><c>   3</c></rc>
    <rc><c>N </c><c>   3</c></rc>
    <rc><c>N </c><c>   3</c></rc>
    <rc><c>N </c><c>   3</c></rc>
    <rc><c>N </c><c>   3</c></rc>
    <rc><c>N </c><c>   3</c></rc>
    <rc><c>N </c><c>   3</c></rc>
    <rc><c>N </c><c>   3</c></rc>
    <rc><c>N </c><c>   3</c></rc>
    <rc><c>N </c><c>   3</c></rc>
    <rc><c>I </c><c>   4</c></rc>
    <rc><c>I </c><c>   4</c></rc>
    <rc><c>I </c><c>   4</c></rc>
    <rc><c>I </c><c>   4</c></rc>
    <rc><c>I </c><c>   4</c></rc>
    <rc><c>I </c><c>   4</c></rc>
    <rc><c>I </c><c>   4</c></rc>
    <rc><c>I </c><c>   4</c></rc>
    <rc><c>I </c><c>   4</c></rc>
    <rc><c>I </c><c>   4</c></rc>
    <rc><c>I </c><c>   4</c></rc>
    <rc><c>I </c><c>   4</c></rc>
    <rc><c>I </c><c>   4</c></rc>
    <rc><c>I </c><c>   4</c></rc>
    <rc><c>I </c><c>   4</c></rc>
    <rc><c>I </c><c>   4</c></rc>
    <rc><c>I </c><c>   4</c></rc>
    <rc><c>I </c><c>   4</c></rc>
    <rc><c>I </c><c>   4</c></rc>
    <rc><c>I </c><c>   4</c></rc>
    <rc><c>I </c><c>   4</c></rc>
    <rc><c>I </c><c>   4</c></rc>
    <rc><c>I </c><c>   4</c></rc>
    <rc><c>I </c><c>   4</c></rc>
    <rc><c>I </c><c>   4</c></rc>
    <rc><c>I </c><c>   4</c></rc>
    <rc><c>I </c><c>   4</c></rc>
    <rc><c>I </c><c>   4</c></rc>
    <rc><c>I </c><c>   4</c></rc>
    <rc><c>I </c><c>   4</c></rc>
    <rc><c>I </c><c>   4</c></rc>
    <rc><c>I </c><c>   4</c></rc>
    <rc><c>I </c><c>   4</c></rc>
    <rc><c>I </c><c>   4</c></rc>
    <rc><c>I </c><c>   4</c></rc>
    <rc><c>I </c><c>   4</c></rc>
    <rc><c>I </c><c>   4</c></rc>
    <rc><c>I </c><c>   4</c></rc>
    <rc><c>I </c><c>   4</c></rc>
    <rc><c>I </c><c>   4</c></rc>
    <rc><c>I </c><c>   4</c></rc>
    <rc><c>I </c><c>   4</c></rc>
    <rc><c>I </c><c>   4</c></rc>
    <rc><c>I </c><c>   4</c></rc>
    <rc><c>I </c><c>   4</c></rc>
    <rc><c>I </c><c>   4</c></rc>
    <rc><c>I </c><c>   4</c></rc>
    <rc><c>I </c><c>   4</c></rc>
    <rc><c>I </c><c>   4</c></rc>
    <rc><c>I </c><c>   4</c></rc>
    <rc><c>I </c><c>   4</c></rc>
    <rc><c>I </c><c>   4</c></rc>
    <rc><c>I </c><c>   4</c></rc>
    <rc><c>I </c><c>   4</c></rc>
    <rc><c>I </c><c>   4</c></rc>
    <rc><c>I </c><c>   4</c></rc>
    <rc><c>I </c><c>   4</c></rc>
    <rc><c>I </c><c>   4</c></rc>
    <rc><c>I </c><c>   4</c></rc>
    <rc><c>I </c><c>   4</c></rc>
    <rc><c>I </c><c>   4</c></rc>
    <rc><c>I </c><c>   4</c></rc>
    <rc><c>I </c><c>   4</c></rc>
    <rc><c>I </c><c>   4</c></rc>
    <rc><c>I </c><c>   4</c></rc>
    <rc><c>I </c><c>   4</c></rc>
    <rc><c>I </c><c>   4</c></rc>
    <rc><c>I </c><c>   4</c></rc>
    <rc><c>I </c><c>   4</c></rc>
    <rc><c>I </c><c>   4</c></rc>
    <rc><c>I </c><c>   4</c></rc>
    <rc><c>I </c><c>   4</c></rc>
    <rc><c>Pb</c><c>   5</c></rc>
    <rc><c>Pb</c><c>   5</c></rc>
    <rc><c>Pb</c><c>   5</c></rc>
    <rc><c>Pb</c><c>   5</c></rc>
    <rc><c>Pb</c><c>   5</c></rc>
    <rc><c>Pb</c><c>   5</c></rc>
    <rc><c>Pb</c><c>   5</c></rc>
    <rc><c>Pb</c><c>   5</c></rc>
    <rc><c>Pb</c><c>   5</c></rc>
    <rc><c>Pb</c><c>   5</c></rc>
    <rc><c>Pb</c><c>   5</c></rc>
    <rc><c>Pb</c><c>   5</c></rc>
    <rc><c>Pb</c><c>   5</c></rc>
    <rc><c>Pb</c><c>   5</c></rc>
    <rc><c>Pb</c><c>   5</c></rc>
    <rc><c>Pb</c><c>   5</c></rc>
    <rc><c>Pb</c><c>   5</c></rc>
    <rc><c>Pb</c><c>   5</c></rc>
    <rc><c>Pb</c><c>   5</c></rc>
    <rc><c>Pb</c><c>   5</c></rc>
    <rc><c>Pb</c><c>   5</c></rc>
    <rc><c>Pb</c><c>   5</c></rc>
    <rc><c>Pb</c><c>   5</c></rc>
    <rc><c>Pb</c><c>   5</c></rc>
   </set>
  </array>
  <array name="atomtypes" >
   <dimension dim="1">type</dimension>
   <field type="int">atomspertype</field>
   <field type="string">element</field>
   <field>mass</field>
   <field>valence</field>
   <field type="string">pseudopotential</field>
   <set>
    <rc><c> 143</c><c>H </c><c>      1.00000000</c><c>      1.00000000</c><c>  PAW_PBE H 15Jun2001                   </c></rc>
    <rc><c>  39</c><c>C </c><c>     12.01100000</c><c>      4.00000000</c><c>  PAW_PBE C 08Apr2002                   </c></rc>
    <rc><c>  47</c><c>N </c><c>     14.00100000</c><c>      5.00000000</c><c>  PAW_PBE N 08Apr2002                   </c></rc>
    <rc><c>  72</c><c>I </c><c>    126.90400000</c><c>      7.00000000</c><c>  PAW_PBE I 08Apr2002                   </c></rc>
    <rc><c>  24</c><c>Pb</c><c>    207.20000000</c><c>      4.00000000</c><c>  PAW_PBE Pb 08Apr2002                  </c></rc>
   </set>
  </array>
 </atominfo>
 <structure name="initialpos" >
  <crystal>
   <varray name="basis" >
    <v>      18.06080055       0.00000000       0.00000000 </v>
    <v>      -0.00491865      18.06279945       0.00000000 </v>
    <v>       0.00000000       0.00000000      62.48749924 </v>
   </varray>
   <i name="volume">  20385.21054034 </i>
   <varray name="rec_basis" >
    <v>       0.05536853       0.00001508      -0.00000000 </v>
    <v>       0.00000000       0.05536240       0.00000000 </v>
    <v>       0.00000000      -0.00000000       0.01600320 </v>
   </varray>
  </crystal>
  <varray name="positions" >
   <v>       0.46494572       0.33963508       0.56238366 </v>
   <v>       0.43714067       0.82215405       0.57492676 </v>
   <v>       0.92333988       0.28875465       0.57551593 </v>
   <v>       0.93360069       0.81779127       0.57255342 </v>
   <v>       0.32531256       0.07607788       0.57067066 </v>
   <v>       0.34885067       0.54395282       0.55649851 </v>
   <v>       0.80732570       0.09316619       0.56460389 </v>
   <v>       0.10870728       0.25045456       0.55608101 </v>
   <v>       0.07475362       0.67650568       0.57745754 </v>
   <v>       0.55258214       0.15568269       0.56102127 </v>
   <v>       0.50287534       0.64321968       0.55592235 </v>
   <v>       0.37901834       0.01126536       0.55732326 </v>
   <v>       0.29354425       0.62175905       0.55103593 </v>
   <v>       0.87718040       0.03264636       0.55567230 </v>
   <v>       0.06056721       0.29535143       0.57627267 </v>
   <v>       0.98566108       0.69797438       0.58546756 </v>
   <v>       0.57304724       0.24827692       0.56748643 </v>
   <v>       0.44506645       0.68400411       0.57476126 </v>
   <v>       0.27446823       0.43387969       0.57177104 </v>
   <v>       0.19009235       0.05662057       0.57229830 </v>
   <v>       0.68780758       0.03275577       0.57603086 </v>
   <v>       0.38151586       0.29634836       0.55508557 </v>
   <v>       0.49564548       0.86872332       0.55740952 </v>
   <v>       0.88249141       0.23536120       0.55544825 </v>
   <v>       0.98829517       0.86872416       0.55513148 </v>
   <v>       0.17899676       0.44238836       0.56918043 </v>
   <v>       0.15538060       0.97868166       0.56002339 </v>
   <v>       0.68228645       0.93739287       0.57047628 </v>
   <v>       0.43053297       0.18108802       0.55263324 </v>
   <v>       0.54258352       0.76001575       0.54261018 </v>
   <v>       0.99864445       0.20639101       0.53985309 </v>
   <v>       0.08430045       0.78104090       0.55538440 </v>
   <v>       0.18346782       0.56014461       0.55607002 </v>
   <v>       0.27350823       0.93721361       0.54920891 </v>
   <v>       0.79916447       0.92907617       0.55773033 </v>
   <v>       0.44068452       0.30232535       0.67101458 </v>
   <v>       0.45342477       0.80437923       0.67402165 </v>
   <v>       0.94892242       0.28664528       0.67467425 </v>
   <v>       0.91821543       0.73770381       0.66783346 </v>
   <v>       0.30148666       0.05180655       0.67257178 </v>
   <v>       0.29694634       0.56122422       0.67344531 </v>
   <v>       0.80535760       0.05845387       0.67322676 </v>
   <v>       0.84124179       0.46856625       0.66183819 </v>
   <v>       0.08361543       0.16706034       0.64758131 </v>
   <v>       0.11133961       0.70763452       0.65387309 </v>
   <v>       0.57848665       0.17174908       0.65008272 </v>
   <v>       0.57372480       0.66993870       0.64653080 </v>
   <v>       0.18386245       0.41318445       0.64982797 </v>
   <v>       0.16905052       0.92431177       0.64736459 </v>
   <v>       0.64060179       0.47402300       0.65526570 </v>
   <v>       0.67540738       0.91900850       0.65250655 </v>
   <v>       0.05235099       0.18669563       0.67330013 </v>
   <v>       0.03575039       0.66430022       0.66596828 </v>
   <v>       0.54242627       0.20237923       0.67436761 </v>
   <v>       0.55217492       0.69839069       0.67246226 </v>
   <v>       0.20514364       0.44978875       0.67471216 </v>
   <v>       0.19862297       0.95057736       0.67289966 </v>
   <v>       0.71309854       0.41340380       0.66200521 </v>
   <v>       0.70609847       0.95519151       0.67688978 </v>
   <v>       0.41988738       0.32744956       0.64485579 </v>
   <v>       0.42296501       0.83314009       0.64903692 </v>
   <v>       0.92442263       0.32212438       0.64956638 </v>
   <v>       0.91997559       0.82442662       0.65538334 </v>
   <v>       0.32839779       0.07957606       0.64708817 </v>
   <v>       0.32304560       0.58671558       0.64768985 </v>
   <v>       0.82884930       0.07931495       0.64681388 </v>
   <v>       0.84861637       0.55691566       0.65121912 </v>
   <v>       0.00708805       0.25057447       0.63097331 </v>
   <v>       0.04292873       0.81362997       0.64512152 </v>
   <v>       0.50536474       0.24878776       0.62969089 </v>
   <v>       0.49407368       0.75086179       0.63017627 </v>
   <v>       0.24777703       0.00244513       0.62956849 </v>
   <v>       0.25654400       0.49490180       0.63104132 </v>
   <v>       0.75031302       0.99369139       0.63207698 </v>
   <v>       0.72154794       0.57098730       0.64717614 </v>
   <v>       0.44874502       0.30128397       0.76888902 </v>
   <v>       0.44874501       0.80128391       0.76888902 </v>
   <v>       0.94874497       0.30128397       0.76888902 </v>
   <v>       0.94874501       0.80128391       0.76888902 </v>
   <v>       0.30127600       0.05129450       0.76887296 </v>
   <v>       0.30127601       0.55129450       0.76887296 </v>
   <v>       0.80127594       0.05129450       0.76887296 </v>
   <v>       0.80127598       0.55129450       0.76887296 </v>
   <v>       0.07877100       0.17118050       0.74344197 </v>
   <v>       0.07877101       0.67118045       0.74344197 </v>
   <v>       0.57877100       0.17118050       0.74344197 </v>
   <v>       0.57877099       0.67118045       0.74344197 </v>
   <v>       0.17119950       0.42117448       0.74342103 </v>
   <v>       0.17119950       0.92117451       0.74342103 </v>
   <v>       0.67119951       0.42117448       0.74342103 </v>
   <v>       0.67119950       0.92117451       0.74342103 </v>
   <v>       0.05125600       0.19871499       0.76888902 </v>
   <v>       0.05125600       0.69871493       0.76888902 </v>
   <v>       0.55125603       0.19871499       0.76888902 </v>
   <v>       0.55125602       0.69871493       0.76888902 </v>
   <v>       0.19872349       0.44870397       0.76887205 </v>
   <v>       0.19872349       0.94870397       0.76887205 </v>
   <v>       0.69872352       0.44870397       0.76887205 </v>
   <v>       0.69872351       0.94870397       0.76887205 </v>
   <v>       0.42123152       0.32881747       0.74344197 </v>
   <v>       0.42123151       0.82881744       0.74344197 </v>
   <v>       0.92123147       0.32881747       0.74344197 </v>
   <v>       0.92123151       0.82881744       0.74344197 </v>
   <v>       0.32880050       0.07882500       0.74342103 </v>
   <v>       0.32880049       0.57882496       0.74342103 </v>
   <v>       0.82880048       0.07882500       0.74342103 </v>
   <v>       0.82880052       0.57882496       0.74342103 </v>
   <v>       0.00000350       0.25000148       0.72582199 </v>
   <v>       0.00000350       0.75000145       0.72582199 </v>
   <v>       0.50000351       0.25000148       0.72582199 </v>
   <v>       0.50000350       0.75000145       0.72582199 </v>
   <v>       0.25000050       0.00000000       0.72580398 </v>
   <v>       0.25000052       0.50000000       0.72580398 </v>
   <v>       0.75000050       0.00000000       0.72580398 </v>
   <v>       0.75000049       0.50000000       0.72580398 </v>
   <v>       0.72008080       0.44557835       0.53836122 </v>
   <v>       0.74277549       0.49750024       0.51547395 </v>
   <v>       0.66294435       0.55317278       0.55567328 </v>
   <v>       0.71031619       0.63917612       0.55429446 </v>
   <v>       0.85404408       0.50994175       0.56696130 </v>
   <v>       0.79345721       0.57943335       0.57636070 </v>
   <v>       0.87909440       0.55956621       0.53077596 </v>
   <v>       0.80886749       0.61719950       0.51997223 </v>
   <v>       0.87298313       0.46241691       0.51727222 </v>
   <v>       0.86359637       0.42585370       0.54316632 </v>
   <v>       0.87321442       0.32616842       0.51851918 </v>
   <v>       0.78446616       0.32395752       0.52984273 </v>
   <v>       0.63872765       0.55301138       0.51683073 </v>
   <v>       0.69689496       0.63262598       0.51294488 </v>
   <v>       0.61456248       0.63910642       0.52791168 </v>
   <v>       0.76458589       0.46648492       0.59484072 </v>
   <v>       0.75551316       0.41423499       0.57117119 </v>
   <v>       0.68833952       0.48255733       0.57783432 </v>
   <v>       0.81816360       0.69277751       0.55569568 </v>
   <v>       0.89661671       0.69384476       0.53887786 </v>
   <v>       0.89764901       0.63644289       0.56178076 </v>
   <v>       0.82093630       0.38075866       0.48479753 </v>
   <v>       0.78724207       0.29205857       0.49125191 </v>
   <v>       0.66325433       0.30178549       0.51805369 </v>
   <v>       0.73219429       0.46027052       0.47042142 </v>
   <v>       0.53559019       0.35273786       0.51656188 </v>
   <v>       0.60434113       0.50955723       0.46853091 </v>
   <v>       0.50567844       0.45740128       0.49226020 </v>
   <v>       0.99574214       0.24006125       0.55434720 </v>
   <v>       0.03302389       0.77058928       0.56418773 </v>
   <v>       0.46722723       0.22653221       0.55717687 </v>
   <v>       0.50074673       0.75650792       0.55511347 </v>
   <v>       0.23532388       0.53093829       0.55894248 </v>
   <v>       0.26750433       0.98986029       0.55765322 </v>
   <v>       0.77957275       0.98329592       0.56285263 </v>
   <v>       0.00426792       0.24479840       0.64844800 </v>
   <v>       0.01685900       0.76819712       0.65382474 </v>
   <v>       0.49960631       0.24959898       0.64710685 </v>
   <v>       0.49782306       0.75110403       0.64762123 </v>
   <v>       0.25435835       0.49907071       0.64843005 </v>
   <v>       0.24856446       0.00167395       0.64707596 </v>
   <v>       0.74350594       0.51869678       0.65324699 </v>
   <v>       0.75204299       0.99902766       0.64951236 </v>
   <v>       0.49998898       0.24999498       0.74327702 </v>
   <v>       0.49998903       0.74999496       0.74327702 </v>
   <v>       0.99998898       0.24999498       0.74327702 </v>
   <v>       0.99998903       0.74999496       0.74327702 </v>
   <v>       0.25000050       0.00000100       0.74325596 </v>
   <v>       0.25000052       0.50000100       0.74325596 </v>
   <v>       0.75000050       0.00000100       0.74325596 </v>
   <v>       0.75000049       0.50000100       0.74325596 </v>
   <v>       0.70704686       0.37841708       0.49442225 </v>
   <v>       0.65051612       0.34777034       0.50717438 </v>
   <v>       0.68887950       0.43645279       0.48051997 </v>
   <v>       0.57843552       0.37605354       0.50627198 </v>
   <v>       0.61704572       0.46438753       0.47948470 </v>
   <v>       0.56143809       0.43469262       0.49254630 </v>
   <v>       0.76424604       0.47826683       0.53089708 </v>
   <v>       0.69930465       0.58744086       0.54565882 </v>
   <v>       0.79570332       0.52730570       0.56743747 </v>
   <v>       0.83292365       0.59614837       0.53486284 </v>
   <v>       0.83450234       0.43258473       0.52782975 </v>
   <v>       0.81963346       0.35531106       0.51868364 </v>
   <v>       0.66154980       0.60276408       0.52439743 </v>
   <v>       0.74760589       0.46952960       0.57800599 </v>
   <v>       0.86216765       0.65790119       0.54897082 </v>
   <v>       0.78583246       0.35055304       0.49615536 </v>
   <v>       0.05818460       0.26272063       0.56279457 </v>
   <v>       0.02948133       0.70984336       0.57553076 </v>
   <v>       0.53634549       0.21004857       0.56157436 </v>
   <v>       0.48048223       0.69085224       0.56196878 </v>
   <v>       0.43764764       0.29285069       0.55748821 </v>
   <v>       0.47416598       0.81921512       0.56253885 </v>
   <v>       0.93012157       0.25435013       0.56244154 </v>
   <v>       0.97847294       0.81857907       0.56232329 </v>
   <v>       0.23034178       0.46247366       0.56572228 </v>
   <v>       0.20086290       0.00946826       0.56367610 </v>
   <v>       0.71127991       0.98618835       0.56983944 </v>
   <v>       0.32710785       0.02894710       0.56157552 </v>
   <v>       0.29706497       0.56658155       0.55480549 </v>
   <v>       0.82425995       0.04005168       0.56113640 </v>
   <v>       0.04868362       0.19633793       0.65725347 </v>
   <v>       0.05586222       0.70862505       0.65766456 </v>
   <v>       0.54260308       0.20559222       0.65812327 </v>
   <v>       0.54325464       0.70318578       0.65635363 </v>
   <v>       0.21255766       0.45107997       0.65851843 </v>
   <v>       0.20274054       0.95635086       0.65670734 </v>
   <v>       0.69646069       0.46524391       0.65729339 </v>
   <v>       0.70908261       0.95499606       0.66059899 </v>
   <v>       0.45056079       0.29592843       0.65509990 </v>
   <v>       0.45595689       0.79888204       0.65779899 </v>
   <v>       0.95695098       0.28736280       0.65850415 </v>
   <v>       0.94719464       0.77699232       0.65940991 </v>
   <v>       0.29568255       0.04678093       0.65648867 </v>
   <v>       0.29392442       0.55191001       0.65733832 </v>
   <v>       0.79735264       0.04934657       0.65734357 </v>
   <v>       0.81561737       0.51364741       0.65552864 </v>
   <v>       0.04586250       0.20411950       0.75272599 </v>
   <v>       0.04586250       0.70411946       0.75272599 </v>
   <v>       0.54586251       0.20411950       0.75272599 </v>
   <v>       0.54586250       0.70411946       0.75272599 </v>
   <v>       0.20411900       0.45410100       0.75270499 </v>
   <v>       0.20411899       0.95410095       0.75270499 </v>
   <v>       0.70411898       0.45410100       0.75270499 </v>
   <v>       0.70411896       0.95410095       0.75270499 </v>
   <v>       0.45414002       0.29588849       0.75272697 </v>
   <v>       0.45414001       0.79588852       0.75272697 </v>
   <v>       0.95414002       0.29588849       0.75272697 </v>
[...]
   <v>       0.55258214       0.15568269       0.56102127 </v>
   <v>       0.50287534       0.64321968       0.55592235 </v>
   <v>       0.37901834       0.01126536       0.55732326 </v>
   <v>       0.29354425       0.62175905       0.55103593 </v>
   <v>       0.87718040       0.03264636       0.55567230 </v>
   <v>       0.06056721       0.29535143       0.57627267 </v>
   <v>       0.98566108       0.69797438       0.58546756 </v>
   <v>       0.57304724       0.24827692       0.56748643 </v>
   <v>       0.44506645       0.68400411       0.57476126 </v>
   <v>       0.27446823       0.43387969       0.57177104 </v>
   <v>       0.19009235       0.05662057       0.57229830 </v>
   <v>       0.68780758       0.03275577       0.57603086 </v>
   <v>       0.38151586       0.29634836       0.55508557 </v>
   <v>       0.49564548       0.86872332       0.55740952 </v>
   <v>       0.88249141       0.23536120       0.55544825 </v>
   <v>       0.98829517       0.86872416       0.55513148 </v>
   <v>       0.17899676       0.44238836       0.56918043 </v>
   <v>       0.15538060       0.97868166       0.56002339 </v>
   <v>       0.68228645       0.93739287       0.57047628 </v>
   <v>       0.43053297       0.18108802       0.55263324 </v>
   <v>       0.54258352       0.76001575       0.54261018 </v>
   <v>       0.99864445       0.20639101       0.53985309 </v>
   <v>       0.08430045       0.78104090       0.55538440 </v>
   <v>       0.18346782       0.56014461       0.55607002 </v>
   <v>       0.27350823       0.93721361       0.54920891 </v>
   <v>       0.79916447       0.92907617       0.55773033 </v>
   <v>       0.44068452       0.30232535       0.67101458 </v>
   <v>       0.45342477       0.80437923       0.67402165 </v>
   <v>       0.94892242       0.28664528       0.67467425 </v>
   <v>       0.91821543       0.73770381       0.66783346 </v>
   <v>       0.30148666       0.05180655       0.67257178 </v>
   <v>       0.29694634       0.56122422       0.67344531 </v>
   <v>       0.80535760       0.05845387       0.67322676 </v>
   <v>       0.84124179       0.46856625       0.66183819 </v>
   <v>       0.08361543       0.16706034       0.64758131 </v>
   <v>       0.11133961       0.70763452       0.65387309 </v>
   <v>       0.57848665       0.17174908       0.65008272 </v>
   <v>       0.57372480       0.66993870       0.64653080 </v>
   <v>       0.18386245       0.41318445       0.64982797 </v>
   <v>       0.16905052       0.92431177       0.64736459 </v>
   <v>       0.64060179       0.47402300       0.65526570 </v>
   <v>       0.67540738       0.91900850       0.65250655 </v>
   <v>       0.05235099       0.18669563       0.67330013 </v>
   <v>       0.03575039       0.66430022       0.66596828 </v>
   <v>       0.54242627       0.20237923       0.67436761 </v>
   <v>       0.55217492       0.69839069       0.67246226 </v>
   <v>       0.20514364       0.44978875       0.67471216 </v>
   <v>       0.19862297       0.95057736       0.67289966 </v>
   <v>       0.71309854       0.41340380       0.66200521 </v>
   <v>       0.70609847       0.95519151       0.67688978 </v>
   <v>       0.41988738       0.32744956       0.64485579 </v>
   <v>       0.42296501       0.83314009       0.64903692 </v>
   <v>       0.92442263       0.32212438       0.64956638 </v>
   <v>       0.91997559       0.82442662       0.65538334 </v>
   <v>       0.32839779       0.07957606       0.64708817 </v>
   <v>       0.32304560       0.58671558       0.64768985 </v>
   <v>       0.82884930       0.07931495       0.64681388 </v>
   <v>       0.84861637       0.55691566       0.65121912 </v>
   <v>       0.00708805       0.25057447       0.63097331 </v>
   <v>       0.04292873       0.81362997       0.64512152 </v>
   <v>       0.50536474       0.24878776       0.62969089 </v>
   <v>       0.49407368       0.75086179       0.63017627 </v>
   <v>       0.24777703       0.00244513       0.62956849 </v>
   <v>       0.25654400       0.49490180       0.63104132 </v>
   <v>       0.75031302       0.99369139       0.63207698 </v>
   <v>       0.72154794       0.57098730       0.64717614 </v>
   <v>       0.44874502       0.30128397       0.76888902 </v>
   <v>       0.44874501       0.80128391       0.76888902 </v>
   <v>       0.94874497       0.30128397       0.76888902 </v>
   <v>       0.94874501       0.80128391       0.76888902 </v>
   <v>       0.30127600       0.05129450       0.76887296 </v>
   <v>       0.30127601       0.55129450       0.76887296 </v>
   <v>       0.80127594       0.05129450       0.76887296 </v>
   <v>       0.80127598       0.55129450       0.76887296 </v>
   <v>       0.07877100       0.17118050       0.74344197 </v>
   <v>       0.07877101       0.67118045       0.74344197 </v>
   <v>       0.57877100       0.17118050       0.74344197 </v>
   <v>       0.57877099       0.67118045       0.74344197 </v>
   <v>       0.17119950       0.42117448       0.74342103 </v>
   <v>       0.17119950       0.92117451       0.74342103 </v>
   <v>       0.67119951       0.42117448       0.74342103 </v>
   <v>       0.67119950       0.92117451       0.74342103 </v>
   <v>       0.05125600       0.19871499       0.76888902 </v>
   <v>       0.05125600       0.69871493       0.76888902 </v>
   <v>       0.55125603       0.19871499       0.76888902 </v>
   <v>       0.55125602       0.69871493       0.76888902 </v>
   <v>       0.19872349       0.44870397       0.76887205 </v>
   <v>       0.19872349       0.94870397       0.76887205 </v>
   <v>       0.69872352       0.44870397       0.76887205 </v>
   <v>       0.69872351       0.94870397       0.76887205 </v>
   <v>       0.42123152       0.32881747       0.74344197 </v>
   <v>       0.42123151       0.82881744       0.74344197 </v>
   <v>       0.92123147       0.32881747       0.74344197 </v>
   <v>       0.92123151       0.82881744       0.74344197 </v>
   <v>       0.32880050       0.07882500       0.74342103 </v>
   <v>       0.32880049       0.57882496       0.74342103 </v>
   <v>       0.82880048       0.07882500       0.74342103 </v>
   <v>       0.82880052       0.57882496       0.74342103 </v>
   <v>       0.00000350       0.25000148       0.72582199 </v>
   <v>       0.00000350       0.75000145       0.72582199 </v>
   <v>       0.50000351       0.25000148       0.72582199 </v>
   <v>       0.50000350       0.75000145       0.72582199 </v>
   <v>       0.25000050       0.00000000       0.72580398 </v>
   <v>       0.25000052       0.50000000       0.72580398 </v>
   <v>       0.75000050       0.00000000       0.72580398 </v>
   <v>       0.75000049       0.50000000       0.72580398 </v>
   <v>       0.72008080       0.44557835       0.53836122 </v>
   <v>       0.74277549       0.49750024       0.51547395 </v>
   <v>       0.66294435       0.55317278       0.55567328 </v>
   <v>       0.71031619       0.63917612       0.55429446 </v>
   <v>       0.85404408       0.50994175       0.56696130 </v>
   <v>       0.79345721       0.57943335       0.57636070 </v>
   <v>       0.87909440       0.55956621       0.53077596 </v>
   <v>       0.80886749       0.61719950       0.51997223 </v>
   <v>       0.87298313       0.46241691       0.51727222 </v>
   <v>       0.86359637       0.42585370       0.54316632 </v>
   <v>       0.87321442       0.32616842       0.51851918 </v>
   <v>       0.78446616       0.32395752       0.52984273 </v>
   <v>       0.63872765       0.55301138       0.51683073 </v>
   <v>       0.69689496       0.63262598       0.51294488 </v>
   <v>       0.61456248       0.63910642       0.52791168 </v>
   <v>       0.76458589       0.46648492       0.59484072 </v>
   <v>       0.75551316       0.41423499       0.57117119 </v>
   <v>       0.68833952       0.48255733       0.57783432 </v>
   <v>       0.81816360       0.69277751       0.55569568 </v>
   <v>       0.89661671       0.69384476       0.53887786 </v>
   <v>       0.89764901       0.63644289       0.56178076 </v>
   <v>       0.82093630       0.38075866       0.48479753 </v>
   <v>       0.78724207       0.29205857       0.49125191 </v>
   <v>       0.66325433       0.30178549       0.51805369 </v>
   <v>       0.73219429       0.46027052       0.47042142 </v>
   <v>       0.53559019       0.35273786       0.51656188 </v>
   <v>       0.60434113       0.50955723       0.46853091 </v>
   <v>       0.50567844       0.45740128       0.49226020 </v>
   <v>       0.99574214       0.24006125       0.55434720 </v>
   <v>       0.03302389       0.77058928       0.56418773 </v>
   <v>       0.46722723       0.22653221       0.55717687 </v>
   <v>       0.50074673       0.75650792       0.55511347 </v>
   <v>       0.23532388       0.53093829       0.55894248 </v>
   <v>       0.26750433       0.98986029       0.55765322 </v>
   <v>       0.77957275       0.98329592       0.56285263 </v>
   <v>       0.00426792       0.24479840       0.64844800 </v>
   <v>       0.01685900       0.76819712       0.65382474 </v>
   <v>       0.49960631       0.24959898       0.64710685 </v>
   <v>       0.49782306       0.75110403       0.64762123 </v>
   <v>       0.25435835       0.49907071       0.64843005 </v>
   <v>       0.24856446       0.00167395       0.64707596 </v>
   <v>       0.74350594       0.51869678       0.65324699 </v>
   <v>       0.75204299       0.99902766       0.64951236 </v>
   <v>       0.49998898       0.24999498       0.74327702 </v>
   <v>       0.49998903       0.74999496       0.74327702 </v>
   <v>       0.99998898       0.24999498       0.74327702 </v>
   <v>       0.99998903       0.74999496       0.74327702 </v>
   <v>       0.25000050       0.00000100       0.74325596 </v>
   <v>       0.25000052       0.50000100       0.74325596 </v>
   <v>       0.75000050       0.00000100       0.74325596 </v>
   <v>       0.75000049       0.50000100       0.74325596 </v>
   <v>       0.70704686       0.37841708       0.49442225 </v>
   <v>       0.65051612       0.34777034       0.50717438 </v>
   <v>       0.68887950       0.43645279       0.48051997 </v>
   <v>       0.57843552       0.37605354       0.50627198 </v>
   <v>       0.61704572       0.46438753       0.47948470 </v>
   <v>       0.56143809       0.43469262       0.49254630 </v>
   <v>       0.76424604       0.47826683       0.53089708 </v>
   <v>       0.69930465       0.58744086       0.54565882 </v>
   <v>       0.79570332       0.52730570       0.56743747 </v>
   <v>       0.83292365       0.59614837       0.53486284 </v>
   <v>       0.83450234       0.43258473       0.52782975 </v>
   <v>       0.81963346       0.35531106       0.51868364 </v>
   <v>       0.66154980       0.60276408       0.52439743 </v>
   <v>       0.74760589       0.46952960       0.57800599 </v>
   <v>       0.86216765       0.65790119       0.54897082 </v>
   <v>       0.78583246       0.35055304       0.49615536 </v>
   <v>       0.05818460       0.26272063       0.56279457 </v>
   <v>       0.02948133       0.70984336       0.57553076 </v>
   <v>       0.53634549       0.21004857       0.56157436 </v>
   <v>       0.48048223       0.69085224       0.56196878 </v>
   <v>       0.43764764       0.29285069       0.55748821 </v>
   <v>       0.47416598       0.81921512       0.56253885 </v>
   <v>       0.93012157       0.25435013       0.56244154 </v>
   <v>       0.97847294       0.81857907       0.56232329 </v>
   <v>       0.23034178       0.46247366       0.56572228 </v>
   <v>       0.20086290       0.00946826       0.56367610 </v>
   <v>       0.71127991       0.98618835       0.56983944 </v>
   <v>       0.32710785       0.02894710       0.56157552 </v>
   <v>       0.29706497       0.56658155       0.55480549 </v>
   <v>       0.82425995       0.04005168       0.56113640 </v>
   <v>       0.04868362       0.19633793       0.65725347 </v>
   <v>       0.05586222       0.70862505       0.65766456 </v>
   <v>       0.54260308       0.20559222       0.65812327 </v>
   <v>       0.54325464       0.70318578       0.65635363 </v>
   <v>       0.21255766       0.45107997       0.65851843 </v>
   <v>       0.20274054       0.95635086       0.65670734 </v>
   <v>       0.69646069       0.46524391       0.65729339 </v>
   <v>       0.70908261       0.95499606       0.66059899 </v>
   <v>       0.45056079       0.29592843       0.65509990 </v>
   <v>       0.45595689       0.79888204       0.65779899 </v>
   <v>       0.95695098       0.28736280       0.65850415 </v>
   <v>       0.94719464       0.77699232       0.65940991 </v>
   <v>       0.29568255       0.04678093       0.65648867 </v>
   <v>       0.29392442       0.55191001       0.65733832 </v>
   <v>       0.79735264       0.04934657       0.65734357 </v>
   <v>       0.81561737       0.51364741       0.65552864 </v>
   <v>       0.04586250       0.20411950       0.75272599 </v>
   <v>       0.04586250       0.70411946       0.75272599 </v>
   <v>       0.54586251       0.20411950       0.75272599 </v>
   <v>       0.54586250       0.70411946       0.75272599 </v>
   <v>       0.20411900       0.45410100       0.75270499 </v>
   <v>       0.20411899       0.95410095       0.75270499 </v>
   <v>       0.70411898       0.45410100       0.75270499 </v>
   <v>       0.70411896       0.95410095       0.75270499 </v>
   <v>       0.45414002       0.29588849       0.75272697 </v>
   <v>       0.45414001       0.79588852       0.75272697 </v>
   <v>       0.95414002       0.29588849       0.75272697 </v>
   <v>       0.95414006       0.79588852       0.75272697 </v>
   <v>       0.29588249       0.04590050       0.75270499 </v>
   <v>       0.29588248       0.54590053       0.75270499 </v>
   <v>       0.79588244       0.04590050       0.75270499 </v>
   <v>       0.79588248       0.54590053       0.75270499 </v>
   <v>       0.77352192       0.54704608       0.54464501 </v>
   <v>       0.51967727       0.01078065       0.55328626 </v>
   <v>       0.49018401       0.49413344       0.55232196 </v>
   <v>       0.01242793       0.00853326       0.55060756 </v>
   <v>       0.02378029       0.49910592       0.55444250 </v>
   <v>       0.25152326       0.23046321       0.55303725 </v>
   <v>       0.25327655       0.76301128       0.55214504 </v>
   <v>       0.73482682       0.21269479       0.55580660 </v>
   <v>       0.69984996       0.79646908       0.55534875 </v>
   <v>       0.99916169       0.98605560       0.65385191 </v>
   <v>       0.01287820       0.50038743       0.65527273 </v>
   <v>       0.49446694       0.00411605       0.65495656 </v>
   <v>       0.49999151       0.49562682       0.65385582 </v>
   <v>       0.25205860       0.24712387       0.65461579 </v>
   <v>       0.25083422       0.75385822       0.65413444 </v>
   <v>       0.74752055       0.26957839       0.65500833 </v>
   <v>       0.74898211       0.73942417       0.65454547 </v>
   <v>       0.13017343       0.12138099       0.60727252 </v>
   <v>       0.14981487       0.60834775       0.60737569 </v>
   <v>       0.63859604       0.11490311       0.61198733 </v>
   <v>       0.63168768       0.61779843       0.60643819 </v>
   <v>       0.36096677       0.38987484       0.60507378 </v>
   <v>       0.36957504       0.88610458       0.60764119 </v>
   <v>       0.88872609       0.36704390       0.60753344 </v>
   <v>       0.86736057       0.88224312       0.60640254 </v>
   <v>       0.12143703       0.36659385       0.60895114 </v>
   <v>       0.12337432       0.87529473       0.60623142 </v>
   <v>       0.59828532       0.34964941       0.60102256 </v>
   <v>       0.61697177       0.86740607       0.61471163 </v>
   <v>       0.38771805       0.13517703       0.60722356 </v>
   <v>       0.38561076       0.63568608       0.60885737 </v>
   <v>       0.88252483       0.13551000       0.61079545 </v>
   <v>       0.89369720       0.63955404       0.61285140 </v>
   <v>       0.00000000       0.00000000       0.75492797 </v>
   <v>       0.00000000       0.50000000       0.75492797 </v>
   <v>       0.50000000       0.00000000       0.75492797 </v>
   <v>       0.49999999       0.50000000       0.75492797 </v>
   <v>       0.25000050       0.25000000       0.75493902 </v>
   <v>       0.25000051       0.74999997       0.75493902 </v>
   <v>       0.75000047       0.25000000       0.75493902 </v>
   <v>       0.75000046       0.74999997       0.75493902 </v>
   <v>       0.13579050       0.11421000       0.70478299 </v>
   <v>       0.13579050       0.61420998       0.70478299 </v>
   <v>       0.63579045       0.11421000       0.70478299 </v>
   <v>       0.63579049       0.61420998       0.70478299 </v>
   <v>       0.36420952       0.38578999       0.70478299 </v>
   <v>       0.36420950       0.88578996       0.70478299 </v>
   <v>       0.86420954       0.38578999       0.70478299 </v>
   <v>       0.86420953       0.88578996       0.70478299 </v>
   <v>       0.11421799       0.36421899       0.70478098 </v>
   <v>       0.11421799       0.86421899       0.70478098 </v>
   <v>       0.61421800       0.36421899       0.70478098 </v>
   <v>       0.61421799       0.86421899       0.70478098 </v>
   <v>       0.38578201       0.13578149       0.70478202 </v>
   <v>       0.38578200       0.63578149       0.70478202 </v>
   <v>       0.88578199       0.13578149       0.70478202 </v>
   <v>       0.88578203       0.63578149       0.70478202 </v>
   <v>       0.13466700       0.11533200       0.80125603 </v>
   <v>       0.13466699       0.61533199       0.80125603 </v>
   <v>       0.63466699       0.11533200       0.80125603 </v>
   <v>       0.63466698       0.61533199       0.80125603 </v>
   <v>       0.36533300       0.38466799       0.80125603 </v>
   <v>       0.36533299       0.88466796       0.80125603 </v>
   <v>       0.86533295       0.38466799       0.80125603 </v>
   <v>       0.86533294       0.88466796       0.80125603 </v>
   <v>       0.11532850       0.36533700       0.80126500 </v>
   <v>       0.11532850       0.86533698       0.80126500 </v>
   <v>       0.61532850       0.36533700       0.80126500 </v>
   <v>       0.61532849       0.86533698       0.80126500 </v>
   <v>       0.38467151       0.13466300       0.80126500 </v>
   <v>       0.38467150       0.63466297       0.80126500 </v>
   <v>       0.88467149       0.13466300       0.80126500 </v>
   <v>       0.88467153       0.63466297       0.80126500 </v>
   <v>       0.99830759       0.00370391       0.60382683 </v>
   <v>       0.00497885       0.50456938       0.60417974 </v>
   <v>       0.50492026       0.00086490       0.60540069 </v>
   <v>       0.50229309       0.49825113       0.60314163 </v>
   <v>       0.25242870       0.24886857       0.60433102 </v>
   <v>       0.25123065       0.75359460       0.60298138 </v>
   <v>       0.74699883       0.25109830       0.60504576 </v>
   <v>       0.74326556       0.75595561       0.60366438 </v>
   <v>       0.00000050       0.00000050       0.70482896 </v>
   <v>       0.00000050       0.50000048       0.70482896 </v>
   <v>       0.50000048       0.00000050       0.70482896 </v>
   <v>       0.50000046       0.50000048       0.70482896 </v>
   <v>       0.24999999       0.24999947       0.70482499 </v>
   <v>       0.25000001       0.74999950       0.70482499 </v>
   <v>       0.74999999       0.24999947       0.70482499 </v>
   <v>       0.74999998       0.74999950       0.70482499 </v>
   <v>       0.00000000       0.00000000       0.80731797 </v>
   <v>       0.00000000       0.50000000       0.80731797 </v>
   <v>       0.50000000       0.00000000       0.80731797 </v>
   <v>       0.49999999       0.50000000       0.80731797 </v>
   <v>       0.24999999       0.25000000       0.80731797 </v>
   <v>       0.25000001       0.74999997       0.80731797 </v>
   <v>       0.74999999       0.25000000       0.80731797 </v>
   <v>       0.74999998       0.74999997       0.80731797 </v>
  </varray>
 </structure>
</modeling>
