 vasp.6.2.1 16May21 (build Nov 15 2021 14:57:28) complex                         
 executed on             LinuxPGI date 2023.07.30  13:05:46
 running on    4 total cores
 distrk:  each k-point on    4 cores,    1 groups
 distr:  one band on NCORE=   1 cores,    4 groups


--------------------------------------------------------------------------------------------------------


 INCAR:
   SYSTEM = PSC
   ISTART = 1
   ICHARG = 1
   PREC = Normal
   ENCUT = 500
   GGA_COMPAT = F
   NELM = 600
   ISYM = 0
   LREAL = Auto
   ISMEAR = 0
   SIGMA = 0.05
   AMIN = 0.01
   BMIX = 0.01
   LVTOT = T
   LWAVE = F
   LDIPOL = T
   IDIPOL = 3
   LVDW = T
   IVDW = 12

 POTCAR:    PAW_PBE H 15Jun2001                   
 POTCAR:    PAW_PBE C 08Apr2002                   
 POTCAR:    PAW_PBE N 08Apr2002                   
 POTCAR:    PAW_PBE I 08Apr2002                   
 POTCAR:    PAW_PBE Pb 08Apr2002                  
 WARNING: For LVTOT=.TRUE., VASP.5.x writes the TOTAL local potential to the
     file LOCPOT. If you want only the Hartree contributions, use LVHAR=.TRUE.
     instead. 

 POTCAR:    PAW_PBE H 15Jun2001                   
   SHA256 =  030f79b5d3ab3cf0e668861823c8fb652ff669f3e15e46930bd03bfd63a607b6 H/POTCAR              
   COPYR  = (c) Copyright 15Jun2001 Georg Kresse                                                    
   COPYR  = This file is part of the software VASP. Any use, copying, and all other rights are regul
   COPYR  = If you do not have a valid VASP license, you may not use, copy or distribute this file. 
   VRHFIN =H: ultrasoft test                                                                        
   LEXCH  = PE                                                                                      
   EATOM  =    12.4884 eV,    0.9179 Ry                                                             
                                                                                                    
   TITEL  = PAW_PBE H 15Jun2001                                                                     
   LULTRA =        F    use ultrasoft PP ?                                                          
   IUNSCR =        0    unscreen: 0-lin 1-nonlin 2-no                                               
   RPACOR =    0.000    partial core radius                                                         
   POMASS =    1.000; ZVAL   =    1.000    mass and valenz                                          
   RCORE  =    1.100    outmost cutoff radius                                                       
   RWIGS  =    0.700; RWIGS  =    0.370    wigner-seitz radius (au A)                               
   ENMAX  =  250.000; ENMIN  =  200.000 eV                                                          
   RCLOC  =    0.701    cutoff for local pot                                                        
   LCOR   =        T    correct aug charges                                                         
   LPAW   =        T    paw PP                                                                      
   EAUG   =  400.000                                                                                
   RMAX   =    1.123    core radius for proj-oper                                                   
   RAUG   =    1.200    factor for augmentation sphere                                              
   RDEP   =    1.112    radius for radial grids                                                     
   RDEPT  =    0.926    core radius for aug-charge                                                  
                                                                                                    
   Atomic configuration                                                                             
    2 entries                                                                                       
     n  l   j            E        occ.                                                              
     1  0  0.50        -6.4927   1.0000                                                             
     2  1  0.50        -3.4015   0.0000                                                             
   Description                                                                                      
     l       E           TYP  RCUT    TYP  RCUT                                                     
     0     -6.4927494     23  1.100                                                                 
     0      6.8029130     23  1.100                                                                 
     1     -4.0817478     23  1.100                                                                 
  local pseudopotential read in
  atomic valenz-charges read in
  non local Contribution for L=            0  read in
    real space projection operators read in
  non local Contribution for L=            0  read in
    real space projection operators read in
  non local Contribution for L=            1  read in
    real space projection operators read in
    PAW grid and wavefunctions read in
 
   number of l-projection  operators is LMAX  =            3
   number of lm-projection operators is LMMAX =            5
 
 POTCAR:    PAW_PBE C 08Apr2002                   
   SHA256 =  253f7b50bb8d59471dbedb8285d89021f4a42ed1a2c5d38a03a736e69125dd95 C/POTCAR              
   COPYR  = (c) Copyright 08Apr2002 Georg Kresse                                                    
   COPYR  = This file is part of the software VASP. Any use, copying, and all other rights are regul
   COPYR  = If you do not have a valid VASP license, you may not use, copy or distribute this file. 
   VRHFIN =C: s2p2                                                                                  
   LEXCH  = PE                                                                                      
   EATOM  =   147.1560 eV,   10.8157 Ry                                                             
                                                                                                    
   TITEL  = PAW_PBE C 08Apr2002                                                                     
   LULTRA =        F    use ultrasoft PP ?                                                          
   IUNSCR =        1    unscreen: 0-lin 1-nonlin 2-no                                               
   RPACOR =    1.200    partial core radius                                                         
   POMASS =   12.011; ZVAL   =    4.000    mass and valenz                                          
   RCORE  =    1.500    outmost cutoff radius                                                       
   RWIGS  =    1.630; RWIGS  =    0.863    wigner-seitz radius (au A)                               
   ENMAX  =  400.000; ENMIN  =  300.000 eV                                                          
   ICORE  =        2    local potential                                                             
   LCOR   =        T    correct aug charges                                                         
   LPAW   =        T    paw PP                                                                      
   EAUG   =  644.873                                                                                
   DEXC   =    0.000                                                                                
   RMAX   =    1.529    core radius for proj-oper                                                   
   RAUG   =    1.300    factor for augmentation sphere                                              
   RDEP   =    1.501    radius for radial grids                                                     
   RDEPT  =    1.300    core radius for aug-charge                                                  
                                                                                                    
   Atomic configuration                                                                             
    4 entries                                                                                       
     n  l   j            E        occ.                                                              
     1  0  0.50      -273.3789   2.0000                                                             
     2  0  0.50       -13.7508   2.0000                                                             
     2  1  0.50        -5.2854   2.0000                                                             
     3  2  1.50        -5.4423   0.0000                                                             
   Description                                                                                      
     l       E           TYP  RCUT    TYP  RCUT                                                     
     0    -13.7508458     23  1.200                                                                 
     0     -8.2022199     23  1.200                                                                 
     1     -5.2854383     23  1.500                                                                 
     1     34.0145650     23  1.500                                                                 
     2     -5.4423304      7  1.500                                                                 
  local pseudopotential read in
  partial core-charges read in
  partial kinetic energy density read in
  atomic valenz-charges read in
  non local Contribution for L=            0  read in
    real space projection operators read in
  non local Contribution for L=            0  read in
    real space projection operators read in
  non local Contribution for L=            1  read in
    real space projection operators read in
  non local Contribution for L=            1  read in
    real space projection operators read in
    PAW grid and wavefunctions read in
 
   number of l-projection  operators is LMAX  =            4
   number of lm-projection operators is LMMAX =            8
 
 POTCAR:    PAW_PBE N 08Apr2002                   
   SHA256 =  e053789ff3a61a86a1b75d8a110fcc91f86041011e7b0817c7c99e4e8a6349d7 N/POTCAR              
   COPYR  = (c) Copyright 08Apr2002 Georg Kresse                                                    
   COPYR  = This file is part of the software VASP. Any use, copying, and all other rights are regul
   COPYR  = If you do not have a valid VASP license, you may not use, copy or distribute this file. 
   VRHFIN =N: s2p3                                                                                  
   LEXCH  = PE                                                                                      
   EATOM  =   264.5486 eV,   19.4438 Ry                                                             
                                                                                                    
   TITEL  = PAW_PBE N 08Apr2002                                                                     
   LULTRA =        F    use ultrasoft PP ?                                                          
   IUNSCR =        1    unscreen: 0-lin 1-nonlin 2-no                                               
   RPACOR =    1.200    partial core radius                                                         
   POMASS =   14.001; ZVAL   =    5.000    mass and valenz                                          
   RCORE  =    1.500    outmost cutoff radius                                                       
   RWIGS  =    1.400; RWIGS  =    0.741    wigner-seitz radius (au A)                               
   ENMAX  =  400.000; ENMIN  =  300.000 eV                                                          
   ICORE  =        2    local potential                                                             
   LCOR   =        T    correct aug charges                                                         
   LPAW   =        T    paw PP                                                                      
   EAUG   =  627.112                                                                                
   DEXC   =    0.000                                                                                
   RMAX   =    1.529    core radius for proj-oper                                                   
   RAUG   =    1.300    factor for augmentation sphere                                              
   RDEP   =    1.514    radius for radial grids                                                     
   RDEPT  =    1.338    core radius for aug-charge                                                  
                                                                                                    
   Atomic configuration                                                                             
    4 entries                                                                                       
     n  l   j            E        occ.                                                              
     1  0  0.50      -384.7179   2.0000                                                             
     2  0  0.50       -18.5828   2.0000                                                             
     2  1  0.50        -7.0898   3.0000                                                             
     3  2  1.50        -6.8029   0.0000                                                             
   Description                                                                                      
     l       E           TYP  RCUT    TYP  RCUT                                                     
     0    -18.5828119     23  1.200                                                                 
     0    -13.5018863     23  1.200                                                                 
     1     -7.0897853     23  1.500                                                                 
     1      9.5240782     23  1.500                                                                 
     2     -6.8029130      7  1.500                                                                 
  local pseudopotential read in
  partial core-charges read in
  partial kinetic energy density read in
  atomic valenz-charges read in
  non local Contribution for L=            0  read in
    real space projection operators read in
  non local Contribution for L=            0  read in
    real space projection operators read in
  non local Contribution for L=            1  read in
    real space projection operators read in
  non local Contribution for L=            1  read in
    real space projection operators read in
    PAW grid and wavefunctions read in
 
   number of l-projection  operators is LMAX  =            4
   number of lm-projection operators is LMMAX =            8
 
 POTCAR:    PAW_PBE I 08Apr2002                   
   SHA256 =  e40f3f59b681c1fc3e3091736183c4589116986673d2b852a5012aec72758799 I/POTCAR              
   COPYR  = (c) Copyright 08Apr2002 Georg Kresse                                                    
   COPYR  = This file is part of the software VASP. Any use, copying, and all other rights are regul
   COPYR  = If you do not have a valid VASP license, you may not use, copy or distribute this file. 
   VRHFIN =I : s2p5                                                                                 
   LEXCH  = PE                                                                                      
   EATOM  =   315.8678 eV,   23.2156 Ry                                                             
                                                                                                    
   TITEL  = PAW_PBE I 08Apr2002                                                                     
   LULTRA =        F    use ultrasoft PP ?                                                          
   IUNSCR =        1    unscreen: 0-lin 1-nonlin 2-no                                               
   RPACOR =    2.200    partial core radius                                                         
   POMASS =  126.904; ZVAL   =    7.000    mass and valenz                                          
   RCORE  =    2.300    outmost cutoff radius                                                       
   RWIGS  =    2.810; RWIGS  =    1.487    wigner-seitz radius (au A)                               
   ENMAX  =  175.647; ENMIN  =  131.735 eV                                                          
   ICORE  =        3    local potential                                                             
   LCOR   =        T    correct aug charges                                                         
   LPAW   =        T    paw PP                                                                      
   EAUG   =  370.139                                                                                
   DEXC   =    0.000                                                                                
   RMAX   =    2.359    core radius for proj-oper                                                   
   RAUG   =    1.300    factor for augmentation sphere                                              
   RDEP   =    2.392    radius for radial grids                                                     
   RDEPT  =    2.170    core radius for aug-charge                                                  
                                                                                                    
   Atomic configuration                                                                             
   13 entries                                                                                       
     n  l   j            E        occ.                                                              
     1  0  0.50    -32976.3739   2.0000                                                             
     2  0  0.50     -5094.5933   2.0000                                                             
     2  1  1.50     -4572.0131   6.0000                                                             
     3  0  0.50     -1028.2813   2.0000                                                             
     3  1  1.50      -859.0250   6.0000                                                             
     3  2  2.50      -605.7620  10.0000                                                             
     4  0  0.50      -180.5540   2.0000                                                             
     4  1  1.50      -127.5306   6.0000                                                             
     4  2  2.50       -50.2720  10.0000                                                             
     5  0  0.50       -17.4058   2.0000                                                             
     5  1  0.50        -7.0851   5.0000                                                             
     5  2  1.50        -7.0750   0.0000                                                             
     4  3  2.50        -7.0750   0.0000                                                             
   Description                                                                                      
     l       E           TYP  RCUT    TYP  RCUT                                                     
     0    -17.4058016     23  2.300                                                                 
     0    -18.7663842     23  2.300                                                                 
     1     -7.0850686     23  2.300                                                                 
     1     -4.2150896     23  2.300                                                                 
     2     -7.0750295     23  2.300                                                                 
     3     -1.3605826     23  2.300                                                                 
  local pseudopotential read in
  partial core-charges read in
  partial kinetic energy density read in
  atomic valenz-charges read in
  non local Contribution for L=            0  read in
    real space projection operators read in
  non local Contribution for L=            0  read in
    real space projection operators read in
  non local Contribution for L=            1  read in
    real space projection operators read in
  non local Contribution for L=            1  read in
    real space projection operators read in
  non local Contribution for L=            2  read in
    real space projection operators read in
    PAW grid and wavefunctions read in
 
   number of l-projection  operators is LMAX  =            5
   number of lm-projection operators is LMMAX =           13
 
 POTCAR:    PAW_PBE Pb 08Apr2002                  
   SHA256 =  797118a27cf1bcd06b9881c67a26cdde129e3cd1a551dd4a281f9681ce847303 Pb/POTCAR             
   COPYR  = (c) Copyright 08Apr2002 Georg Kresse                                                    
   COPYR  = This file is part of the software VASP. Any use, copying, and all other rights are regul
   COPYR  = If you do not have a valid VASP license, you may not use, copy or distribute this file. 
   VRHFIN =Pb:                                                                                      
   LEXCH  = PE                                                                                      
   EATOM  =    96.9868 eV,    7.1283 Ry                                                             
                                                                                                    
   TITEL  = PAW_PBE Pb 08Apr2002                                                                    
   LULTRA =        F    use ultrasoft PP ?                                                          
   IUNSCR =        1    unscreen: 0-lin 1-nonlin 2-no                                               
   RPACOR =    2.200    partial core radius                                                         
   POMASS =  207.200; ZVAL   =    4.000    mass and valenz                                          
   RCORE  =    3.100    outmost cutoff radius                                                       
   RWIGS  =    3.260; RWIGS  =    1.725    wigner-seitz radius (au A)                               
   ENMAX  =   97.973; ENMIN  =   73.480 eV                                                          
   ICORE  =        3    local potential                                                             
   LCOR   =        T    correct aug charges                                                         
   LPAW   =        T    paw PP                                                                      
   EAUG   =  234.873                                                                                
   DEXC   =    0.000                                                                                
   RMAX   =    3.158    core radius for proj-oper                                                   
   RAUG   =    1.300    factor for augmentation sphere                                              
   RDEP   =    3.202    radius for radial grids                                                     
   RDEPT  =    2.659    core radius for aug-charge                                                  
                                                                                                    
   Atomic configuration                                                                             
   17 entries                                                                                       
     n  l   j            E        occ.                                                              
     1  0  0.50    -88091.8466   2.0000                                                             
     2  0  0.50    -15753.4197   2.0000                                                             
     2  1  1.50    -13508.1797   6.0000                                                             
     3  0  0.50     -3781.7194   2.0000                                                             
     3  1  1.50     -3138.2529   6.0000                                                             
     3  2  2.50     -2483.2977  10.0000                                                             
     4  0  0.50      -856.2895   2.0000                                                             
     4  1  1.50      -645.4943   6.0000                                                             
     4  2  2.50      -401.8768  10.0000                                                             
     4  3  3.50      -132.9059  14.0000                                                             
     5  0  0.50      -144.0950   2.0000                                                             
     5  1  1.50       -85.7879   6.0000                                                             
     5  2  2.50       -21.1769  10.0000                                                             
     6  0  0.50       -12.0372   2.0000                                                             
     6  1  1.50        -3.4971   2.0000                                                             
     6  2  2.50        -1.3606   0.0000                                                             
     5  3  2.50        -2.7212   0.0000                                                             
   Description                                                                                      
     l       E           TYP  RCUT    TYP  RCUT                                                     
     0    -12.0371566     23  3.100                                                                 
     0    -13.3977392     23  3.100                                                                 
     1     -3.4971341     23  3.100                                                                 
     1     -5.4423304     23  3.100                                                                 
     2     -1.3605826     23  3.100                                                                 
     3     -1.3605826     23  3.100                                                                 
  local pseudopotential read in
  partial core-charges read in
  partial kinetic energy density read in
  atomic valenz-charges read in
  non local Contribution for L=            0  read in
    real space projection operators read in
  non local Contribution for L=            0  read in
    real space projection operators read in
  non local Contribution for L=            1  read in
    real space projection operators read in
  non local Contribution for L=            1  read in
    real space projection operators read in
  non local Contribution for L=            2  read in
    real space projection operators read in
    PAW grid and wavefunctions read in
 
   number of l-projection  operators is LMAX  =            5
   number of lm-projection operators is LMMAX =           13
 
 Optimization of the real space projectors (new method)

 maximal supplied QI-value         = 34.20
 optimisation between [QCUT,QGAM] = [ 11.29, 22.57] = [ 35.68,142.71] Ry 
 Optimized for a Real-space Cutoff    1.16 Angstroem

   l    n(q)    QCUT    max X(q) W(low)/X(q) W(high)/X(q)  e(spline) 
   0      8    11.287    19.460    0.40E-03    0.73E-03    0.16E-06
   0      8    11.287    12.209    0.38E-03    0.70E-03    0.15E-06
   1      7    11.287     4.655    0.22E-03    0.25E-04    0.22E-06
 Optimization of the real space projectors (new method)

 maximal supplied QI-value         = 25.13
 optimisation between [QCUT,QGAM] = [ 11.31, 22.87] = [ 35.82,146.48] Ry 
 Optimized for a Real-space Cutoff    1.00 Angstroem

   l    n(q)    QCUT    max X(q) W(low)/X(q) W(high)/X(q)  e(spline) 
   0      7    11.310   115.676    0.43E-03    0.13E-02    0.19E-06
   0      7    11.310    87.132    0.43E-03    0.13E-02    0.18E-06
   1      6    11.310     4.429    0.42E-03    0.74E-03    0.11E-06
   1      6    11.310     2.733    0.34E-03    0.55E-03    0.92E-07
 Optimization of the real space projectors (new method)

 maximal supplied QI-value         = 25.13
 optimisation between [QCUT,QGAM] = [ 11.31, 22.87] = [ 35.82,146.48] Ry 
 Optimized for a Real-space Cutoff    1.27 Angstroem

   l    n(q)    QCUT    max X(q) W(low)/X(q) W(high)/X(q)  e(spline) 
   0      9    11.310    79.467    0.75E-04    0.16E-03    0.36E-06
   0      9    11.310    66.151    0.74E-04    0.16E-03    0.36E-06
   1      8    11.310    17.416    0.35E-03    0.12E-03    0.95E-06
   1      8    11.310    12.382    0.37E-03    0.13E-03    0.98E-06
 Optimization of the real space projectors (new method)

 maximal supplied QI-value         = 16.25
 optimisation between [QCUT,QGAM] = [ 11.38, 22.75] = [ 36.24,144.96] Ry 
 Optimized for a Real-space Cutoff    1.31 Angstroem

   l    n(q)    QCUT    max X(q) W(low)/X(q) W(high)/X(q)  e(spline) 
   0      9    11.376   194.483    0.24E-03    0.23E-03    0.67E-07
   0      9    11.376   190.334    0.23E-03    0.22E-03    0.65E-07
   1      8    11.376   116.687    0.25E-03    0.63E-04    0.16E-06
   1      8    11.376    88.696    0.25E-03    0.61E-04    0.16E-06
   2      8    11.376     4.877    0.17E-03    0.14E-03    0.29E-07
 Optimization of the real space projectors (new method)

 maximal supplied QI-value         = 12.09
 optimisation between [QCUT,QGAM] = [ 11.37, 22.86] = [ 36.19,146.31] Ry 
 Optimized for a Real-space Cutoff    1.66 Angstroem

   l    n(q)    QCUT    max X(q) W(low)/X(q) W(high)/X(q)  e(spline) 
   0     11    11.369   135.111    0.12E-03    0.69E-04    0.19E-05
   0     11    11.369   146.850    0.11E-03    0.65E-04    0.18E-05
   1     11    11.369   148.016    0.17E-03    0.32E-03    0.89E-06
   1     11    11.369   122.989    0.17E-03    0.32E-03    0.91E-06
   2     10    11.369     8.916    0.12E-03    0.45E-04    0.33E-06
  PAW_PBE H 15Jun2001                   :
 energy of atom  1       EATOM=  -12.4884
 kinetic energy error for atom=    0.0020 (will be added to EATOM!!)
  PAW_PBE C 08Apr2002                   :
 energy of atom  2       EATOM= -147.1560
 kinetic energy error for atom=    0.0076 (will be added to EATOM!!)
  PAW_PBE N 08Apr2002                   :
 energy of atom  3       EATOM= -264.5486
 kinetic energy error for atom=    0.0138 (will be added to EATOM!!)
  PAW_PBE I 08Apr2002                   :
 energy of atom  4       EATOM= -315.8678
 kinetic energy error for atom=    0.0009 (will be added to EATOM!!)
  PAW_PBE Pb 08Apr2002                  :
 energy of atom  5       EATOM=  -96.9868
 kinetic energy error for atom=    0.0000 (will be added to EATOM!!)
 
 
 POSCAR:  H  C  N  I Pb
  positions in cartesian coordinates
  No initial velocities read in
 exchange correlation table for  LEXCH =        8
   RHO(1)=    0.500       N(1)  =     2000
   RHO(2)=  100.500       N(2)  =     4000
 


--------------------------------------------------------------------------------------------------------


 ion  position               nearest neighbor table
   1  0.413  0.272  0.569- 187 1.02
   2  0.410  0.708  0.574- 188 1.02
   3  0.928  0.285  0.581- 189 1.03
   4  0.933  0.812  0.574- 190 1.03
   5  0.324  0.088  0.568- 194 1.01
   6  0.316  0.578  0.570- 195 1.01
   7  0.801  0.093  0.572- 196 1.01
   8  0.110  0.239  0.563- 183 1.03
   9  0.083  0.680  0.569- 184 1.02
  10  0.596  0.191  0.566- 185 1.02
  11  0.602  0.740  0.560- 186 1.04
  12  0.379  0.019  0.556- 194 1.03
  13  0.253  0.623  0.554- 195 1.03
  14  0.874  0.041  0.560- 196 1.03
  15  0.062  0.285  0.583- 183 1.02
  16  0.998  0.692  0.581- 184 1.03
  17  0.505  0.172  0.574- 185 1.03
  18  0.546  0.685  0.576- 186 1.03
  19  0.303  0.441  0.574- 191 1.02
  20  0.190  0.063  0.570- 192 1.01
  21  0.678  0.030  0.573- 193 1.01
  22  0.448  0.356  0.559- 187 1.03
  23  0.379  0.777  0.557- 188 1.02
  24  0.884  0.234  0.561- 189 1.02
  25  0.979  0.873  0.557- 190 1.03
  26  0.231  0.399  0.560- 191 1.02
  27  0.156  0.986  0.557- 192 1.02
  28  0.675  0.941  0.562- 193 1.02
  29  0.565  0.310  0.554- 146 1.09
  30  0.502  0.806  0.546- 147 1.09
  31  1.000  0.198  0.546- 144 1.09
  32  0.077  0.793  0.551- 145 1.09
  33  0.189  0.512  0.546- 148 1.09
  34  0.277  0.946  0.548- 149 1.09
  35  0.798  0.941  0.553- 150 1.09
  36  0.455  0.290  0.675- 205 1.03
  37  0.437  0.813  0.672- 206 1.02
  38  0.963  0.281  0.679- 207 1.01
  39  0.920  0.748  0.670- 208 1.01
  40  0.300  0.042  0.675- 209 1.02
  41  0.309  0.552  0.674- 210 1.03
  42  0.792  0.053  0.676- 211 1.03
  43  0.823  0.516  0.672- 212 1.02
  44  0.089  0.170  0.646- 197 1.02
  45  0.102  0.693  0.652- 198 1.01
  46  0.576  0.167  0.644- 199 1.02
  47  0.573  0.677  0.652- 200 1.02
  48  0.183  0.414  0.651- 201 1.02
  49  0.164  0.930  0.646- 202 1.02
  50  0.647  0.451  0.650- 203 1.03
  51  0.676  0.916  0.648- 204 1.02
  52  0.067  0.186  0.673- 197 1.03
  53  0.029  0.661  0.667- 198 1.02
  54  0.546  0.181  0.670- 199 1.02
  55  0.539  0.713  0.676- 200 1.02
  56  0.216  0.441  0.676- 201 1.02
  57  0.186  0.952  0.672- 202 1.02
  58  0.704  0.438  0.672- 203 1.02
  59  0.695  0.946  0.674- 204 1.03
  60  0.439  0.341  0.653- 205 1.01
  61  0.414  0.832  0.645- 206 1.02
  62  0.926  0.320  0.656- 207 1.02
  63  0.930  0.833  0.657- 208 1.02
  64  0.341  0.063  0.651- 209 1.02
  65  0.323  0.586  0.649- 210 1.01
  66  0.826  0.080  0.651- 211 1.02
  67  0.833  0.574  0.650- 212 1.02
  68  0.002  0.253  0.633- 151 1.09
  69  0.044  0.803  0.643- 152 1.09
  70  0.513  0.268  0.631- 153 1.08
  71  0.499  0.749  0.631- 154 1.08
  72  0.259  0.994  0.630- 156 1.09
  73  0.247  0.503  0.632- 155 1.09
  74  0.758  0.996  0.632- 158 1.09
  75  0.721  0.538  0.634- 157 1.10
  76  0.449  0.301  0.769- 221 1.02
  77  0.449  0.801  0.769- 222 1.02
  78  0.949  0.301  0.769- 223 1.02
  79  0.949  0.801  0.769- 224 1.02
  80  0.301  0.051  0.769- 225 1.02
  81  0.301  0.551  0.769- 226 1.02
  82  0.801  0.051  0.769- 227 1.02
  83  0.801  0.551  0.769- 228 1.02
  84  0.079  0.171  0.743- 213 1.02
  85  0.079  0.671  0.743- 214 1.02
  86  0.579  0.171  0.743- 215 1.02
  87  0.579  0.671  0.743- 216 1.02
  88  0.171  0.421  0.743- 217 1.02
  89  0.171  0.921  0.743- 218 1.02
  90  0.671  0.421  0.743- 219 1.02
  91  0.671  0.921  0.743- 220 1.02
  92  0.051  0.199  0.769- 213 1.02
  93  0.051  0.699  0.769- 214 1.02
  94  0.551  0.199  0.769- 215 1.02
  95  0.551  0.699  0.769- 216 1.02
  96  0.199  0.449  0.769- 217 1.02
  97  0.199  0.949  0.769- 218 1.02
  98  0.699  0.449  0.769- 219 1.02
  99  0.699  0.949  0.769- 220 1.02
 100  0.421  0.329  0.743- 221 1.02
 101  0.421  0.829  0.743- 222 1.02
 102  0.921  0.329  0.743- 223 1.02
 103  0.921  0.829  0.743- 224 1.02
 104  0.329  0.079  0.743- 225 1.02
 105  0.329  0.579  0.743- 226 1.02
 106  0.829  0.079  0.743- 227 1.02
 107  0.829  0.579  0.743- 228 1.02
 108  0.000  0.250  0.726- 161 1.09
 109  0.000  0.750  0.726- 162 1.09
 110  0.500  0.250  0.726- 159 1.09
 111  0.500  0.750  0.726- 160 1.09
 112  0.250  0.000  0.726- 163 1.09
 113  0.250  0.500  0.726- 164 1.09
 114  0.750  0.000  0.726- 165 1.09
 115  0.750  0.500  0.726- 166 1.09
 116  0.799  0.510  0.515- 173 1.10
 117  0.879  0.501  0.532- 173 1.10
 118  0.764  0.625  0.533- 174 1.09
 119  0.765  0.629  0.561- 174 1.09
 120  0.685  0.451  0.551- 175 1.09
 121  0.671  0.543  0.559- 175 1.10
 122  0.800  0.429  0.568- 176 1.10
 123  0.868  0.498  0.569- 176 1.10
 124  0.859  0.377  0.539- 177 1.10
 125  0.764  0.379  0.534- 177 1.10
 126  0.781  0.381  0.496- 178 1.10
 127  0.874  0.411  0.498- 178 1.12
 128  0.898  0.618  0.531- 179 1.09
 129  0.910  0.606  0.558- 179 1.09
 130  0.872  0.690  0.548- 179 1.10
 131  0.601  0.516  0.528- 180 1.09
 132  0.678  0.488  0.513- 180 1.09
 133  0.669  0.583  0.521- 180 1.09
 134  0.711  0.505  0.590- 181 1.11
 135  0.779  0.577  0.591- 181 1.09
 136  0.797  0.489  0.603- 181 1.10
 137  0.824  0.256  0.514- 182 1.10
 138  0.844  0.275  0.487- 182 1.10
 139  0.925  0.161  0.498- 168 1.11
 140  0.972  0.386  0.517- 169 1.09
 141  0.057  0.130  0.503- 170 1.09
 142  0.102  0.356  0.522- 171 1.10
 143  0.148  0.228  0.514- 172 1.09
 144  0.997  0.234  0.560-  31 1.09 189 1.31 183 1.31
 145  0.030  0.775  0.561-  32 1.09 184 1.31 190 1.32
 146  0.522  0.273  0.561-  29 1.09 187 1.30 185 1.31
 147  0.491  0.761  0.557-  30 1.09 188 1.30 186 1.32
 148  0.239  0.511  0.556-  33 1.09 195 1.31 191 1.31
 149  0.268  0.999  0.556-  34 1.09 194 1.31 192 1.32
 150  0.774  0.990  0.560-  35 1.09 196 1.31 193 1.31
 151  0.007  0.245  0.650-  68 1.09 207 1.32 197 1.32
 152  0.016  0.764  0.653-  69 1.09 208 1.30 198 1.32
 153  0.507  0.255  0.648-  70 1.08 205 1.30 199 1.32
 154  0.494  0.755  0.648-  71 1.08 206 1.30 200 1.31
 155  0.253  0.500  0.649-  73 1.09 210 1.30 201 1.32
 156  0.252  0.996  0.648-  72 1.09 202 1.31 209 1.31
 157  0.739  0.513  0.649-  75 1.10 203 1.30 212 1.32
 158  0.752  0.998  0.649-  74 1.09 211 1.30 204 1.32
 159  0.500  0.250  0.743- 110 1.09 221 1.31 215 1.31
 160  0.500  0.750  0.743- 111 1.09 222 1.31 216 1.31
 161  1.000  0.250  0.743- 108 1.09 223 1.31 213 1.31
 162  1.000  0.750  0.743- 109 1.09 224 1.31 214 1.31
 163  0.250  0.000  0.743- 112 1.09 225 1.31 218 1.31
 164  0.250  0.500  0.743- 113 1.09 226 1.31 217 1.31
 165  0.750  0.000  0.743- 114 1.09 227 1.31 220 1.31
 166  0.750  0.500  0.743- 115 1.09 228 1.31 219 1.31
 167  0.938  0.277  0.507- 169 1.39 168 1.42 182 1.51
 168  0.964  0.204  0.504- 139 1.11 170 1.39 167 1.42
 169  0.989  0.330  0.514- 140 1.09 167 1.39 171 1.40
 170  0.039  0.186  0.506- 141 1.09 168 1.39 172 1.40
 171  0.064  0.313  0.516- 142 1.10 172 1.40 169 1.40
 172  0.089  0.241  0.513- 143 1.09 171 1.40 170 1.40
 173  0.821  0.484  0.530- 116 1.10 117 1.10 177 1.52 229 1.53
 174  0.793  0.605  0.548- 118 1.09 119 1.09 179 1.52 229 1.53
 175  0.696  0.509  0.547- 120 1.09 121 1.10 180 1.51 229 1.52
 176  0.808  0.489  0.569- 122 1.10 123 1.10 181 1.51 229 1.51
 177  0.817  0.400  0.529- 125 1.10 124 1.10 173 1.52 178 1.54
 178  0.832  0.373  0.506- 126 1.10 127 1.12 182 1.54 177 1.54
 179  0.873  0.630  0.546- 129 1.09 128 1.09 130 1.10 174 1.52
 180  0.660  0.525  0.526- 133 1.09 131 1.09 132 1.09 175 1.51
 181  0.771  0.518  0.589- 135 1.09 136 1.10 134 1.11 176 1.51
 182  0.857  0.293  0.503- 137 1.10 138 1.10 167 1.51 178 1.54
 183  0.060  0.253  0.570-  15 1.02   8 1.03 144 1.31
 184  0.035  0.710  0.570-   9 1.02  16 1.03 145 1.31
 185  0.541  0.206  0.566-  10 1.02  17 1.03 146 1.31
 186  0.549  0.723  0.564-  18 1.03  11 1.04 147 1.32
 187  0.455  0.300  0.562-   1 1.02  22 1.03 146 1.30
 188  0.423  0.747  0.562-   2 1.02  23 1.02 147 1.30
 189  0.932  0.255  0.567-  24 1.02   3 1.03 144 1.31
 190  0.973  0.820  0.563-  25 1.03   4 1.03 145 1.32
 191  0.260  0.447  0.564-  19 1.02  26 1.02 148 1.31
 192  0.200  0.018  0.561-  20 1.01  27 1.02 149 1.32
 193  0.703  0.989  0.564-  21 1.01  28 1.02 150 1.31
 194  0.327  0.040  0.560-   5 1.01  12 1.03 149 1.31
 195  0.273  0.574  0.560-   6 1.01  13 1.03 148 1.31
 196  0.819  0.046  0.564-   7 1.01  14 1.03 150 1.31
 197  0.057  0.197  0.657-  44 1.02  52 1.03 151 1.32
 198  0.051  0.701  0.658-  45 1.01  53 1.02 152 1.32
 199  0.544  0.197  0.655-  46 1.02  54 1.02 153 1.32
 200  0.538  0.713  0.660-  47 1.02  55 1.02 154 1.31
 201  0.216  0.449  0.660-  48 1.02  56 1.02 155 1.32
 202  0.197  0.958  0.656-  49 1.02  57 1.02 156 1.31
 203  0.696  0.464  0.658-  58 1.02  50 1.03 157 1.30
 204  0.705  0.951  0.658-  51 1.02  59 1.03 158 1.32
 205  0.465  0.297  0.659-  60 1.01  36 1.03 153 1.30
 206  0.446  0.803  0.656-  61 1.02  37 1.02 154 1.30
 207  0.962  0.284  0.663-  38 1.01  62 1.02 151 1.32
 208  0.951  0.782  0.661-  39 1.01  63 1.02 152 1.30
 209  0.300  0.036  0.659-  64 1.02  40 1.02 156 1.31
 210  0.297  0.549  0.658-  65 1.01  41 1.03 155 1.30
 211  0.792  0.046  0.659-  66 1.02  42 1.03 158 1.30
 212  0.803  0.535  0.657-  67 1.02  43 1.02 157 1.32
 213  0.046  0.204  0.753-  92 1.02  84 1.02 161 1.31
 214  0.046  0.704  0.753-  93 1.02  85 1.02 162 1.31
 215  0.546  0.204  0.753-  94 1.02  86 1.02 159 1.31
 216  0.546  0.704  0.753-  95 1.02  87 1.02 160 1.31
 217  0.204  0.454  0.753-  96 1.02  88 1.02 164 1.31
 218  0.204  0.954  0.753-  97 1.02  89 1.02 163 1.31
 219  0.704  0.454  0.753-  98 1.02  90 1.02 166 1.31
 220  0.704  0.954  0.753-  99 1.02  91 1.02 165 1.31
 221  0.454  0.296  0.753-  76 1.02 100 1.02 159 1.31
 222  0.454  0.796  0.753-  77 1.02 101 1.02 160 1.31
 223  0.954  0.296  0.753-  78 1.02 102 1.02 161 1.31
 224  0.954  0.796  0.753-  79 1.02 103 1.02 162 1.31
 225  0.296  0.046  0.753-  80 1.02 104 1.02 163 1.31
 226  0.296  0.546  0.753-  81 1.02 105 1.02 164 1.31
 227  0.796  0.046  0.753-  82 1.02 106 1.02 165 1.31
 228  0.796  0.546  0.753-  83 1.02 107 1.02 166 1.31
 229  0.779  0.521  0.548- 176 1.51 175 1.52 174 1.53 173 1.53
 230  0.509  0.977  0.553- 304 3.18
 231  0.463  0.497  0.555- 305 3.14
 232  0.005  0.012  0.552- 302 3.29
 233  0.035  0.495  0.555- 303 3.17
 234  0.254  0.244  0.555- 306 3.20
 235  0.234  0.772  0.551- 307 3.28
 236  0.738  0.222  0.555- 308 3.23
 237  0.722  0.797  0.554- 309 3.20
 238  0.994  0.986  0.654- 302 3.15 310 3.17
 239  0.004  0.502  0.655- 311 3.09 303 3.16
 240  0.497  0.003  0.655- 312 3.14 304 3.19
 241  0.498  0.502  0.655- 313 3.14 305 3.18
 242  0.263  0.240  0.655- 314 3.10 306 3.11
 243  0.246  0.755  0.654- 307 3.16 315 3.18
 244  0.743  0.260  0.656- 316 3.08 308 3.10
 245  0.752  0.742  0.654- 309 3.18 317 3.20
 246  0.140  0.113  0.609- 302 3.19 306 3.25
 247  0.145  0.610  0.608- 303 3.14 307 3.22
 248  0.642  0.108  0.609- 308 3.24 304 3.25
 249  0.615  0.632  0.610- 305 3.20 309 3.38
 250  0.367  0.384  0.611- 306 3.16 305 3.20
 251  0.364  0.885  0.606- 307 3.17 304 3.20
 252  0.889  0.362  0.614- 308 3.26 303 3.39
 253  0.864  0.889  0.606- 309 3.11 302 3.26
 254  0.126  0.370  0.613- 306 3.20 303 3.27
 255  0.118  0.874  0.607- 307 3.13 302 3.21
 256  0.621  0.373  0.603- 305 3.19 308 3.20
 257  0.619  0.867  0.613- 309 3.12 304 3.17
 258  0.400  0.144  0.604- 306 3.25 304 3.27
 259  0.377  0.632  0.607- 305 3.25 307 3.29
 260  0.883  0.133  0.613- 302 3.15 308 3.25
 261  0.905  0.652  0.612- 303 3.28 309 3.45
 262  0.000  0.000  0.755- 310 3.13 318 3.27
 263  0.000  0.500  0.755- 311 3.13 319 3.27
 264  0.500  0.000  0.755- 312 3.13 320 3.27
 265  0.500  0.500  0.755- 313 3.13 321 3.27
 266  0.250  0.250  0.755- 314 3.13 322 3.27
 267  0.250  0.750  0.755- 315 3.13 323 3.27
 268  0.750  0.250  0.755- 316 3.13 324 3.27
 269  0.750  0.750  0.755- 317 3.13 325 3.27
 270  0.136  0.114  0.705- 310 3.20 314 3.20
 271  0.136  0.614  0.705- 311 3.20 315 3.20
 272  0.636  0.114  0.705- 312 3.20 316 3.20
 273  0.636  0.614  0.705- 313 3.20 317 3.20
 274  0.364  0.386  0.705- 313 3.20 314 3.20
 275  0.364  0.886  0.705- 312 3.20 315 3.20
 276  0.864  0.386  0.705- 311 3.20 316 3.20
 277  0.864  0.886  0.705- 310 3.20 317 3.20
 278  0.114  0.364  0.705- 314 3.21 311 3.21
 279  0.114  0.864  0.705- 315 3.21 310 3.21
 280  0.614  0.364  0.705- 316 3.21 313 3.21
 281  0.614  0.864  0.705- 317 3.21 312 3.21
 282  0.386  0.136  0.705- 314 3.21 312 3.21
 283  0.386  0.636  0.705- 315 3.21 313 3.21
 284  0.886  0.136  0.705- 316 3.21 310 3.21
 285  0.886  0.636  0.705- 317 3.21 311 3.21
 286  0.135  0.115  0.801- 318 3.22 322 3.22
 287  0.135  0.615  0.801- 319 3.22 323 3.22
 288  0.635  0.115  0.801- 320 3.22 324 3.22
 289  0.635  0.615  0.801- 321 3.22 325 3.22
 290  0.365  0.385  0.801- 321 3.22 322 3.22
 291  0.365  0.885  0.801- 320 3.22 323 3.22
 292  0.865  0.385  0.801- 319 3.22 324 3.22
 293  0.865  0.885  0.801- 318 3.22 325 3.22
 294  0.115  0.365  0.801- 319 3.23 322 3.23
 295  0.115  0.865  0.801- 318 3.23 323 3.23
 296  0.615  0.365  0.801- 321 3.23 324 3.23
 297  0.615  0.865  0.801- 320 3.23 325 3.23
 298  0.385  0.135  0.801- 320 3.23 322 3.23
 299  0.385  0.635  0.801- 321 3.23 323 3.23
 300  0.885  0.135  0.801- 318 3.23 324 3.23
 301  0.885  0.635  0.801- 319 3.23 325 3.23
 302  1.000  0.007  0.604- 238 3.15 260 3.15 246 3.19 255 3.21 253 3.26 232 3.29
 303  0.008  0.504  0.605- 247 3.14 239 3.16 233 3.17 254 3.27 261 3.28 252 3.39
 304  0.503  0.995  0.604- 257 3.17 230 3.18 240 3.19 251 3.20 248 3.25 258 3.27
 305  0.499  0.501  0.604- 231 3.14 241 3.18 256 3.19 250 3.20 249 3.20 259 3.25
 306  0.255  0.251  0.606- 242 3.11 250 3.16 234 3.20 254 3.20 258 3.25 246 3.25
 307  0.245  0.757  0.603- 255 3.13 243 3.16 251 3.17 247 3.22 235 3.28 259 3.29
 308  0.749  0.251  0.606- 244 3.10 256 3.20 236 3.23 248 3.24 260 3.25 252 3.26
 309  0.750  0.760  0.603- 253 3.11 257 3.12 245 3.18 237 3.20 249 3.38 261 3.45
 310  0.000  0.000  0.705- 262 3.13 238 3.17 270 3.20 277 3.20 279 3.21 284 3.21
 311  0.000  0.500  0.705- 239 3.09 263 3.13 271 3.20 276 3.20 278 3.21 285 3.21
 312  0.500  0.000  0.705- 264 3.13 240 3.14 272 3.20 275 3.20 281 3.21 282 3.21
 313  0.500  0.500  0.705- 265 3.13 241 3.14 273 3.20 274 3.20 280 3.21 283 3.21
 314  0.250  0.250  0.705- 242 3.10 266 3.13 270 3.20 274 3.20 282 3.21 278 3.21
 315  0.250  0.750  0.705- 267 3.13 243 3.18 271 3.20 275 3.20 283 3.21 279 3.21
 316  0.750  0.250  0.705- 244 3.08 268 3.13 272 3.20 276 3.20 284 3.21 280 3.21
 317  0.750  0.750  0.705- 269 3.13 245 3.20 273 3.20 277 3.20 285 3.21 281 3.21
 318  0.000  0.000  0.807- 286 3.22 293 3.22 300 3.23 295 3.23 262 3.27
 319  0.000  0.500  0.807- 287 3.22 292 3.22 301 3.23 294 3.23 263 3.27
 320  0.500  0.000  0.807- 288 3.22 291 3.22 298 3.23 297 3.23 264 3.27
 321  0.500  0.500  0.807- 289 3.22 290 3.22 299 3.23 296 3.23 265 3.27
 322  0.250  0.250  0.807- 290 3.22 286 3.22 294 3.23 298 3.23 266 3.27
 323  0.250  0.750  0.807- 291 3.22 287 3.22 299 3.23 295 3.23 267 3.27
 324  0.750  0.250  0.807- 292 3.22 288 3.22 296 3.23 300 3.23 268 3.27
 325  0.750  0.750  0.807- 293 3.22 289 3.22 297 3.23 301 3.23 269 3.27
 

IMPORTANT INFORMATION: All symmetrisations will be switched off!
NOSYMM: (Re-)initialisation of all symmetry stuff for point group C_1.


----------------------------------------------------------------------------------------

                                     Primitive cell                                     

  volume of cell :   20385.2105

  direct lattice vectors                    reciprocal lattice vectors
    18.060800552  0.000000000  0.000000000     0.055368531  0.000015077 -0.000000000
    -0.004918649 18.062799454  0.000000000     0.000000000  0.055362404  0.000000000
     0.000000000  0.000000000 62.487499237     0.000000000 -0.000000000  0.016003201

  length of vectors
    18.060800552 18.062800123 62.487499237     0.055368533  0.055362404  0.016003201

  position of ions in fractional coordinates (direct lattice)
     0.413181870  0.272251961  0.569023480
     0.410211440  0.708433926  0.573629626
     0.928084823  0.284941176  0.581402848
     0.932797734  0.812258602  0.574209148
     0.323862292  0.088043727  0.567733549
     0.315937618  0.577918639  0.570181365
     0.800692353  0.092576244  0.571624525
     0.109984557  0.239057412  0.562872652
     0.083013503  0.679748512  0.568913228
     0.595705506  0.191279794  0.565686447
     0.602450115  0.739838422  0.559522556
     0.379025961  0.019076853  0.556310182
     0.253208834  0.622829684  0.553790330
     0.873628699  0.041274264  0.560468057
     0.062019728  0.285246796  0.582931413
     0.997663313  0.691708617  0.581458157
     0.505114633  0.171696004  0.573854585
     0.545920296  0.685237572  0.575978972
     0.303419589  0.441331193  0.574217390
     0.189793905  0.063135948  0.570178130
     0.677654753  0.030320846  0.572538099
     0.448229923  0.355973754  0.559269637
     0.379338684  0.777161435  0.556610047
     0.884411558  0.234215572  0.561148675
     0.978743600  0.873220414  0.557350796
     0.231496987  0.399447884  0.560344192
     0.155636828  0.985696827  0.557270580
     0.674696548  0.940968578  0.561955171
     0.564695735  0.309588596  0.554272055
     0.502221565  0.805856511  0.545651862
     0.999513755  0.197657347  0.546467454
     0.077185167  0.792642830  0.551465341
     0.189208144  0.511658630  0.546392488
     0.276501334  0.945805534  0.547917940
     0.797867070  0.941039373  0.552915277
     0.455014694  0.290018336  0.675414449
     0.437251961  0.812976281  0.671633419
     0.962920511  0.281017278  0.678930411
     0.920257344  0.748239698  0.670314918
     0.299874138  0.042367193  0.674872165
     0.308672609  0.552203834  0.674033130
     0.791729372  0.053403504  0.675637577
     0.822722128  0.515752195  0.671814852
     0.088515347  0.170221906  0.646480134
     0.102041308  0.693248251  0.651508239
     0.575565189  0.167474643  0.644309412
     0.572610176  0.677328688  0.652390679
     0.183121541  0.413680640  0.650926031
     0.163707841  0.929871564  0.645576084
     0.646817516  0.450797979  0.650375505
     0.676270141  0.916130308  0.648044900
     0.066868666  0.185786576  0.673230907
     0.028814837  0.660947831  0.667170185
     0.545814226  0.181170235  0.670351242
     0.538681601  0.712522105  0.676248539
     0.216199853  0.441330929  0.675751064
     0.185541235  0.952119529  0.671908010
     0.704396557  0.437982287  0.672229791
     0.694887191  0.946368463  0.673971656
     0.438620737  0.341251009  0.652581269
     0.414117186  0.831841587  0.645251251
     0.925994813  0.319769683  0.655732229
     0.929786027  0.832529541  0.656992918
     0.341378903  0.062687141  0.650644053
     0.322672312  0.586438393  0.648526564
     0.826186046  0.080297637  0.650900024
     0.833499229  0.574318522  0.649551732
     0.001502090  0.253033730  0.633118819
     0.043979289  0.803456644  0.643012155
     0.512604404  0.268485479  0.630831191
     0.498613684  0.749145971  0.631093084
     0.258563304  0.994258331  0.630316989
     0.246535976  0.502832227  0.631956355
     0.757942611  0.995855969  0.631773274
     0.721302149  0.538256635  0.634250332
     0.448745018  0.301283966  0.768889017
     0.448745007  0.801283913  0.768889017
     0.948744965  0.301283966  0.768889017
     0.948745007  0.801283913  0.768889017
     0.301275995  0.051294496  0.768872961
     0.301276011  0.551294499  0.768872961
     0.801275943  0.051294496  0.768872961
     0.801275984  0.551294499  0.768872961
     0.078771004  0.171180501  0.743441971
     0.078771006  0.671180448  0.743441971
     0.578771004  0.171180501  0.743441971
     0.578770992  0.671180448  0.743441971
     0.171199499  0.421174482  0.743421032
     0.171199501  0.921174508  0.743421032
     0.671199512  0.421174482  0.743421032
     0.671199501  0.921174508  0.743421032
     0.051256000  0.198714991  0.768889017
     0.051256002  0.698714925  0.768889017
     0.551256027  0.198714991  0.768889017
     0.551256016  0.698714925  0.768889017
     0.198723491  0.448703970  0.768872046
     0.198723493  0.948703970  0.768872046
     0.698723518  0.448703970  0.768872046
     0.698723507  0.948703970  0.768872046
     0.421231519  0.328817467  0.743441971
     0.421231508  0.828817440  0.743441971
     0.921231466  0.328817467  0.743441971
     0.921231508  0.828817440  0.743441971
     0.328800503  0.078824997  0.743421032
     0.328800492  0.578824964  0.743421032
     0.828800477  0.078824997  0.743421032
     0.828800519  0.578824964  0.743421032
     0.000003500  0.250001478  0.725821992
     0.000003500  0.750001452  0.725821992
     0.500003506  0.250001478  0.725821992
     0.500003495  0.750001452  0.725821992
     0.250000502  0.000000000  0.725803983
     0.250000517  0.500000000  0.725803983
     0.750000502  0.000000000  0.725803983
     0.750000490  0.500000000  0.725803983
     0.799100004  0.510195500  0.515091367
     0.879211948  0.500647405  0.531713771
     0.764072507  0.624586422  0.533379265
     0.764966878  0.629182304  0.561339448
     0.685278219  0.451085885  0.551233300
     0.671441995  0.543163706  0.559457418
     0.799704736  0.428853644  0.568043242
     0.867721557  0.498046855  0.568788875
     0.859349581  0.376574414  0.539454150
     0.763643715  0.379217177  0.534306086
     0.780990919  0.381052082  0.496348604
     0.873657142  0.410570644  0.497938705
     0.898411137  0.618453019  0.530716623
     0.909646951  0.606280456  0.558492259
     0.872158216  0.690381811  0.548311451
     0.600973666  0.516446748  0.527781283
     0.678257641  0.488397969  0.512697089
     0.668677182  0.582646039  0.520548330
     0.710893966  0.504626188  0.589502673
     0.778591748  0.577112998  0.591253084
     0.796644065  0.489472930  0.602658564
     0.823764552  0.256436938  0.513645094
     0.844443795  0.275055071  0.486792433
     0.924655140  0.161285960  0.498152340
     0.972238768  0.386304186  0.517285104
     0.057407875  0.130167654  0.503136217
     0.102072002  0.355985765  0.522216632
     0.147861219  0.227586583  0.514438282
     0.997240248  0.233729728  0.560437473
     0.030289577  0.774724082  0.561007716
     0.521735219  0.273235926  0.560626170
     0.491399825  0.760595892  0.556833358
     0.238749803  0.510879072  0.556306092
     0.268137085  0.999095026  0.555892985
     0.774252476  0.990276489  0.560445043
     0.006690873  0.245261802  0.650410424
     0.015569257  0.764139198  0.653322323
     0.506995442  0.255068025  0.647608106
     0.493929451  0.755043527  0.648296476
     0.253390511  0.500121540  0.649206876
     0.252230428  0.996049473  0.647726233
     0.739467709  0.512776199  0.649403082
     0.752004768  0.998068865  0.649130261
     0.499988984  0.249994984  0.743277021
     0.499989025  0.749994958  0.743277021
     0.999988984  0.249994984  0.743277021
     0.999989025  0.749994958  0.743277021
     0.250000502  0.000001000  0.743255960
     0.250000517  0.500001003  0.743255960
     0.750000502  0.000001000  0.743255960
     0.750000491  0.500001003  0.743255960
     0.937906639  0.276942457  0.507134331
     0.964293112  0.204087157  0.503565349
     0.989107641  0.329841346  0.513892397
     0.038615841  0.186427434  0.506230952
     0.064338240  0.312829953  0.516471098
     0.089433714  0.240924392  0.512607288
     0.820646286  0.484429165  0.529834977
     0.793113957  0.604716588  0.547531144
     0.696186899  0.508654388  0.546902661
     0.807698216  0.488863222  0.569048326
     0.817276986  0.400238688  0.528809687
     0.831812856  0.373498156  0.505735431
     0.873222637  0.629913658  0.546299696
     0.660315503  0.525355727  0.525541760
     0.770726172  0.517736913  0.589000498
     0.856790958  0.292711810  0.503284654
     0.059749978  0.252515151  0.569597935
     0.035433746  0.709751229  0.570199435
     0.541337315  0.205933467  0.565958658
     0.549424968  0.723028426  0.563601436
     0.455407724  0.300340392  0.561979285
     0.423104219  0.747408768  0.562409120
     0.932328031  0.254771592  0.567461522
     0.973207735  0.819533756  0.562724612
     0.259952297  0.446686622  0.564034200
     0.200013932  0.018080809  0.561051609
     0.702821777  0.989056364  0.564428566
     0.326956727  0.039529706  0.559702829
     0.272871797  0.573502691  0.559830601
     0.818547545  0.046199508  0.564275399
     0.056720314  0.197422794  0.657414084
     0.050552619  0.701380628  0.657562978
     0.544227183  0.197143929  0.654712860
     0.537541913  0.712993853  0.659880947
     0.215623490  0.448702280  0.659516738
     0.197206846  0.957986872  0.655945345
     0.695521494  0.463959338  0.658026999
     0.705180306  0.950883152  0.657891291
     0.464919015  0.297430922  0.659325843
     0.446051388  0.802625239  0.655735037
     0.962451815  0.284364784  0.662735399
     0.950632740  0.781980598  0.660761005
     0.300002888  0.035924666  0.658643944
     0.297153515  0.548515545  0.657938053
     0.791802305  0.046466354  0.659350994
     0.803463358  0.534764647  0.657428002
     0.045862501  0.204119496  0.752725994
     0.045862500  0.704119456  0.752725994
     0.545862507  0.204119496  0.752725994
     0.545862496  0.704119456  0.752725994
     0.204119002  0.454101003  0.752704994
     0.204118991  0.954100951  0.752704994
     0.704118976  0.454101003  0.752704994
     0.704118964  0.954100951  0.752704994
     0.454140018  0.295888490  0.752726971
     0.454140007  0.795888516  0.752726971
     0.954140018  0.295888490  0.752726971
     0.954140060  0.795888516  0.752726971
     0.295882492  0.045900498  0.752704994
     0.295882481  0.545900528  0.752704994
     0.795882439  0.045900498  0.752704994
     0.795882481  0.545900528  0.752704994
     0.779155478  0.521272775  0.548327201
     0.508829749  0.976901842  0.553004406
     0.463060382  0.496745919  0.554532422
     0.004521273  0.012027944  0.551759834
     0.035151405  0.494970438  0.554712268
     0.253611488  0.243681250  0.554757382
     0.233686334  0.772029921  0.551147834
     0.738158900  0.221673610  0.555405583
     0.721829604  0.796711949  0.553699675
     0.994357270  0.985874631  0.654363058
     0.003757588  0.501698819  0.655327729
     0.497111846  0.002674322  0.654514028
     0.497663318  0.501714236  0.654661092
     0.262635378  0.239516911  0.655442071
     0.246331115  0.754852822  0.653937741
     0.742817957  0.260025386  0.655712449
     0.751634897  0.741893995  0.653736773
     0.140055665  0.113042825  0.608817694
     0.145175078  0.609703384  0.608379862
     0.641940234  0.107698457  0.609055779
     0.615139179  0.632043781  0.610127343
     0.367269880  0.384249326  0.610772247
     0.363839681  0.885351531  0.606359500
     0.888787269  0.362133292  0.613704291
     0.863674774  0.888837394  0.606041931
     0.125776680  0.369770031  0.612581508
     0.118261177  0.874313643  0.606951232
     0.620895099  0.372876146  0.602704777
     0.619124275  0.867472434  0.612786749
     0.399765262  0.143925205  0.604317221
     0.376923838  0.632200801  0.607427828
     0.883137144  0.133390730  0.612530961
     0.904772553  0.652047405  0.611735086
     0.000000000  0.000000000  0.754927972
     0.000000000  0.500000000  0.754927972
     0.500000000  0.000000000  0.754927972
     0.499999989  0.500000000  0.754927972
     0.250000496  0.250000000  0.754939022
     0.250000511  0.749999974  0.754939022
     0.750000470  0.250000000  0.754939022
     0.750000458  0.749999974  0.754939022
     0.135790500  0.114209997  0.704782994
     0.135790502  0.614209984  0.704782994
     0.635790447  0.114209997  0.704782994
     0.635790488  0.614209984  0.704782994
     0.364209516  0.385789989  0.704782994
     0.364209505  0.885789963  0.704782994
     0.864209542  0.385789989  0.704782994
     0.864209531  0.885789963  0.704782994
     0.114217990  0.364218986  0.704780979
     0.114217992  0.864218986  0.704780979
     0.614218004  0.364218986  0.704780979
     0.614217992  0.864218986  0.704780979
     0.385782012  0.135781489  0.704782017
     0.385782001  0.635781489  0.704782017
     0.885781985  0.135781489  0.704782017
     0.885782027  0.635781489  0.704782017
     0.134667000  0.115332001  0.801256025
     0.134666989  0.615331988  0.801256025
     0.634666987  0.115332001  0.801256025
     0.634666976  0.615331988  0.801256025
     0.365333002  0.384667985  0.801256025
     0.365332990  0.884667959  0.801256025
     0.865332949  0.384667985  0.801256025
     0.865332938  0.884667959  0.801256025
     0.115328503  0.365337004  0.801264999
     0.115328505  0.865336978  0.801264999
     0.615328503  0.365337004  0.801264999
     0.615328492  0.865336978  0.801264999
     0.384671513  0.134662996  0.801264999
     0.384671501  0.634662970  0.801264999
     0.884671486  0.134662996  0.801264999
     0.884671528  0.634662970  0.801264999
     0.999953725  0.006787490  0.604413309
     0.007513875  0.504335589  0.604699377
     0.502857782  0.994962616  0.603560295
     0.498547608  0.500509656  0.603696980
     0.255398726  0.250939614  0.605871609
     0.244831917  0.756599422  0.603383013
     0.748948932  0.251329156  0.606211460
     0.749842856  0.759945741  0.603191202
     0.000000500  0.000000500  0.704828963
     0.000000500  0.500000475  0.704828963
     0.500000475  0.000000500  0.704828963
     0.500000464  0.500000475  0.704828963
     0.249999994  0.249999472  0.704824995
     0.250000010  0.749999498  0.704824995
     0.749999994  0.249999472  0.704824995
     0.749999983  0.749999498  0.704824995
     0.000000000  0.000000000  0.807317968
     0.000000000  0.500000000  0.807317968
     0.500000000  0.000000000  0.807317968
     0.499999989  0.500000000  0.807317968
     0.249999994  0.250000000  0.807317968
     0.250000010  0.749999974  0.807317968
     0.749999994  0.250000000  0.807317968
     0.749999983  0.749999974  0.807317968

  ion indices of the primitive-cell ions
   primitive index   ion index
                 1           1
                 2           2
                 3           3
                 4           4
                 5           5
                 6           6
                 7           7
                 8           8
                 9           9
                10          10
                11          11
                12          12
                13          13
                14          14
                15          15
                16          16
                17          17
                18          18
                19          19
                20          20
                21          21
                22          22
                23          23
                24          24
                25          25
                26          26
                27          27
                28          28
                29          29
                30          30
                31          31
                32          32
                33          33
                34          34
                35          35
                36          36
                37          37
                38          38
                39          39
                40          40
                41          41
                42          42
                43          43
                44          44
                45          45
                46          46
                47          47
                48          48
                49          49
                50          50
                51          51
                52          52
                53          53
                54          54
                55          55
                56          56
                57          57
                58          58
                59          59
                60          60
                61          61
                62          62
                63          63
                64          64
                65          65
                66          66
                67          67
                68          68
                69          69
                70          70
                71          71
                72          72
                73          73
                74          74
                75          75
                76          76
                77          77
                78          78
                79          79
                80          80
                81          81
                82          82
                83          83
                84          84
                85          85
                86          86
                87          87
                88          88
                89          89
                90          90
                91          91
                92          92
                93          93
                94          94
                95          95
                96          96
                97          97
                98          98
                99          99
               100         100
               101         101
               102         102
               103         103
               104         104
               105         105
               106         106
               107         107
               108         108
               109         109
               110         110
               111         111
               112         112
               113         113
               114         114
               115         115
               116         116
               117         117
               118         118
               119         119
               120         120
               121         121
               122         122
               123         123
               124         124
               125         125
               126         126
               127         127
               128         128
               129         129
               130         130
               131         131
               132         132
               133         133
               134         134
               135         135
               136         136
               137         137
               138         138
               139         139
               140         140
               141         141
               142         142
               143         143
               144         144
               145         145
               146         146
               147         147
               148         148
               149         149
               150         150
               151         151
               152         152
               153         153
               154         154
               155         155
               156         156
               157         157
               158         158
               159         159
               160         160
               161         161
               162         162
               163         163
               164         164
               165         165
               166         166
               167         167
               168         168
               169         169
               170         170
               171         171
               172         172
               173         173
               174         174
               175         175
               176         176
               177         177
               178         178
               179         179
               180         180
               181         181
               182         182
               183         183
               184         184
               185         185
               186         186
               187         187
               188         188
               189         189
               190         190
               191         191
               192         192
               193         193
               194         194
               195         195
               196         196
               197         197
               198         198
               199         199
               200         200
               201         201
               202         202
               203         203
               204         204
               205         205
               206         206
               207         207
               208         208
               209         209
               210         210
               211         211
               212         212
               213         213
               214         214
               215         215
               216         216
               217         217
               218         218
               219         219
               220         220
               221         221
               222         222
               223         223
               224         224
               225         225
               226         226
               227         227
               228         228
               229         229
               230         230
               231         231
               232         232
               233         233
               234         234
               235         235
               236         236
               237         237
               238         238
               239         239
               240         240
               241         241
               242         242
               243         243
               244         244
               245         245
               246         246
               247         247
               248         248
               249         249
               250         250
               251         251
               252         252
               253         253
               254         254
               255         255
               256         256
               257         257
               258         258
               259         259
               260         260
               261         261
               262         262
               263         263
               264         264
               265         265
               266         266
               267         267
               268         268
               269         269
               270         270
               271         271
               272         272
               273         273
               274         274
               275         275
               276         276
               277         277
               278         278
               279         279
               280         280
               281         281
               282         282
               283         283
               284         284
               285         285
               286         286
               287         287
               288         288
               289         289
               290         290
               291         291
               292         292
               293         293
               294         294
               295         295
               296         296
               297         297
               298         298
               299         299
               300         300
               301         301
               302         302
               303         303
               304         304
               305         305
               306         306
               307         307
               308         308
               309         309
               310         310
               311         311
               312         312
               313         313
               314         314
               315         315
               316         316
               317         317
               318         318
               319         319
               320         320
               321         321
               322         322
               323         323
               324         324
               325         325

----------------------------------------------------------------------------------------

 
 
 KPOINTS: Automatic Mesh                          

Automatic generation of k-mesh.
 Grid dimensions read from file:
 generate k-points for:    3    3    1

 Generating k-lattice:

  Cartesian coordinates                     Fractional coordinates (reciprocal lattice)
     0.018456177  0.000005026 -0.000000000     0.333333333  0.000000000  0.000000000
     0.000000000  0.018454135  0.000000000     0.000000000  0.333333333  0.000000000
     0.000000000 -0.000000000  0.016003201     0.000000000  0.000000000  1.000000000

  Length of vectors
     0.018456178  0.018454135  0.016003201

  Shift w.r.t. Gamma in fractional coordinates (k-lattice)
     0.000000000  0.000000000  0.000000000

 
 Subroutine IBZKPT returns following result:
 ===========================================
 
 Found      5 irreducible k-points:
 
 Following reciprocal coordinates:
            Coordinates               Weight
  0.000000  0.000000  0.000000      1.000000
  0.333333  0.000000  0.000000      2.000000
  0.000000  0.333333  0.000000      2.000000
  0.333333  0.333333  0.000000      2.000000
 -0.333333  0.333333  0.000000      2.000000
 
 Following cartesian coordinates:
            Coordinates               Weight
  0.000000  0.000000  0.000000      1.000000
  0.018456  0.000005  0.000000      2.000000
  0.000000  0.018454  0.000000      2.000000
  0.018456  0.018459  0.000000      2.000000
 -0.018456  0.018449  0.000000      2.000000
 


--------------------------------------------------------------------------------------------------------




 Dimension of arrays:
   k-points           NKPTS =      5   k-points in BZ     NKDIM =      5   number of bands    NBANDS=    732
   number of dos      NEDOS =    301   number of ions     NIONS =    325
   non local maximal  LDIM  =      5   non local SUM 2l+1 LMDIM =     13
   total plane-waves  NPLWV = ******
   max r-space proj   IRMAX =   3336   max aug-charges    IRDMAX=  19845
   dimension x,y,z NGX =   100 NGY =  100 NGZ =  350
   dimension x,y,z NGXF=   200 NGYF=  200 NGZF=  700
   support grid    NGXF=   200 NGYF=  200 NGZF=  700
   ions per type =             143  39  47  72  24
   NGX,Y,Z   is equivalent  to a cutoff of   9.20,  9.20,  9.31 a.u.
   NGXF,Y,Z  is equivalent  to a cutoff of  18.41, 18.41, 18.62 a.u.

 SYSTEM =  PSC                                     
 POSCAR =   H  C  N  I Pb                          

 Startparameter for this run:
   NWRITE =      2    write-flag & timer
   PREC   = normal    normal or accurate (medium, high low for compatibility)
   ISTART =      0    job   : 0-new  1-cont  2-samecut
   ICHARG =      1    charge: 1-file 2-atom 10-const
   ISPIN  =      1    spin polarized calculation?
   LNONCOLLINEAR =      F non collinear calculations
   LSORBIT =      F    spin-orbit coupling
   INIWAV =      1    electr: 0-lowe 1-rand  2-diag
   LASPH  =      F    aspherical Exc in radial PAW
 Electronic Relaxation 1
   ENCUT  =  500.0 eV  36.75 Ry    6.06 a.u.  32.93 32.93113.93*2*pi/ulx,y,z
   ENINI  =  500.0     initial cutoff
   ENAUG  =  644.9 eV  augmentation charge cutoff
   NELM   =    600;   NELMIN=  2; NELMDL=  0     # of ELM steps 
   EDIFF  = 0.1E-03   stopping-criterion for ELM
   LREAL  =      T    real-space projection
   NLSPLINE    = F    spline interpolate recip. space projectors
   LCOMPAT=      F    compatible to vasp.4.4
   GGA_COMPAT  = F    GGA compatible to vasp.4.4-vasp.4.6
   LMAXPAW     = -100 max onsite density
   LMAXMIX     =    2 max onsite mixed and CHGCAR
   VOSKOWN=      0    Vosko Wilk Nusair interpolation
   ROPT   =   -0.00050  -0.00050  -0.00050  -0.00050
   ROPT   =   -0.00050
 Ionic relaxation
   EDIFFG = 0.1E-02   stopping-criterion for IOM
   NSW    =      0    number of steps for IOM
   NBLOCK =      1;   KBLOCK =      1    inner block; outer block 
   IBRION =     -1    ionic relax: 0-MD 1-quasi-New 2-CG
   NFREE  =      0    steps in history (QN), initial steepest desc. (CG)
   ISIF   =      2    stress and relaxation
   IWAVPR =     10    prediction:  0-non 1-charg 2-wave 3-comb
   ISYM   =      0    0-nonsym 1-usesym 2-fastsym
   LCORR  =      T    Harris-Foulkes like correction to forces

   POTIM  = 0.5000    time-step for ionic-motion
   TEIN   =    0.0    initial temperature
   TEBEG  =    0.0;   TEEND  =   0.0 temperature during run
   SMASS  =  -3.00    Nose mass-parameter (am)
   estimated Nose-frequenzy (Omega)   =  0.10E-29 period in steps = 0.13E+47 mass=  -0.745E-26a.u.
   SCALEE = 1.0000    scale energy and forces
   NPACO  =    256;   APACO  = 16.0  distance and # of slots for P.C.
   PSTRESS=    0.0 pullay stress

  Mass of Ions in am
   POMASS =   1.00 12.01 14.00126.90207.20
  Ionic Valenz
   ZVAL   =   1.00  4.00  5.00  7.00  4.00
  Atomic Wigner-Seitz radii
   RWIGS  =  -1.00 -1.00 -1.00 -1.00 -1.00
  virtual crystal weights 
   VCA    =   1.00  1.00  1.00  1.00  1.00
   NELECT =    1134.0000    total number of electrons
   NUPDOWN=      -1.0000    fix difference up-down

 DOS related values:
   EMIN   =  10.00;   EMAX   =-10.00  energy-range for DOS
   EFERMI =   0.00
   ISMEAR =     0;   SIGMA  =   0.05  broadening in eV -4-tet -1-fermi 0-gaus

 Electronic relaxation 2 (details)
   IALGO  =     38    algorithm
   LDIAG  =      T    sub-space diagonalisation (order eigenvalues)
   LSUBROT=      F    optimize rotation matrix (better conditioning)
   TURBO    =      0    0=normal 1=particle mesh
   IRESTART =      0    0=no restart 2=restart with 2 vectors
   NREBOOT  =      0    no. of reboots
   NMIN     =      0    reboot dimension
   EREF     =   0.00    reference energy to select bands
   IMIX   =      4    mixing-type and parameters
     AMIX     =   0.40;   BMIX     =  0.01
     AMIX_MAG =   1.60;   BMIX_MAG =  0.01
     AMIN     =   0.01
     WC   =   100.;   INIMIX=   1;  MIXPRE=   1;  MAXMIX= -45

 Intra band minimization:
   WEIMIN = 0.0000     energy-eigenvalue tresh-hold
   EBREAK =  0.34E-07  absolut break condition
   DEPER  =   0.30     relativ break condition  

   TIME   =   0.40     timestep for ELM

  volume/ion in A,a.u.               =      62.72       423.28
  Fermi-wavevector in a.u.,A,eV,Ry     =   0.624944  1.180972  5.313816  0.390554
  Thomas-Fermi vector in A             =   1.685677
 
 Write flags
   LWAVE        =      F    write WAVECAR
   LDOWNSAMPLE  =      F    k-point downsampling of WAVECAR
   LCHARG       =      T    write CHGCAR
   LVTOT        =      T    write LOCPOT, total local potential
   LVHAR        =      F    write LOCPOT, Hartree potential only
   LELF         =      F    write electronic localiz. function (ELF)
   LORBIT       =      0    0 simple, 1 ext, 2 COOP (PROOUT), +10 PAW based schemes


 Dipole corrections
   LMONO  =      F    monopole corrections only (constant potential shift)
   LDIPOL =      T    correct potential (dipole corrections)
   IDIPOL =      3    1-x, 2-y, 3-z, 4-all directions 
   EPSILON=  1.0000000 bulk dielectric constant

 Exchange correlation treatment:
   GGA     =    --    GGA type
   LEXCH   =     8    internal setting for exchange type
   VOSKOWN=      0    Vosko Wilk Nusair interpolation
   LHFCALC =     F    Hartree Fock is set to
   LHFONE  =     F    Hartree Fock one center treatment
   AEXX    =    0.0000 exact exchange contribution

 Linear response parameters
   LEPSILON=     F    determine dielectric tensor
   LRPA    =     F    only Hartree local field effects (RPA)
   LNABLA  =     F    use nabla operator in PAW spheres
   LVEL    =     F    velocity operator in full k-point grid
   LINTERFAST=   F  fast interpolation
   KINTER  =     0    interpolate to denser k-point grid
   CSHIFT  =0.1000    complex shift for real part using Kramers Kronig
   OMEGAMAX=  -1.0    maximum frequency
   DEG_THRESHOLD= 0.2000000E-02 threshold for treating states as degnerate
   RTIME   =   -0.100 relaxation time in fs
  (WPLASMAI=    0.000 imaginary part of plasma frequency in eV, 0.658/RTIME)
   DFIELD  = 0.0000000 0.0000000 0.0000000 field for delta impulse in time
 
 Orbital magnetization related:
   ORBITALMAG=     F  switch on orbital magnetization
   LCHIMAG   =     F  perturbation theory with respect to B field
   DQ        =  0.001000  dq finite difference perturbation B field
   LLRAUG    =     F  two centre corrections for induced B field



--------------------------------------------------------------------------------------------------------


 Static calculation
 charge density and potential will be updated during run
 non-spin polarized calculation
 Variant of blocked Davidson
 Davidson routine will perform the subspace rotation
 perform sub-space diagonalisation
    after iterative eigenvector-optimisation
 modified Broyden-mixing scheme, WC =      100.0
 initial mixing is a Kerker type mixing with AMIX =  0.4000 and BMIX =      0.0100
 Hartree-type preconditioning will be used
 using additional bands           165
 real space projection scheme for non local part
[...]
     13.54561      0.00000     45.35368         0.002512     -0.008330      0.011184
     13.54315      9.03140     45.35368        -0.008637      0.003402      0.005006
     14.42988      9.21556     32.18677         0.038335     -0.080456      0.152998
     15.87681      9.04309     33.22546        -0.201030      0.076717     -0.018036
     13.79669     11.28178     33.32954        -0.177607      0.056837     -0.152234
     13.81282     11.36479     35.07670        -0.016907     -0.137915      0.061692
     12.37445      8.14787     34.44519         0.127739     -0.175207      0.160335
     12.12411      9.81106     34.95910         0.027110      0.003510     -0.014047
     14.44120      7.74630     35.49560        -0.076120     -0.071431     -0.096194
     15.66930      8.99612     35.54219         0.071031      0.084722      0.101969
     15.51869      6.80199     33.70914         0.014841     -0.005831      0.115340
     13.79015      6.84972     33.38745        -0.077540     -0.137174     -0.006673
     14.10345      6.88287     31.01558        -0.118968      0.049625     -0.025681
     15.77693      7.41606     31.11494        -0.297913     -0.330988      0.235760
     16.22298     11.17099     33.16315         0.009050     -0.008079     -0.075181
     16.42597     10.95112     34.89878        -0.070503     -0.013088      0.136590
     15.74848     12.47023     34.26261         0.002599     -0.018482      0.022744
     10.85153      9.32847     32.97973        -0.228963      0.051972      0.008589
     12.24747      8.82183     32.03716         0.103511     -0.096899     -0.076145
     12.07398     10.52422     32.52776        -0.058951      0.178039     -0.112196
     12.83683      9.11496     36.83655         0.390385      0.042465      0.011744
     14.05915     10.42428     36.94593         0.018472      0.080204      0.041653
     14.38562      8.84125     37.65863        -0.016711      0.034009     -0.059184
     14.87659      4.63197     32.09640        -0.169222     -0.044833      0.116311
     15.24998      4.96826     30.41844        -0.049583     -0.016242     -0.011050
     16.69922      2.91328     31.12829         0.296510      0.262423      0.171256
     17.55751      6.97774     32.32385        -0.114593      0.160373      0.041613
      1.03619      2.35119     31.43972         0.030016     -0.072280      0.019479
      1.84175      6.43010     32.63201        -0.067920     -0.129524     -0.101996
      2.66937      4.11085     32.14596         0.049484     -0.042993      0.050067
     18.00981      4.22181     35.02034         0.203691     -0.130163     -0.056526
      0.54324     13.99369     35.05597        -0.158156     -0.042891      0.253164
      9.42161      4.93541     35.03213         0.887230     -0.020596     -0.136811
      8.87133     13.73849     34.79512         0.791311     -0.006253     -0.225398
      4.30950      9.22791     34.76218         0.066051     -0.250979     -0.067625
      4.83786     18.04645     34.73636        -0.057812     -0.074038     -0.042273
     13.97875     17.88717     35.02081         0.006503      0.025074     -0.116644
      0.11964      4.43011     40.64252         0.412446     -0.394891      0.440671
      0.27743     13.80249     40.82448         0.781752     -0.939282      0.274716
      9.15549      4.60724     40.46741         0.500975     -0.764020      0.444325
      8.91705     13.63820     40.51043         0.162522     -0.177126      0.185170
      4.57398      9.03360     40.56731        -0.604971     -0.722040      0.175109
      4.55058     17.99144     40.47479        -0.044921      0.064916      0.261208
     13.35286      9.26217     40.57957         0.564154      0.542452     -0.203217
     13.57690     18.02792     40.56253        -0.663802     -0.731849      0.003547
      9.02897      4.51561     46.44552         0.013514      0.000339      0.033099
      9.02651     13.54701     46.44552         0.023917     -0.008309      0.046125
     18.05937      4.51561     46.44552         0.011937      0.004612      0.048450
     18.05691     13.54701     46.44552         0.018438      0.000286      0.012158
      4.51521      0.00002     46.44421        -0.004168     -0.005914      0.057967
      4.51275      9.03142     46.44421        -0.007265     -0.005222      0.036329
     13.54561      0.00002     46.44421        -0.004830     -0.006491      0.034892
     13.54315      9.03142     46.44421        -0.014678     -0.010489      0.030651
     16.93798      5.00236     31.68956         0.173436     -0.505153      0.027317
     17.41490      3.68639     31.46654        -0.572163      0.096929     -0.124678
     17.86245      5.95786     32.11185         0.221983      0.127346     -0.033807
      0.69652      3.36740     31.63311         0.181022      0.035961     -0.019319
      1.16046      5.65058     32.27299        -0.056897     -0.197762      0.112534
      1.61406      4.35177     32.03155        -0.088308      0.122664     -0.092325
     14.81915      8.75015     33.10806         0.188467      0.254618     -0.029144
     14.32130     10.92287     34.21385         0.117432     -0.056596     -0.088176
     12.57119      9.18772     34.17458        -0.187424      0.036245     -0.048257
     14.58527      8.83024     35.55841         0.066967     -0.214035      0.170872
     14.75871      7.22943     33.04399        -0.005018     -0.093416     -0.164071
     15.02137      6.74642     31.60214         0.306534      0.400423     -0.243289
     15.76800     11.37800     34.13690        -0.055404      0.032821     -0.032884
     11.92324      9.48940     32.83979         0.178926     -0.020397      0.038875
     13.91739      9.35178     36.80517        -0.351128     -0.096292      0.002189
     15.47289      5.28719     31.44900         0.092881      0.287175     -0.096320
      1.07789      4.56113     35.59275         0.238907     -0.085230     -0.200531
      0.63647     12.82009     35.63034        -0.009314     -0.122574      0.111178
      9.77597      3.71973     35.36534        -0.327978     -0.355512      0.177028
      9.91950     13.05992     35.21804        -0.275529     -0.145728      0.279353
      8.22355      5.42499     35.11668        -0.675506      0.376586      0.119004
      7.63792     13.50029     35.14354        -0.344501      0.069614     -0.038318
     16.83734      4.60189     35.45925        -0.097257      0.051273      0.192839
     17.57288     14.80307     35.16325        -0.242404      0.130408      0.208797
      4.69275      8.06841     35.24509        -0.426329     -0.045017     -0.242530
      3.61232      0.32659     35.05871         0.335100     -0.487641     -0.348526
     12.68866     17.86513     35.26973         0.486282     -0.307107     -0.163169
      5.90491      0.71402     34.97443        -0.146533     -0.427568     -0.232150
      4.92546     10.35906     34.98241        -0.241909      0.621117     -0.275052
     14.78340      0.83449     35.26016         0.025981     -0.551286     -0.228971
      1.02344      3.56601     41.08016        -0.458119      0.417092     -0.219930
      0.90957     12.66890     41.08947        -0.607520      0.498022      0.007345
      9.82821      3.56097     40.91137        -0.279279      0.477950     -0.067070
      9.70493     12.87866     41.23431         0.100042     -0.117501      0.314684
      3.89213      8.10482     41.21155         0.246193      0.257700      0.034672
      3.55700     17.30392     40.98838        -0.082633     -0.100265     -0.065422
     12.55939      8.38040     41.11846        -0.659493     -0.351309     -0.272560
     12.73144     17.17561     41.10998         0.227487      0.200149      0.031384
      8.39535      5.37244     41.19962        -0.384113      0.228188      0.693542
      8.05210     14.49766     40.97524        -0.261700      0.226117      0.139895
     17.38125      5.13642     41.41268         0.212325     -0.178848     -0.303049
     17.16534     14.12476     41.28930        -0.218068      0.298592     -0.100803
      5.41812      0.64890     41.15701         0.118532      0.095158     -0.246825
      5.36413      9.90773     41.11290         0.466295      0.459706      0.712638
     14.30035      0.83931     41.20119         0.399917      0.544203      0.608205
     14.50856      9.65935     41.08103        -0.320067     -0.076293     -0.106323
      0.82731      3.68697     47.03596         0.019200     -0.024964     -0.097863
      0.82485     12.71837     47.03596         0.018218     -0.019172     -0.065194
      9.85771      3.68697     47.03596         0.019530     -0.022148     -0.086135
      9.85525     12.71837     47.03596         0.008797     -0.011769     -0.084244
      3.68432      8.20234     47.03465        -0.007428     -0.012327     -0.070242
      3.68186     17.23373     47.03465        -0.006267     -0.004095     -0.067980
     12.71472      8.20234     47.03465        -0.003606     -0.007273     -0.064540
     12.71226     17.23373     47.03465        -0.013166     -0.008660     -0.068190
      8.20068      5.34457     47.03603        -0.023646      0.020559     -0.091182
      8.19822     14.37597     47.03603        -0.028098      0.024532     -0.088255
     17.23108      5.34457     47.03603        -0.022475      0.017228     -0.104577
     17.22862     14.37597     47.03603        -0.023942      0.022694     -0.068988
      5.34365      0.82909     47.03465         0.010393      0.012595     -0.073857
      5.34119      9.86049     47.03465         0.017616      0.014950     -0.064576
     14.37405      0.82909     47.03465         0.014821      0.017440     -0.068009
     14.37159      9.86049     47.03465         0.023047      0.021909     -0.072503
     14.06961      9.41565     34.26360         0.211051     -0.025903     -0.283807
      9.18507     17.64558     34.55586         0.012502     -0.000224      0.030636
      8.36080      8.97262     34.65134         0.112173      0.035540     -0.049189
      0.08160      0.21726     34.47809         0.065464     -0.000005     -0.003274
      0.63243      8.94055     34.66258        -0.097207     -0.057619      0.018499
      4.57923      4.40157     34.66540         0.016607     -0.004639      0.029034
      4.21676     13.94502     34.43985        -0.001653     -0.039926      0.008123
     13.33065      4.00405     34.70591        -0.007911      0.106120     -0.025782
     13.03290     14.39085     34.59931         0.187942     -0.115312     -0.168563
     17.95404     17.80766     40.88951         0.010387     -0.010963     -0.010049
      0.06540      9.06209     40.94979         0.012951     -0.000110      0.045973
      8.97822      0.04831     40.89894         0.000395      0.004014      0.029043
      8.98573      9.06236     40.90813        -0.000717     -0.007906     -0.013243
      4.74223      4.32635     40.95694         0.003400     -0.012842      0.021897
      4.44522     13.63476     40.86293         0.005829     -0.027142     -0.022527
     13.41461      4.69679     40.97383        -0.002910     -0.016346     -0.074194
     13.57148     13.40068     40.85038         0.000759      0.012100      0.097399
      2.52896      2.04187     38.04350        -0.007294      0.051374      0.017690
      2.61898     11.01295     38.01614        -0.007644      0.000759     -0.037240
     11.59342      1.94534     38.05837         0.008602      0.035989     -0.012810
     11.10680     11.41648     38.12533         0.083789      0.026858     -0.102004
      6.63130      6.94062     38.16563         0.017793      0.023187     -0.024173
      6.56688     15.99193     37.88989         0.050347      0.041997     -0.001706
     16.05043      6.54114     38.34885        -0.038522      0.154684     -0.170347
     15.59429     16.05489     37.87004         0.017227      0.002374      0.000679
      2.26981      6.67908     38.27869        -0.033920     -0.046509     -0.060807
      2.13159     15.79255     37.92686        -0.014015     -0.024499     -0.052764
     11.21203      6.73519     37.66151        -0.026661     -0.019632      0.013450
     11.17761     15.66898     38.29151        -0.071873     -0.050281     -0.078931
      7.21937      2.59969     37.76227         0.002403     -0.026886      0.004786
      6.80444     11.41932     37.95665         0.029859      0.011614      0.003710
     15.94951      2.40941     38.27553        -0.013279      0.031579      0.043295
     16.33771     11.77780     38.22580         0.043770      0.016027     -0.171984
      0.00000      0.00000     47.17356         0.000737      0.005018      0.375805
     -0.00246      9.03140     47.17356        -0.004434     -0.003691      0.471171
      9.03040      0.00000     47.17356        -0.001363     -0.002000      0.431804
      9.02794      9.03140     47.17356        -0.004187     -0.000047      0.431706
      4.51398      4.51570     47.17425        -0.000537     -0.005250      0.448431
      4.51152     13.54710     47.17425         0.003766      0.002697      0.363746
     13.54438      4.51570     47.17425         0.002550      0.000098      0.450845
     13.54192     13.54710     47.17425        -0.000427     -0.002562      0.381552
      2.45192      2.06295     44.04013         0.008689     -0.035120     -0.020859
      2.44946     11.09435     44.04013         0.042408     -0.022588      0.001844
     11.48232      2.06295     44.04013        -0.018039     -0.000293     -0.080254
     11.47986     11.09435     44.04013        -0.039786      0.020356     -0.023546
      6.57602      6.96845     44.04013        -0.020130     -0.007132     -0.041019
      6.57356     15.99985     44.04013         0.016765     -0.008336     -0.042754
     15.60642      6.96845     44.04013        -0.045146      0.056821     -0.051875
     15.60396     15.99985     44.04013        -0.051102      0.031191     -0.000422
      2.06108      6.57881     44.04000         0.019141     -0.047276     -0.032955
      2.05862     15.61021     44.04000         0.053649      0.072925     -0.035120
     11.09148      6.57881     44.04000         0.002246      0.019260     -0.013754
     11.08902     15.61021     44.04000        -0.008528     -0.001757     -0.047712
      6.96686      2.45259     44.04007         0.031206     -0.015749     -0.005116
      6.96440     11.48399     44.04007        -0.005804      0.008648     -0.047643
     15.99726      2.45259     44.04007         0.014550      0.018715     -0.043405
     15.99481     11.48399     44.04007         0.031774      0.020989     -0.088443
      2.43163      2.08322     50.06849         0.003883     -0.015806      0.021017
      2.42917     11.11462     50.06849         0.018111     -0.003332      0.024961
     11.46203      2.08322     50.06849         0.007725     -0.012611      0.022453
     11.45957     11.11462     50.06849         0.012360     -0.007320      0.023780
      6.59631      6.94818     50.06849        -0.010732      0.009387      0.023066
      6.59385     15.97958     50.06849        -0.014120      0.006924      0.022276
     15.62671      6.94818     50.06849        -0.011755      0.006779      0.021752
     15.62425     15.97958     50.06849        -0.009180      0.013542      0.024767
      2.08113      6.59901     50.06905        -0.008929     -0.013253      0.022929
      2.07867     15.63041     50.06905        -0.009894     -0.008788      0.023369
     11.11153      6.59901     50.06905        -0.011375     -0.009662      0.023553
     11.10907     15.63041     50.06905        -0.008404     -0.012673      0.023189
      6.94681      2.43239     50.06905         0.011186      0.006866      0.022331
      6.94435     11.46379     50.06905         0.004600      0.015938      0.023790
     15.97721      2.43239     50.06905         0.016118      0.004369      0.022707
     15.97475     11.46379     50.06905         0.003684      0.014892      0.023754
     18.05993      0.12260     37.76828        -0.009293     -0.001827      0.005371
      0.13323      9.10971     37.78615         0.034974     -0.026489     -0.026291
      9.07712     17.97181     37.71497        -0.036057     -0.038083     -0.014627
      9.00171      9.04061     37.72351        -0.035578     -0.023045     -0.021078
      4.61147      4.53267     37.85940        -0.051174     -0.000755     -0.002907
      4.41814     13.66630     37.70390        -0.033821      0.007219      0.020966
     13.52538      4.53971     37.88064         0.022900      0.000382     -0.000157
     13.53902     13.72675     37.69191         0.014909     -0.069425      0.138206
      0.00001      0.00001     44.04300        -0.046216     -0.110884      0.119954
     -0.00245      9.03141     44.04300         0.118748      0.013836      0.168070
      9.03041      0.00001     44.04300         0.006504     -0.000260      0.063521
      9.02795      9.03141     44.04300         0.082690      0.010730      0.138072
      4.51397      4.51569     44.04275         0.013022      0.033366      0.159099
      4.51151     13.54709     44.04275        -0.111026     -0.021021      0.095394
     13.54437      4.51569     44.04275        -0.054601     -0.015665      0.231950
     13.54191     13.54709     44.04275        -0.034598      0.013893      0.019689
      0.00000      0.00000     50.44728        -0.002294      0.002548     -0.620744
     -0.00246      9.03140     50.44728        -0.001546     -0.003028     -0.645354
      9.03040      0.00000     50.44728         0.001448      0.004884     -0.634577
      9.02794      9.03140     50.44728         0.000645     -0.005178     -0.636328
      4.51397      4.51570     50.44728         0.001570      0.005808     -0.637586
      4.51151     13.54710     50.44728        -0.000174     -0.006549     -0.619379
     13.54437      4.51570     50.44728        -0.002800      0.005098     -0.638190
     13.54191     13.54710     50.44728        -0.000099     -0.005501     -0.624895
 -----------------------------------------------------------------------------------
    total drift:                                0.124980      0.060539      0.587902


--------------------------------------------------------------------------------------------------------



  FREE ENERGIE OF THE ION-ELECTRON SYSTEM (eV)
  ---------------------------------------------------
  free  energy   TOTEN  =     -1575.85847367 eV

  energy  without entropy=    -1575.85847367  energy(sigma->0) =    -1575.85847367
 


--------------------------------------------------------------------------------------------------------


    POTLOK:  cpu time    0.5723: real time    0.5722


--------------------------------------------------------------------------------------------------------


     LOOP+:  cpu time  265.3411: real time  265.8995
 vacuum level on the upper side and lower side of the slab         2.321         1.548
    4ORBIT:  cpu time    0.0000: real time    0.0000

 total amount of memory used by VASP MPI-rank0  8653580. kBytes
=======================================================================

   base      :      30000. kBytes
   nonlr-proj:      53618. kBytes
   fftplans  :     249280. kBytes
   grid      :     701440. kBytes
   one-center:       2636. kBytes
   wavefun   :    7616606. kBytes
 
  
  
 General timing and accounting informations for this job:
 ========================================================
  
                  Total CPU time used (sec):      477.594
                            User time (sec):      389.823
                          System time (sec):       87.771
                         Elapsed time (sec):      480.641
  
                   Maximum memory used (kb):    10308384.
                   Average memory used (kb):          N/A
  
                          Minor page faults:      3542685
                          Major page faults:           12
                 Voluntary context switches:        10922
