 vasp.6.2.1 16May21 (build Nov 15 2021 14:57:28) complex                         
 executed on             LinuxPGI date 2023.07.25  02:21:17
 running on    4 total cores
 distrk:  each k-point on    4 cores,    1 groups
 distr:  one band on NCORE=   1 cores,    4 groups


--------------------------------------------------------------------------------------------------------


 INCAR:
   SYSTEM = PSC
   ISTART = 1
   ICHARG = 1
   PREC = Normal
   ENCUT = 500
   GGA_COMPAT = F
   NELM = 600
   ISYM = 0
   LREAL = Auto
   ISMEAR = 0
   SIGMA = 0.05
   AMIN = 0.01
   BMIX = 0.01
   LVTOT = T
   LWAVE = F
   LDIPOL = T
   IDIPOL = 3
   LVDW = T
   IVDW = 12

 POTCAR:    PAW_PBE H 15Jun2001                   
 POTCAR:    PAW_PBE C 08Apr2002                   
 POTCAR:    PAW_PBE N 08Apr2002                   
 POTCAR:    PAW_PBE I 08Apr2002                   
 POTCAR:    PAW_PBE Pb 08Apr2002                  
 WARNING: For LVTOT=.TRUE., VASP.5.x writes the TOTAL local potential to the
     file LOCPOT. If you want only the Hartree contributions, use LVHAR=.TRUE.
     instead. 

 POTCAR:    PAW_PBE H 15Jun2001                   
   SHA256 =  030f79b5d3ab3cf0e668861823c8fb652ff669f3e15e46930bd03bfd63a607b6 H/POTCAR              
   COPYR  = (c) Copyright 15Jun2001 Georg Kresse                                                    
   COPYR  = This file is part of the software VASP. Any use, copying, and all other rights are regul
   COPYR  = If you do not have a valid VASP license, you may not use, copy or distribute this file. 
   VRHFIN =H: ultrasoft test                                                                        
   LEXCH  = PE                                                                                      
   EATOM  =    12.4884 eV,    0.9179 Ry                                                             
                                                                                                    
   TITEL  = PAW_PBE H 15Jun2001                                                                     
   LULTRA =        F    use ultrasoft PP ?                                                          
   IUNSCR =        0    unscreen: 0-lin 1-nonlin 2-no                                               
   RPACOR =    0.000    partial core radius                                                         
   POMASS =    1.000; ZVAL   =    1.000    mass and valenz                                          
   RCORE  =    1.100    outmost cutoff radius                                                       
   RWIGS  =    0.700; RWIGS  =    0.370    wigner-seitz radius (au A)                               
   ENMAX  =  250.000; ENMIN  =  200.000 eV                                                          
   RCLOC  =    0.701    cutoff for local pot                                                        
   LCOR   =        T    correct aug charges                                                         
   LPAW   =        T    paw PP                                                                      
   EAUG   =  400.000                                                                                
   RMAX   =    1.123    core radius for proj-oper                                                   
   RAUG   =    1.200    factor for augmentation sphere                                              
   RDEP   =    1.112    radius for radial grids                                                     
   RDEPT  =    0.926    core radius for aug-charge                                                  
                                                                                                    
   Atomic configuration                                                                             
    2 entries                                                                                       
     n  l   j            E        occ.                                                              
     1  0  0.50        -6.4927   1.0000                                                             
     2  1  0.50        -3.4015   0.0000                                                             
   Description                                                                                      
     l       E           TYP  RCUT    TYP  RCUT                                                     
     0     -6.4927494     23  1.100                                                                 
     0      6.8029130     23  1.100                                                                 
     1     -4.0817478     23  1.100                                                                 
  local pseudopotential read in
  atomic valenz-charges read in
  non local Contribution for L=            0  read in
    real space projection operators read in
  non local Contribution for L=            0  read in
    real space projection operators read in
  non local Contribution for L=            1  read in
    real space projection operators read in
    PAW grid and wavefunctions read in
 
   number of l-projection  operators is LMAX  =            3
   number of lm-projection operators is LMMAX =            5
 
 POTCAR:    PAW_PBE C 08Apr2002                   
   SHA256 =  253f7b50bb8d59471dbedb8285d89021f4a42ed1a2c5d38a03a736e69125dd95 C/POTCAR              
   COPYR  = (c) Copyright 08Apr2002 Georg Kresse                                                    
   COPYR  = This file is part of the software VASP. Any use, copying, and all other rights are regul
   COPYR  = If you do not have a valid VASP license, you may not use, copy or distribute this file. 
   VRHFIN =C: s2p2                                                                                  
   LEXCH  = PE                                                                                      
   EATOM  =   147.1560 eV,   10.8157 Ry                                                             
                                                                                                    
   TITEL  = PAW_PBE C 08Apr2002                                                                     
   LULTRA =        F    use ultrasoft PP ?                                                          
   IUNSCR =        1    unscreen: 0-lin 1-nonlin 2-no                                               
   RPACOR =    1.200    partial core radius                                                         
   POMASS =   12.011; ZVAL   =    4.000    mass and valenz                                          
   RCORE  =    1.500    outmost cutoff radius                                                       
   RWIGS  =    1.630; RWIGS  =    0.863    wigner-seitz radius (au A)                               
   ENMAX  =  400.000; ENMIN  =  300.000 eV                                                          
   ICORE  =        2    local potential                                                             
   LCOR   =        T    correct aug charges                                                         
   LPAW   =        T    paw PP                                                                      
   EAUG   =  644.873                                                                                
   DEXC   =    0.000                                                                                
   RMAX   =    1.529    core radius for proj-oper                                                   
   RAUG   =    1.300    factor for augmentation sphere                                              
   RDEP   =    1.501    radius for radial grids                                                     
   RDEPT  =    1.300    core radius for aug-charge                                                  
                                                                                                    
   Atomic configuration                                                                             
    4 entries                                                                                       
     n  l   j            E        occ.                                                              
     1  0  0.50      -273.3789   2.0000                                                             
     2  0  0.50       -13.7508   2.0000                                                             
     2  1  0.50        -5.2854   2.0000                                                             
     3  2  1.50        -5.4423   0.0000                                                             
   Description                                                                                      
     l       E           TYP  RCUT    TYP  RCUT                                                     
     0    -13.7508458     23  1.200                                                                 
     0     -8.2022199     23  1.200                                                                 
     1     -5.2854383     23  1.500                                                                 
     1     34.0145650     23  1.500                                                                 
     2     -5.4423304      7  1.500                                                                 
  local pseudopotential read in
  partial core-charges read in
  partial kinetic energy density read in
  atomic valenz-charges read in
  non local Contribution for L=            0  read in
    real space projection operators read in
  non local Contribution for L=            0  read in
    real space projection operators read in
  non local Contribution for L=            1  read in
    real space projection operators read in
  non local Contribution for L=            1  read in
    real space projection operators read in
    PAW grid and wavefunctions read in
 
   number of l-projection  operators is LMAX  =            4
   number of lm-projection operators is LMMAX =            8
 
 POTCAR:    PAW_PBE N 08Apr2002                   
   SHA256 =  e053789ff3a61a86a1b75d8a110fcc91f86041011e7b0817c7c99e4e8a6349d7 N/POTCAR              
   COPYR  = (c) Copyright 08Apr2002 Georg Kresse                                                    
   COPYR  = This file is part of the software VASP. Any use, copying, and all other rights are regul
   COPYR  = If you do not have a valid VASP license, you may not use, copy or distribute this file. 
   VRHFIN =N: s2p3                                                                                  
   LEXCH  = PE                                                                                      
   EATOM  =   264.5486 eV,   19.4438 Ry                                                             
                                                                                                    
   TITEL  = PAW_PBE N 08Apr2002                                                                     
   LULTRA =        F    use ultrasoft PP ?                                                          
   IUNSCR =        1    unscreen: 0-lin 1-nonlin 2-no                                               
   RPACOR =    1.200    partial core radius                                                         
   POMASS =   14.001; ZVAL   =    5.000    mass and valenz                                          
   RCORE  =    1.500    outmost cutoff radius                                                       
   RWIGS  =    1.400; RWIGS  =    0.741    wigner-seitz radius (au A)                               
   ENMAX  =  400.000; ENMIN  =  300.000 eV                                                          
   ICORE  =        2    local potential                                                             
   LCOR   =        T    correct aug charges                                                         
   LPAW   =        T    paw PP                                                                      
   EAUG   =  627.112                                                                                
   DEXC   =    0.000                                                                                
   RMAX   =    1.529    core radius for proj-oper                                                   
   RAUG   =    1.300    factor for augmentation sphere                                              
   RDEP   =    1.514    radius for radial grids                                                     
   RDEPT  =    1.338    core radius for aug-charge                                                  
                                                                                                    
   Atomic configuration                                                                             
    4 entries                                                                                       
     n  l   j            E        occ.                                                              
     1  0  0.50      -384.7179   2.0000                                                             
     2  0  0.50       -18.5828   2.0000                                                             
     2  1  0.50        -7.0898   3.0000                                                             
     3  2  1.50        -6.8029   0.0000                                                             
   Description                                                                                      
     l       E           TYP  RCUT    TYP  RCUT                                                     
     0    -18.5828119     23  1.200                                                                 
     0    -13.5018863     23  1.200                                                                 
     1     -7.0897853     23  1.500                                                                 
     1      9.5240782     23  1.500                                                                 
     2     -6.8029130      7  1.500                                                                 
  local pseudopotential read in
  partial core-charges read in
  partial kinetic energy density read in
  atomic valenz-charges read in
  non local Contribution for L=            0  read in
    real space projection operators read in
  non local Contribution for L=            0  read in
    real space projection operators read in
  non local Contribution for L=            1  read in
    real space projection operators read in
  non local Contribution for L=            1  read in
    real space projection operators read in
    PAW grid and wavefunctions read in
 
   number of l-projection  operators is LMAX  =            4
   number of lm-projection operators is LMMAX =            8
 
 POTCAR:    PAW_PBE I 08Apr2002                   
   SHA256 =  e40f3f59b681c1fc3e3091736183c4589116986673d2b852a5012aec72758799 I/POTCAR              
   COPYR  = (c) Copyright 08Apr2002 Georg Kresse                                                    
   COPYR  = This file is part of the software VASP. Any use, copying, and all other rights are regul
   COPYR  = If you do not have a valid VASP license, you may not use, copy or distribute this file. 
   VRHFIN =I : s2p5                                                                                 
   LEXCH  = PE                                                                                      
   EATOM  =   315.8678 eV,   23.2156 Ry                                                             
                                                                                                    
   TITEL  = PAW_PBE I 08Apr2002                                                                     
   LULTRA =        F    use ultrasoft PP ?                                                          
   IUNSCR =        1    unscreen: 0-lin 1-nonlin 2-no                                               
   RPACOR =    2.200    partial core radius                                                         
   POMASS =  126.904; ZVAL   =    7.000    mass and valenz                                          
   RCORE  =    2.300    outmost cutoff radius                                                       
   RWIGS  =    2.810; RWIGS  =    1.487    wigner-seitz radius (au A)                               
   ENMAX  =  175.647; ENMIN  =  131.735 eV                                                          
   ICORE  =        3    local potential                                                             
   LCOR   =        T    correct aug charges                                                         
   LPAW   =        T    paw PP                                                                      
   EAUG   =  370.139                                                                                
   DEXC   =    0.000                                                                                
   RMAX   =    2.359    core radius for proj-oper                                                   
   RAUG   =    1.300    factor for augmentation sphere                                              
   RDEP   =    2.392    radius for radial grids                                                     
   RDEPT  =    2.170    core radius for aug-charge                                                  
                                                                                                    
   Atomic configuration                                                                             
   13 entries                                                                                       
     n  l   j            E        occ.                                                              
     1  0  0.50    -32976.3739   2.0000                                                             
     2  0  0.50     -5094.5933   2.0000                                                             
     2  1  1.50     -4572.0131   6.0000                                                             
     3  0  0.50     -1028.2813   2.0000                                                             
     3  1  1.50      -859.0250   6.0000                                                             
     3  2  2.50      -605.7620  10.0000                                                             
     4  0  0.50      -180.5540   2.0000                                                             
     4  1  1.50      -127.5306   6.0000                                                             
     4  2  2.50       -50.2720  10.0000                                                             
     5  0  0.50       -17.4058   2.0000                                                             
     5  1  0.50        -7.0851   5.0000                                                             
     5  2  1.50        -7.0750   0.0000                                                             
     4  3  2.50        -7.0750   0.0000                                                             
   Description                                                                                      
     l       E           TYP  RCUT    TYP  RCUT                                                     
     0    -17.4058016     23  2.300                                                                 
     0    -18.7663842     23  2.300                                                                 
     1     -7.0850686     23  2.300                                                                 
     1     -4.2150896     23  2.300                                                                 
     2     -7.0750295     23  2.300                                                                 
     3     -1.3605826     23  2.300                                                                 
  local pseudopotential read in
  partial core-charges read in
  partial kinetic energy density read in
  atomic valenz-charges read in
  non local Contribution for L=            0  read in
    real space projection operators read in
  non local Contribution for L=            0  read in
    real space projection operators read in
  non local Contribution for L=            1  read in
    real space projection operators read in
  non local Contribution for L=            1  read in
    real space projection operators read in
  non local Contribution for L=            2  read in
    real space projection operators read in
    PAW grid and wavefunctions read in
 
   number of l-projection  operators is LMAX  =            5
   number of lm-projection operators is LMMAX =           13
 
 POTCAR:    PAW_PBE Pb 08Apr2002                  
   SHA256 =  797118a27cf1bcd06b9881c67a26cdde129e3cd1a551dd4a281f9681ce847303 Pb/POTCAR             
   COPYR  = (c) Copyright 08Apr2002 Georg Kresse                                                    
   COPYR  = This file is part of the software VASP. Any use, copying, and all other rights are regul
   COPYR  = If you do not have a valid VASP license, you may not use, copy or distribute this file. 
   VRHFIN =Pb:                                                                                      
   LEXCH  = PE                                                                                      
   EATOM  =    96.9868 eV,    7.1283 Ry                                                             
                                                                                                    
   TITEL  = PAW_PBE Pb 08Apr2002                                                                    
   LULTRA =        F    use ultrasoft PP ?                                                          
   IUNSCR =        1    unscreen: 0-lin 1-nonlin 2-no                                               
   RPACOR =    2.200    partial core radius                                                         
   POMASS =  207.200; ZVAL   =    4.000    mass and valenz                                          
   RCORE  =    3.100    outmost cutoff radius                                                       
   RWIGS  =    3.260; RWIGS  =    1.725    wigner-seitz radius (au A)                               
   ENMAX  =   97.973; ENMIN  =   73.480 eV                                                          
   ICORE  =        3    local potential                                                             
   LCOR   =        T    correct aug charges                                                         
   LPAW   =        T    paw PP                                                                      
   EAUG   =  234.873                                                                                
   DEXC   =    0.000                                                                                
   RMAX   =    3.158    core radius for proj-oper                                                   
   RAUG   =    1.300    factor for augmentation sphere                                              
   RDEP   =    3.202    radius for radial grids                                                     
   RDEPT  =    2.659    core radius for aug-charge                                                  
                                                                                                    
   Atomic configuration                                                                             
   17 entries                                                                                       
     n  l   j            E        occ.                                                              
     1  0  0.50    -88091.8466   2.0000                                                             
     2  0  0.50    -15753.4197   2.0000                                                             
     2  1  1.50    -13508.1797   6.0000                                                             
     3  0  0.50     -3781.7194   2.0000                                                             
     3  1  1.50     -3138.2529   6.0000                                                             
     3  2  2.50     -2483.2977  10.0000                                                             
     4  0  0.50      -856.2895   2.0000                                                             
     4  1  1.50      -645.4943   6.0000                                                             
     4  2  2.50      -401.8768  10.0000                                                             
     4  3  3.50      -132.9059  14.0000                                                             
     5  0  0.50      -144.0950   2.0000                                                             
     5  1  1.50       -85.7879   6.0000                                                             
     5  2  2.50       -21.1769  10.0000                                                             
     6  0  0.50       -12.0372   2.0000                                                             
     6  1  1.50        -3.4971   2.0000                                                             
     6  2  2.50        -1.3606   0.0000                                                             
     5  3  2.50        -2.7212   0.0000                                                             
   Description                                                                                      
     l       E           TYP  RCUT    TYP  RCUT                                                     
     0    -12.0371566     23  3.100                                                                 
     0    -13.3977392     23  3.100                                                                 
     1     -3.4971341     23  3.100                                                                 
     1     -5.4423304     23  3.100                                                                 
     2     -1.3605826     23  3.100                                                                 
     3     -1.3605826     23  3.100                                                                 
  local pseudopotential read in
  partial core-charges read in
  partial kinetic energy density read in
  atomic valenz-charges read in
  non local Contribution for L=            0  read in
    real space projection operators read in
  non local Contribution for L=            0  read in
    real space projection operators read in
  non local Contribution for L=            1  read in
    real space projection operators read in
  non local Contribution for L=            1  read in
    real space projection operators read in
  non local Contribution for L=            2  read in
    real space projection operators read in
    PAW grid and wavefunctions read in
 
   number of l-projection  operators is LMAX  =            5
   number of lm-projection operators is LMMAX =           13
 
 Optimization of the real space projectors (new method)

 maximal supplied QI-value         = 34.20
 optimisation between [QCUT,QGAM] = [ 11.29, 22.57] = [ 35.68,142.71] Ry 
 Optimized for a Real-space Cutoff    1.16 Angstroem

   l    n(q)    QCUT    max X(q) W(low)/X(q) W(high)/X(q)  e(spline) 
   0      8    11.287    19.460    0.40E-03    0.73E-03    0.16E-06
   0      8    11.287    12.209    0.38E-03    0.70E-03    0.15E-06
   1      7    11.287     4.655    0.22E-03    0.25E-04    0.22E-06
 Optimization of the real space projectors (new method)

 maximal supplied QI-value         = 25.13
 optimisation between [QCUT,QGAM] = [ 11.31, 22.87] = [ 35.82,146.48] Ry 
 Optimized for a Real-space Cutoff    1.00 Angstroem

   l    n(q)    QCUT    max X(q) W(low)/X(q) W(high)/X(q)  e(spline) 
   0      7    11.310   115.676    0.43E-03    0.13E-02    0.19E-06
   0      7    11.310    87.132    0.43E-03    0.13E-02    0.18E-06
   1      6    11.310     4.429    0.42E-03    0.74E-03    0.11E-06
   1      6    11.310     2.733    0.34E-03    0.55E-03    0.92E-07
 Optimization of the real space projectors (new method)

 maximal supplied QI-value         = 25.13
 optimisation between [QCUT,QGAM] = [ 11.31, 22.87] = [ 35.82,146.48] Ry 
 Optimized for a Real-space Cutoff    1.27 Angstroem

   l    n(q)    QCUT    max X(q) W(low)/X(q) W(high)/X(q)  e(spline) 
   0      9    11.310    79.467    0.75E-04    0.16E-03    0.36E-06
   0      9    11.310    66.151    0.74E-04    0.16E-03    0.36E-06
   1      8    11.310    17.416    0.35E-03    0.12E-03    0.95E-06
   1      8    11.310    12.382    0.37E-03    0.13E-03    0.98E-06
 Optimization of the real space projectors (new method)

 maximal supplied QI-value         = 16.25
 optimisation between [QCUT,QGAM] = [ 11.38, 22.75] = [ 36.24,144.96] Ry 
 Optimized for a Real-space Cutoff    1.31 Angstroem

   l    n(q)    QCUT    max X(q) W(low)/X(q) W(high)/X(q)  e(spline) 
   0      9    11.376   194.483    0.24E-03    0.23E-03    0.67E-07
   0      9    11.376   190.334    0.23E-03    0.22E-03    0.65E-07
   1      8    11.376   116.687    0.25E-03    0.63E-04    0.16E-06
   1      8    11.376    88.696    0.25E-03    0.61E-04    0.16E-06
   2      8    11.376     4.877    0.17E-03    0.14E-03    0.29E-07
 Optimization of the real space projectors (new method)

 maximal supplied QI-value         = 12.09
 optimisation between [QCUT,QGAM] = [ 11.37, 22.86] = [ 36.19,146.31] Ry 
 Optimized for a Real-space Cutoff    1.66 Angstroem

   l    n(q)    QCUT    max X(q) W(low)/X(q) W(high)/X(q)  e(spline) 
   0     11    11.369   135.111    0.12E-03    0.69E-04    0.19E-05
   0     11    11.369   146.850    0.11E-03    0.65E-04    0.18E-05
   1     11    11.369   148.016    0.17E-03    0.32E-03    0.89E-06
   1     11    11.369   122.989    0.17E-03    0.32E-03    0.91E-06
   2     10    11.369     8.916    0.12E-03    0.45E-04    0.33E-06
  PAW_PBE H 15Jun2001                   :
 energy of atom  1       EATOM=  -12.4884
 kinetic energy error for atom=    0.0020 (will be added to EATOM!!)
  PAW_PBE C 08Apr2002                   :
 energy of atom  2       EATOM= -147.1560
 kinetic energy error for atom=    0.0076 (will be added to EATOM!!)
  PAW_PBE N 08Apr2002                   :
 energy of atom  3       EATOM= -264.5486
 kinetic energy error for atom=    0.0138 (will be added to EATOM!!)
  PAW_PBE I 08Apr2002                   :
 energy of atom  4       EATOM= -315.8678
 kinetic energy error for atom=    0.0009 (will be added to EATOM!!)
  PAW_PBE Pb 08Apr2002                  :
 energy of atom  5       EATOM=  -96.9868
 kinetic energy error for atom=    0.0000 (will be added to EATOM!!)
 
 
 POSCAR:  H  C  N  I Pb
  positions in cartesian coordinates
  No initial velocities read in
 exchange correlation table for  LEXCH =        8
   RHO(1)=    0.500       N(1)  =     2000
   RHO(2)=  100.500       N(2)  =     4000
 


--------------------------------------------------------------------------------------------------------


 ion  position               nearest neighbor table
   1  0.453  0.335  0.564- 187 1.03
   2  0.432  0.830  0.570- 188 1.02
   3  0.961  0.329  0.576- 189 1.03
   4  0.945  0.816  0.573- 190 1.03
   5  0.332  0.955  0.572- 194 1.03
   6  0.352  0.550  0.558- 195 1.03
   7  0.806  0.088  0.565- 196 1.03
   8  0.010  0.143  0.560- 183 1.02
   9  0.071  0.661  0.570- 184 1.02
  10  0.552  0.160  0.558- 185 1.03
  11  0.497  0.644  0.559- 186 1.02
  12  0.364  0.028  0.557- 194 1.03
  13  0.296  0.628  0.553- 195 1.04
  14  0.878  0.026  0.558- 196 1.03
  15  0.955  0.193  0.578- 183 1.04
  16  0.992  0.690  0.583- 184 1.04
  17  0.566  0.251  0.567- 185 1.03
  18  0.435  0.694  0.575- 186 1.03
  19  0.281  0.439  0.572- 191 1.03
  20  0.200  0.928  0.572- 192 1.02
  21  0.681  0.032  0.570- 193 1.02
  22  0.373  0.292  0.555- 187 1.03
  23  0.499  0.869  0.553- 188 1.03
  24  0.019  0.369  0.557- 189 1.03
  25  0.994  0.866  0.554- 190 1.03
  26  0.184  0.443  0.569- 191 1.02
  27  0.140  0.990  0.560- 192 1.04
  28  0.674  0.937  0.563- 193 1.03
  29  0.431  0.180  0.548- 146 1.09
  30  0.547  0.752  0.544- 147 1.09
  31  0.062  0.252  0.545- 144 1.09
  32  0.084  0.771  0.550- 145 1.09
  33  0.185  0.562  0.557- 148 1.10
  34  0.241  0.064  0.548- 149 1.10
  35  0.797  0.926  0.555- 150 1.09
  36  0.486  0.340  0.661- 205 1.02
  37  0.450  0.811  0.674- 206 1.02
  38  0.965  0.284  0.676- 207 1.02
  39  0.930  0.724  0.673- 208 1.02
  40  0.309  0.057  0.670- 209 1.02
  41  0.298  0.548  0.675- 210 1.02
  42  0.801  0.056  0.674- 211 1.03
  43  0.761  0.597  0.657- 212 1.02
  44  0.086  0.163  0.645- 197 1.02
  45  0.116  0.720  0.651- 198 1.02
  46  0.570  0.159  0.652- 199 1.01
  47  0.564  0.664  0.650- 200 1.02
  48  0.177  0.414  0.648- 201 1.03
  49  0.173  0.920  0.651- 202 1.03
  50  0.699  0.406  0.660- 203 1.02
  51  0.674  0.920  0.650- 204 1.03
  52  0.063  0.182  0.671- 197 1.02
  53  0.060  0.676  0.669- 198 1.02
  54  0.594  0.248  0.659- 199 1.02
  55  0.533  0.695  0.676- 200 1.03
  56  0.199  0.443  0.674- 201 1.02
  57  0.207  0.955  0.675- 202 1.02
  58  0.665  0.497  0.662- 203 1.02
  59  0.698  0.957  0.675- 204 1.02
  60  0.399  0.301  0.657- 205 1.02
  61  0.436  0.845  0.648- 206 1.02
  62  0.937  0.325  0.653- 207 1.02
  63  0.905  0.795  0.656- 208 1.02
  64  0.330  0.076  0.643- 209 1.02
  65  0.329  0.577  0.650- 210 1.03
  66  0.834  0.076  0.649- 211 1.02
  67  0.850  0.567  0.651- 212 1.01
  68  0.009  0.253  0.631- 151 1.09
  69  0.023  0.801  0.640- 152 1.10
  70  0.445  0.183  0.650- 153 1.09
  71  0.506  0.755  0.632- 154 1.08
  72  0.246  0.992  0.629- 156 1.09
  73  0.258  0.495  0.631- 155 1.09
  74  0.758  0.991  0.632- 158 1.09
  75  0.819  0.442  0.652- 157 1.10
  76  0.449  0.301  0.769- 221 1.02
  77  0.449  0.801  0.769- 222 1.02
  78  0.949  0.301  0.769- 223 1.02
  79  0.949  0.801  0.769- 224 1.02
  80  0.301  0.051  0.769- 225 1.02
  81  0.301  0.551  0.769- 226 1.02
  82  0.801  0.051  0.769- 227 1.02
  83  0.801  0.551  0.769- 228 1.02
  84  0.079  0.171  0.743- 213 1.02
  85  0.079  0.671  0.743- 214 1.02
  86  0.579  0.171  0.743- 215 1.02
  87  0.579  0.671  0.743- 216 1.02
  88  0.171  0.421  0.743- 217 1.02
  89  0.171  0.921  0.743- 218 1.02
  90  0.671  0.421  0.743- 219 1.02
  91  0.671  0.921  0.743- 220 1.02
  92  0.051  0.199  0.769- 213 1.02
  93  0.051  0.699  0.769- 214 1.02
  94  0.551  0.199  0.769- 215 1.02
  95  0.551  0.699  0.769- 216 1.02
  96  0.199  0.449  0.769- 217 1.02
  97  0.199  0.949  0.769- 218 1.02
  98  0.699  0.449  0.769- 219 1.02
  99  0.699  0.949  0.769- 220 1.02
 100  0.421  0.329  0.743- 221 1.02
 101  0.421  0.829  0.743- 222 1.02
 102  0.921  0.329  0.743- 223 1.02
 103  0.921  0.829  0.743- 224 1.02
 104  0.329  0.079  0.743- 225 1.02
 105  0.329  0.579  0.743- 226 1.02
 106  0.829  0.079  0.743- 227 1.02
 107  0.829  0.579  0.743- 228 1.02
 108  0.000  0.250  0.726- 161 1.09
 109  0.000  0.750  0.726- 162 1.09
 110  0.500  0.250  0.726- 159 1.09
 111  0.500  0.750  0.726- 160 1.09
 112  0.250  0.000  0.726- 163 1.09
 113  0.250  0.500  0.726- 164 1.09
 114  0.750  0.000  0.726- 165 1.09
 115  0.750  0.500  0.726- 166 1.09
 116  0.776  0.557  0.520- 173 1.09
 117  0.719  0.479  0.525- 173 1.09
 118  0.868  0.501  0.539- 174 1.09
 119  0.859  0.482  0.566- 174 1.10
 120  0.745  0.642  0.560- 175 1.10
 121  0.813  0.597  0.576- 175 1.09
 122  0.667  0.547  0.569- 176 1.10
 123  0.681  0.454  0.560- 176 1.10
 124  0.617  0.559  0.537- 177 1.10
 125  0.674  0.639  0.535- 177 1.11
 126  0.607  0.646  0.504- 178 1.10
 127  0.687  0.603  0.494- 178 1.10
 128  0.786  0.389  0.530- 179 1.09
 129  0.778  0.372  0.558- 179 1.09
 130  0.865  0.367  0.545- 179 1.09
 131  0.863  0.696  0.553- 180 1.10
 132  0.841  0.647  0.530- 180 1.10
 133  0.907  0.609  0.548- 180 1.10
 134  0.770  0.528  0.597- 181 1.10
 135  0.773  0.434  0.589- 181 1.10
 136  0.692  0.471  0.600- 181 1.10
 137  0.537  0.529  0.505- 182 1.11
 138  0.575  0.546  0.479- 182 1.10
 139  0.702  0.480  0.470- 168 1.10
 140  0.557  0.415  0.521- 169 1.09
 141  0.765  0.359  0.472- 170 1.09
 142  0.620  0.293  0.523- 171 1.09
 143  0.726  0.265  0.499- 172 1.09
 144  0.019  0.255  0.557-  31 1.09 183 1.31 189 1.31
 145  0.036  0.763  0.561-  32 1.09 184 1.31 190 1.32
 146  0.463  0.227  0.555-  29 1.09 187 1.31 185 1.31
 147  0.500  0.756  0.555-  30 1.09 188 1.32 186 1.32
 148  0.239  0.535  0.560-  33 1.10 195 1.31 191 1.32
 149  0.251  0.014  0.557-  34 1.10 194 1.31 192 1.31
 150  0.777  0.980  0.560-  35 1.09 193 1.31 196 1.31
 151  0.011  0.244  0.648-  68 1.09 207 1.31 197 1.31
 152  0.011  0.760  0.652-  69 1.10 208 1.31 198 1.32
 153  0.483  0.228  0.654-  70 1.09 205 1.31 199 1.32
 154  0.500  0.754  0.649-  71 1.08 206 1.31 200 1.31
 155  0.254  0.496  0.649-  73 1.09 210 1.31 201 1.31
 156  0.251  0.998  0.647-  72 1.09 202 1.31 209 1.31
 157  0.776  0.485  0.655-  75 1.10 203 1.31 212 1.31
 158  0.754  0.997  0.649-  74 1.09 204 1.31 211 1.32
 159  0.500  0.250  0.743- 110 1.09 221 1.31 215 1.31
 160  0.500  0.750  0.743- 111 1.09 222 1.31 216 1.31
 161  1.000  0.250  0.743- 108 1.09 223 1.31 213 1.31
 162  1.000  0.750  0.743- 109 1.09 224 1.31 214 1.31
 163  0.250  0.000  0.743- 112 1.09 225 1.31 218 1.31
 164  0.250  0.500  0.743- 113 1.09 226 1.31 217 1.31
 165  0.750  0.000  0.743- 114 1.09 227 1.31 220 1.31
 166  0.750  0.500  0.743- 115 1.09 228 1.31 219 1.31
 167  0.625  0.456  0.495- 169 1.40 168 1.40 182 1.51
 168  0.684  0.439  0.482- 139 1.10 170 1.39 167 1.40
 169  0.603  0.402  0.510- 140 1.09 171 1.40 167 1.40
 170  0.719  0.371  0.483- 141 1.09 168 1.39 172 1.40
 171  0.638  0.334  0.511- 142 1.09 172 1.40 169 1.40
 172  0.697  0.318  0.498- 143 1.09 171 1.40 170 1.40
 173  0.732  0.536  0.530- 116 1.09 117 1.09 229 1.51 177 1.52
 174  0.831  0.478  0.551- 118 1.09 119 1.10 179 1.51 229 1.52
 175  0.793  0.605  0.559- 121 1.09 120 1.10 180 1.51 229 1.52
 176  0.707  0.503  0.568- 122 1.10 123 1.10 181 1.51 229 1.53
 177  0.663  0.583  0.528- 124 1.10 125 1.11 173 1.52 178 1.54
 178  0.638  0.594  0.504- 126 1.10 127 1.10 177 1.54 182 1.54
 179  0.813  0.398  0.545- 129 1.09 128 1.09 130 1.09 174 1.51
 180  0.855  0.640  0.547- 132 1.10 133 1.10 131 1.10 175 1.51
 181  0.738  0.483  0.589- 134 1.10 135 1.10 136 1.10 176 1.51
 182  0.590  0.532  0.495- 138 1.10 137 1.11 167 1.51 178 1.54
 183  0.994  0.193  0.566-   8 1.02  15 1.04 144 1.31
 184  0.033  0.701  0.572-   9 1.02  16 1.04 145 1.31
 185  0.533  0.214  0.559-  10 1.03  17 1.03 146 1.31
 186  0.474  0.695  0.563-  11 1.02  18 1.03 147 1.32
 187  0.429  0.290  0.557-   1 1.03  22 1.03 146 1.31
 188  0.473  0.823  0.559-   2 1.02  23 1.03 147 1.32
 189  0.995  0.321  0.563-  24 1.03   3 1.03 144 1.31
 190  0.985  0.815  0.562-   4 1.03  25 1.03 145 1.32
 191  0.236  0.466  0.566-  26 1.02  19 1.03 148 1.32
 192  0.194  0.974  0.563-  20 1.02  27 1.04 149 1.31
 193  0.705  0.985  0.564-  21 1.02  28 1.03 150 1.31
 194  0.319  0.997  0.562-   5 1.03  12 1.03 149 1.31
 195  0.300  0.573  0.557-   6 1.03  13 1.04 148 1.31
 196  0.824  0.035  0.562-   7 1.03  14 1.03 150 1.31
 197  0.056  0.193  0.656-  52 1.02  44 1.02 151 1.31
 198  0.065  0.714  0.657-  53 1.02  45 1.02 152 1.32
 199  0.554  0.211  0.656-  46 1.01  54 1.02 153 1.32
 200  0.534  0.701  0.659-  47 1.02  55 1.03 154 1.31
 201  0.207  0.449  0.658-  56 1.02  48 1.03 155 1.31
 202  0.208  0.956  0.658-  57 1.02  49 1.03 156 1.31
 203  0.708  0.462  0.659-  50 1.02  58 1.02 157 1.31
 204  0.706  0.956  0.659-  59 1.02  51 1.03 158 1.31
 205  0.455  0.294  0.658-  60 1.02  36 1.02 153 1.31
 206  0.460  0.806  0.658-  61 1.02  37 1.02 154 1.31
 207  0.968  0.287  0.660-  62 1.02  38 1.02 151 1.31
 208  0.945  0.761  0.661-  63 1.02  39 1.02 152 1.31
 209  0.300  0.046  0.654-  40 1.02  64 1.02 156 1.31
 210  0.296  0.543  0.659-  41 1.02  65 1.03 155 1.31
 211  0.799  0.046  0.658-  66 1.02  42 1.03 158 1.32
 212  0.797  0.554  0.655-  67 1.01  43 1.02 157 1.31
 213  0.046  0.204  0.753-  92 1.02  84 1.02 161 1.31
 214  0.046  0.704  0.753-  93 1.02  85 1.02 162 1.31
 215  0.546  0.204  0.753-  94 1.02  86 1.02 159 1.31
 216  0.546  0.704  0.753-  95 1.02  87 1.02 160 1.31
 217  0.204  0.454  0.753-  96 1.02  88 1.02 164 1.31
 218  0.204  0.954  0.753-  97 1.02  89 1.02 163 1.31
 219  0.704  0.454  0.753-  98 1.02  90 1.02 166 1.31
 220  0.704  0.954  0.753-  99 1.02  91 1.02 165 1.31
 221  0.454  0.296  0.753-  76 1.02 100 1.02 159 1.31
 222  0.454  0.796  0.753-  77 1.02 101 1.02 160 1.31
 223  0.954  0.296  0.753-  78 1.02 102 1.02 161 1.31
 224  0.954  0.796  0.753-  79 1.02 103 1.02 162 1.31
 225  0.296  0.046  0.753-  80 1.02 104 1.02 163 1.31
 226  0.296  0.546  0.753-  81 1.02 105 1.02 164 1.31
 227  0.796  0.046  0.753-  82 1.02 106 1.02 165 1.31
 228  0.796  0.546  0.753-  83 1.02 107 1.02 166 1.31
 229  0.765  0.530  0.552- 173 1.51 174 1.52 175 1.52 176 1.53
 230  0.513  0.018  0.552- 304 3.24
 231  0.481  0.495  0.555- 305 3.14
 232  0.010  0.005  0.548- 302 3.52
 233  0.038  0.507  0.553- 303 3.27
 234  0.237  0.242  0.552- 306 3.15
 235  0.256  0.766  0.554- 307 3.17
 236  0.738  0.203  0.555- 308 3.10
 237  0.701  0.792  0.554- 309 3.20
 238  0.001  0.983  0.653- 302 3.06 310 3.23
 239  0.997  0.506  0.655- 311 3.13 303 3.13
 240  0.498  0.012  0.654- 304 3.16 312 3.18
 241  0.509  0.490  0.655- 313 3.12 305 3.15
 242  0.260  0.246  0.654- 314 3.17 306 3.25
 243  0.259  0.754  0.655- 315 3.14 307 3.18
 244  0.748  0.265  0.655- 316 3.16 308 3.26
 245  0.746  0.750  0.655- 317 3.14 309 3.21
 246  0.136  0.112  0.607- 306 3.18 302 3.20
 247  0.151  0.604  0.608- 307 3.14 303 3.18
 248  0.648  0.105  0.610- 308 3.12 304 3.16
 249  0.616  0.628  0.609- 309 3.20 305 3.26
 250  0.359  0.387  0.605- 305 3.15 306 3.24
 251  0.375  0.880  0.606- 304 3.28 307 3.29
 252  0.890  0.365  0.609- 303 3.29 308 3.43
 253  0.870  0.877  0.605- 302 3.22 309 3.24
 254  0.123  0.368  0.610- 306 3.18 303 3.24
 255  0.124  0.865  0.607- 307 3.20 302 3.28
 256  0.593  0.338  0.601- 308 3.19 305 3.27
 257  0.617  0.872  0.613- 309 3.10 304 3.22
 258  0.386  0.134  0.604- 304 3.15 306 3.22
 259  0.385  0.628  0.611- 307 3.22 305 3.22
 260  0.887  0.133  0.610- 302 3.20 308 3.33
 261  0.896  0.645  0.610- 303 3.26 309 3.50
 262  0.000  0.000  0.755- 310 3.13 318 3.27
 263  0.000  0.500  0.755- 311 3.13 319 3.27
 264  0.500  0.000  0.755- 312 3.13 320 3.27
 265  0.500  0.500  0.755- 313 3.13 321 3.27
 266  0.250  0.250  0.755- 314 3.13 322 3.27
 267  0.250  0.750  0.755- 315 3.13 323 3.27
 268  0.750  0.250  0.755- 316 3.13 324 3.27
 269  0.750  0.750  0.755- 317 3.13 325 3.27
 270  0.136  0.114  0.705- 310 3.20 314 3.20
 271  0.136  0.614  0.705- 311 3.20 315 3.20
 272  0.636  0.114  0.705- 312 3.20 316 3.20
 273  0.636  0.614  0.705- 313 3.20 317 3.20
 274  0.364  0.386  0.705- 313 3.20 314 3.20
 275  0.364  0.886  0.705- 312 3.20 315 3.20
 276  0.864  0.386  0.705- 311 3.20 316 3.20
 277  0.864  0.886  0.705- 310 3.20 317 3.20
 278  0.114  0.364  0.705- 314 3.21 311 3.21
 279  0.114  0.864  0.705- 315 3.21 310 3.21
 280  0.614  0.364  0.705- 316 3.21 313 3.21
 281  0.614  0.864  0.705- 317 3.21 312 3.21
 282  0.386  0.136  0.705- 314 3.21 312 3.21
 283  0.386  0.636  0.705- 315 3.21 313 3.21
 284  0.886  0.136  0.705- 316 3.21 310 3.21
 285  0.886  0.636  0.705- 317 3.21 311 3.21
 286  0.135  0.115  0.801- 318 3.22 322 3.22
 287  0.135  0.615  0.801- 319 3.22 323 3.22
 288  0.635  0.115  0.801- 320 3.22 324 3.22
 289  0.635  0.615  0.801- 321 3.22 325 3.22
 290  0.365  0.385  0.801- 321 3.22 322 3.22
 291  0.365  0.885  0.801- 320 3.22 323 3.22
 292  0.865  0.385  0.801- 319 3.22 324 3.22
 293  0.865  0.885  0.801- 318 3.22 325 3.22
 294  0.115  0.365  0.801- 319 3.23 322 3.23
 295  0.115  0.865  0.801- 318 3.23 323 3.23
 296  0.615  0.365  0.801- 321 3.23 324 3.23
 297  0.615  0.865  0.801- 320 3.23 325 3.23
 298  0.385  0.135  0.801- 320 3.23 322 3.23
 299  0.385  0.635  0.801- 321 3.23 323 3.23
 300  0.885  0.135  0.801- 318 3.23 324 3.23
 301  0.885  0.635  0.801- 319 3.23 325 3.23
 302  0.000  0.998  0.605- 238 3.06 260 3.20 246 3.20 253 3.22 255 3.28 232 3.52
 303  0.007  0.504  0.605- 239 3.13 247 3.18 254 3.24 261 3.26 233 3.27 252 3.29
 304  0.505  0.007  0.604- 258 3.15 248 3.16 240 3.16 257 3.22 230 3.24 251 3.28
 305  0.499  0.492  0.605- 231 3.14 241 3.15 250 3.15 259 3.22 249 3.26 256 3.27
 306  0.248  0.247  0.602- 234 3.15 246 3.18 254 3.18 258 3.22 250 3.24 242 3.25
 307  0.253  0.745  0.604- 247 3.14 235 3.17 243 3.18 255 3.20 259 3.22 251 3.29
 308  0.744  0.246  0.603- 236 3.10 248 3.12 256 3.19 244 3.26 260 3.33 252 3.43
 309  0.738  0.755  0.603- 257 3.10 249 3.20 237 3.20 245 3.21 253 3.24 261 3.50
 310  0.000  0.000  0.705- 262 3.13 270 3.20 277 3.20 279 3.21 284 3.21 238 3.23
 311  0.000  0.500  0.705- 239 3.13 263 3.13 271 3.20 276 3.20 278 3.21 285 3.21
 312  0.500  0.000  0.705- 264 3.13 240 3.18 272 3.20 275 3.20 281 3.21 282 3.21
 313  0.500  0.500  0.705- 241 3.12 265 3.13 273 3.20 274 3.20 280 3.21 283 3.21
 314  0.250  0.250  0.705- 266 3.13 242 3.17 270 3.20 274 3.20 282 3.21 278 3.21
 315  0.250  0.750  0.705- 267 3.13 243 3.14 271 3.20 275 3.20 283 3.21 279 3.21
 316  0.750  0.250  0.705- 268 3.13 244 3.16 272 3.20 276 3.20 284 3.21 280 3.21
 317  0.750  0.750  0.705- 269 3.13 245 3.14 273 3.20 277 3.20 285 3.21 281 3.21
 318  0.000  0.000  0.807- 286 3.22 293 3.22 300 3.23 295 3.23 262 3.27
 319  0.000  0.500  0.807- 287 3.22 292 3.22 301 3.23 294 3.23 263 3.27
 320  0.500  0.000  0.807- 288 3.22 291 3.22 298 3.23 297 3.23 264 3.27
 321  0.500  0.500  0.807- 289 3.22 290 3.22 299 3.23 296 3.23 265 3.27
 322  0.250  0.250  0.807- 290 3.22 286 3.22 294 3.23 298 3.23 266 3.27
 323  0.250  0.750  0.807- 291 3.22 287 3.22 299 3.23 295 3.23 267 3.27
 324  0.750  0.250  0.807- 292 3.22 288 3.22 296 3.23 300 3.23 268 3.27
 325  0.750  0.750  0.807- 293 3.22 289 3.22 297 3.23 301 3.23 269 3.27
 

IMPORTANT INFORMATION: All symmetrisations will be switched off!
NOSYMM: (Re-)initialisation of all symmetry stuff for point group C_1.


----------------------------------------------------------------------------------------

                                     Primitive cell                                     

  volume of cell :   20385.2105

  direct lattice vectors                    reciprocal lattice vectors
    18.060800552  0.000000000  0.000000000     0.055368531  0.000015077 -0.000000000
    -0.004918649 18.062799454  0.000000000     0.000000000  0.055362404  0.000000000
     0.000000000  0.000000000 62.487499237     0.000000000 -0.000000000  0.016003201

  length of vectors
    18.060800552 18.062800123 62.487499237     0.055368533  0.055362404  0.016003201

  position of ions in fractional coordinates (direct lattice)
     0.452514085  0.335417285  0.564492239
     0.431776445  0.829943826  0.569649581
     0.961009841  0.328763138  0.576059921
     0.945060681  0.815979362  0.573172442
     0.332432959  0.955198414  0.572391402
     0.351622061  0.549577729  0.558278960
     0.806050024  0.087965659  0.564974940
     0.010447454  0.143316434  0.559675846
     0.071404552  0.661184048  0.569774790
     0.552261300  0.160322336  0.557722269
     0.496500643  0.644245753  0.559347716
     0.363586872  0.028413430  0.556648690
     0.295726568  0.628457867  0.553203177
     0.878384958  0.026077041  0.557640893
     0.954511512  0.192621701  0.577733474
     0.991751499  0.690031551  0.582989286
     0.566233931  0.250943627  0.567171425
     0.434630516  0.693976437  0.574993302
     0.280607978  0.438601710  0.572238966
     0.199924017  0.927665359  0.572409167
     0.681356630  0.031794450  0.569809037
     0.372562575  0.291513672  0.554699203
     0.498847040  0.869420722  0.553057151
     0.018550578  0.368603862  0.556922610
     0.994367709  0.865715009  0.554237014
     0.184479443  0.443124625  0.568874219
     0.140124659  0.990282228  0.559736344
     0.674216256  0.936928445  0.563145229
     0.431385800  0.180495296  0.548276654
     0.547117367  0.752183475  0.543706526
     0.062315836  0.251844039  0.545337712
     0.083568452  0.770813831  0.550242685
     0.185408904  0.562076107  0.556638739
     0.240771058  0.064306711  0.547722588
     0.796994188  0.925772647  0.555012560
     0.486139176  0.339699733  0.661241204
     0.449580160  0.811218804  0.673511175
     0.965022173  0.283966531  0.676341148
     0.930340608  0.724433003  0.672891300
     0.309039122  0.056732940  0.669613179
     0.297862836  0.548362485  0.675134913
     0.800670486  0.056100707  0.674387449
     0.761283174  0.597495974  0.656864535
     0.086198252  0.163064847  0.644757316
     0.116389419  0.720496301  0.650917057
     0.570066159  0.158692630  0.652408077
     0.564309077  0.663516545  0.650497539
     0.177182685  0.414257270  0.647762922
     0.172961490  0.919788780  0.650778479
     0.698562122  0.406137142  0.660053772
     0.674174990  0.920158311  0.650405541
     0.063052779  0.181813021  0.671395151
     0.059592981  0.675949189  0.669260081
     0.593978285  0.248415594  0.659495371
     0.533218022  0.694502883  0.675515238
     0.198853030  0.443218816  0.673723132
     0.207452594  0.955412452  0.674665215
     0.665109925  0.496532036  0.662115463
     0.697553544  0.956978247  0.675341192
     0.398586940  0.300547333  0.656826991
     0.435694348  0.844526710  0.647787769
     0.936581623  0.325402590  0.652571318
     0.904923501  0.794880925  0.655535107
     0.329772744  0.075610033  0.642900072
     0.329072474  0.577239290  0.650164770
     0.833816116  0.075873619  0.648718863
     0.849813880  0.567115437  0.651118513
     0.009244128  0.252883943  0.631045162
     0.022585770  0.800957782  0.639668652
     0.444898600  0.183412501  0.649841524
     0.506265586  0.754701398  0.631507230
     0.246382289  0.991828900  0.629356348
     0.257657623  0.494610463  0.631353573
     0.758066410  0.990919274  0.631862525
     0.818673337  0.442366952  0.652339094
     0.448745018  0.301283966  0.768889017
     0.448745007  0.801283913  0.768889017
     0.948744965  0.301283966  0.768889017
     0.948745007  0.801283913  0.768889017
     0.301275995  0.051294496  0.768872961
     0.301276011  0.551294499  0.768872961
     0.801275943  0.051294496  0.768872961
     0.801275984  0.551294499  0.768872961
     0.078771004  0.171180501  0.743441971
     0.078771006  0.671180448  0.743441971
     0.578771004  0.171180501  0.743441971
     0.578770992  0.671180448  0.743441971
     0.171199499  0.421174482  0.743421032
     0.171199501  0.921174508  0.743421032
     0.671199512  0.421174482  0.743421032
     0.671199501  0.921174508  0.743421032
     0.051256000  0.198714991  0.768889017
     0.051256002  0.698714925  0.768889017
     0.551256027  0.198714991  0.768889017
     0.551256016  0.698714925  0.768889017
     0.198723491  0.448703970  0.768872046
     0.198723493  0.948703970  0.768872046
     0.698723518  0.448703970  0.768872046
     0.698723507  0.948703970  0.768872046
     0.421231519  0.328817467  0.743441971
     0.421231508  0.828817440  0.743441971
     0.921231466  0.328817467  0.743441971
     0.921231508  0.828817440  0.743441971
     0.328800503  0.078824997  0.743421032
     0.328800492  0.578824964  0.743421032
     0.828800477  0.078824997  0.743421032
     0.828800519  0.578824964  0.743421032
     0.000003500  0.250001478  0.725821992
     0.000003500  0.750001452  0.725821992
     0.500003506  0.250001478  0.725821992
     0.500003495  0.750001452  0.725821992
     0.250000502  0.000000000  0.725803983
     0.250000517  0.500000000  0.725803983
     0.750000502  0.000000000  0.725803983
     0.750000490  0.500000000  0.725803983
     0.776169324  0.556920359  0.519546359
     0.719337519  0.478847762  0.524716644
     0.868365535  0.501096028  0.538558768
     0.859160605  0.481688912  0.566073732
     0.744738193  0.641531951  0.560071311
     0.812607770  0.596808231  0.575853459
     0.666583982  0.547307058  0.568976534
     0.680687454  0.454099631  0.560323558
     0.617249774  0.558503550  0.537138318
     0.673675819  0.638837050  0.534936889
     0.606517066  0.645687975  0.503641201
     0.686931312  0.602606369  0.494173487
     0.786412273  0.389439551  0.529958110
     0.778442908  0.372026658  0.557654629
     0.865478866  0.367293317  0.545073316
     0.863330909  0.696273137  0.553036273
     0.840540366  0.647006861  0.529568994
     0.906955265  0.609483217  0.547859212
     0.770212137  0.528235261  0.596806747
     0.773327794  0.433558077  0.589005748
     0.691688705  0.471360837  0.600017533
     0.537176363  0.528637632  0.504555171
     0.574530624  0.546196512  0.478777951
     0.701801512  0.480390616  0.469761042
     0.556844371  0.414850901  0.520859671
     0.764876323  0.358526417  0.471603299
     0.620342193  0.292798399  0.523062260
     0.725713289  0.264813900  0.498762753
     0.018661939  0.255174254  0.557414651
     0.036062148  0.763025695  0.560865659
     0.463149433  0.226747522  0.554877828
     0.500221814  0.756313101  0.554725149
     0.238602223  0.535135023  0.559852273
     0.250823416  0.014048027  0.557132307
     0.776689063  0.980073858  0.560049822
     0.011044543  0.244450064  0.648373030
     0.010991727  0.760417119  0.652308875
     0.482854044  0.228166540  0.654212454
     0.500161895  0.754033612  0.648769105
     0.253537479  0.495525553  0.648791815
     0.251399921  0.997649471  0.646687146
     0.776034543  0.484501974  0.655264362
     0.754480923  0.997433526  0.649215056
     0.499988984  0.249994984  0.743277021
     0.499989025  0.749994958  0.743277021
     0.999988984  0.249994984  0.743277021
     0.999989025  0.749994958  0.743277021
     0.250000502  0.000001000  0.743255960
     0.250000517  0.500001003  0.743255960
     0.750000502  0.000001000  0.743255960
     0.750000491  0.500001003  0.743255960
     0.625372228  0.456328961  0.495485120
     0.683953285  0.439113029  0.481662439
     0.602622707  0.402194975  0.510098669
     0.719376403  0.370733774  0.482567039
     0.638304496  0.333572005  0.511289703
     0.697207195  0.317770049  0.497588660
     0.731746687  0.535529000  0.529662519
     0.831020369  0.477575073  0.550557262
     0.793191584  0.605124978  0.559457357
     0.707303978  0.502568080  0.567618108
     0.662775233  0.583456590  0.527904965
     0.638416230  0.594162961  0.504481731
     0.813167381  0.397873008  0.545486606
     0.854716980  0.640310687  0.546524717
     0.738456902  0.483345862  0.589312999
     0.589528375  0.531699266  0.495363178
     0.993552236  0.193395451  0.565559774
     0.032756875  0.701434482  0.571859923
     0.533225805  0.213734789  0.559141071
     0.473952800  0.694696386  0.563068492
     0.428598165  0.289930005  0.557472402
     0.473190200  0.822620257  0.558649212
     0.995354461  0.321124234  0.562996395
     0.985315210  0.815433434  0.561553846
     0.235530987  0.465539890  0.565974896
     0.193789078  0.974057261  0.563163055
     0.705484461  0.984837287  0.563920897
     0.319393926  0.997410469  0.562052115
     0.299944999  0.572844251  0.557009114
     0.823878761  0.034993219  0.561876787
     0.055842302  0.192716697  0.655542127
     0.064688278  0.714071929  0.657325748
     0.553724824  0.211199958  0.655659765
     0.533889684  0.700712051  0.659200574
     0.206788892  0.448759618  0.657594234
     0.208242550  0.955756713  0.658411964
     0.708136048  0.461624254  0.658782766
     0.706302466  0.955844159  0.659276883
     0.454849944  0.294079772  0.657585749
     0.460025631  0.806487549  0.657529036
     0.968406837  0.286753590  0.660078069
     0.945141159  0.760520285  0.661047745
     0.299916994  0.045782601  0.653805330
     0.295928485  0.542551147  0.658985870
     0.798641725  0.046226699  0.658232729
     0.796858224  0.554188500  0.655066568
     0.045862501  0.204119496  0.752725994
     0.045862500  0.704119456  0.752725994
     0.545862507  0.204119496  0.752725994
     0.545862496  0.704119456  0.752725994
     0.204119002  0.454101003  0.752704994
     0.204118991  0.954100951  0.752704994
     0.704118976  0.454101003  0.752704994
     0.704118964  0.954100951  0.752704994
     0.454140018  0.295888490  0.752726971
     0.454140007  0.795888516  0.752726971
     0.954140018  0.295888490  0.752726971
     0.954140060  0.795888516  0.752726971
     0.295882492  0.045900498  0.752704994
     0.295882481  0.545900528  0.752704994
     0.795882439  0.045900498  0.752704994
     0.795882481  0.545900528  0.752704994
     0.765415406  0.530160740  0.551797195
     0.513250855  0.017898604  0.551836998
     0.481014600  0.495229252  0.554788943
     0.009935392  0.005425197  0.548372804
     0.038185487  0.506566397  0.553285530
     0.236875960  0.241844656  0.552114153
     0.256452749  0.765755494  0.553612682
     0.737676460  0.203348781  0.554649938
     0.701424977  0.791995900  0.554269308
     0.001414623  0.982804709  0.653418839
     0.996616550  0.505955370  0.654841975
     0.498352341  0.011911124  0.654109529
     0.509426980  0.490405654  0.655020477
     0.260364073  0.246061001  0.654264833
     0.259306576  0.754051933  0.654664999
     0.747772284  0.265190216  0.654522514
     0.745845189  0.750387403  0.654514090
     0.135693388  0.112298971  0.607134618
     0.151119629  0.604446105  0.608125111
     0.647902237  0.104625934  0.609568882
     0.616159932  0.628388279  0.609314192
     0.359463388  0.387004495  0.604677767
     0.374822269  0.879938763  0.606402355
     0.890345702  0.364808261  0.609438484
     0.869872403  0.876708124  0.604608051
     0.123116052  0.368159041  0.609693601
     0.123747809  0.865251604  0.607285954
     0.592749907  0.337958438  0.601242265
     0.617058037  0.871606282  0.612682542
     0.386330305  0.134354222  0.604277479
     0.385274658  0.628489915  0.611031210
     0.887021262  0.133176345  0.610386916
     0.896007668  0.644978585  0.610482028
     0.000000000  0.000000000  0.754927972
     0.000000000  0.500000000  0.754927972
     0.500000000  0.000000000  0.754927972
     0.499999989  0.500000000  0.754927972
     0.250000496  0.250000000  0.754939022
     0.250000511  0.749999974  0.754939022
     0.750000470  0.250000000  0.754939022
     0.750000458  0.749999974  0.754939022
     0.135790500  0.114209997  0.704782994
     0.135790502  0.614209984  0.704782994
     0.635790447  0.114209997  0.704782994
     0.635790488  0.614209984  0.704782994
     0.364209516  0.385789989  0.704782994
     0.364209505  0.885789963  0.704782994
     0.864209542  0.385789989  0.704782994
     0.864209531  0.885789963  0.704782994
     0.114217990  0.364218986  0.704780979
     0.114217992  0.864218986  0.704780979
     0.614218004  0.364218986  0.704780979
     0.614217992  0.864218986  0.704780979
     0.385782012  0.135781489  0.704782017
     0.385782001  0.635781489  0.704782017
     0.885781985  0.135781489  0.704782017
     0.885782027  0.635781489  0.704782017
     0.134667000  0.115332001  0.801256025
     0.134666989  0.615331988  0.801256025
     0.634666987  0.115332001  0.801256025
     0.634666976  0.615331988  0.801256025
     0.365333002  0.384667985  0.801256025
     0.365332990  0.884667959  0.801256025
     0.865332949  0.384667985  0.801256025
     0.865332938  0.884667959  0.801256025
     0.115328503  0.365337004  0.801264999
     0.115328505  0.865336978  0.801264999
     0.615328503  0.365337004  0.801264999
     0.615328492  0.865336978  0.801264999
     0.384671513  0.134662996  0.801264999
     0.384671501  0.634662970  0.801264999
     0.884671486  0.134662996  0.801264999
     0.884671528  0.634662970  0.801264999
     0.000176678  0.998244094  0.604674287
     0.007000462  0.504008560  0.604832461
     0.504754700  0.006607762  0.603583859
     0.498619716  0.492289793  0.604762500
     0.248094441  0.246683380  0.602347833
     0.252806830  0.744843222  0.603911195
     0.743591978  0.246355216  0.602726876
     0.738115966  0.754854406  0.603177161
     0.000000500  0.000000500  0.704828963
     0.000000500  0.500000475  0.704828963
     0.500000475  0.000000500  0.704828963
     0.500000464  0.500000475  0.704828963
     0.249999994  0.249999472  0.704824995
     0.250000010  0.749999498  0.704824995
     0.749999994  0.249999472  0.704824995
     0.749999983  0.749999498  0.704824995
     0.000000000  0.000000000  0.807317968
     0.000000000  0.500000000  0.807317968
     0.500000000  0.000000000  0.807317968
     0.499999989  0.500000000  0.807317968
     0.249999994  0.250000000  0.807317968
     0.250000010  0.749999974  0.807317968
     0.749999994  0.250000000  0.807317968
     0.749999983  0.749999974  0.807317968

  ion indices of the primitive-cell ions
   primitive index   ion index
                 1           1
                 2           2
                 3           3
                 4           4
                 5           5
                 6           6
                 7           7
                 8           8
                 9           9
                10          10
                11          11
                12          12
                13          13
                14          14
                15          15
                16          16
                17          17
                18          18
                19          19
                20          20
                21          21
                22          22
                23          23
                24          24
                25          25
                26          26
                27          27
                28          28
                29          29
                30          30
                31          31
                32          32
                33          33
                34          34
                35          35
                36          36
                37          37
                38          38
                39          39
                40          40
                41          41
                42          42
                43          43
                44          44
                45          45
                46          46
                47          47
                48          48
                49          49
                50          50
                51          51
                52          52
                53          53
                54          54
                55          55
                56          56
                57          57
                58          58
                59          59
                60          60
                61          61
                62          62
                63          63
                64          64
                65          65
                66          66
                67          67
                68          68
                69          69
                70          70
                71          71
                72          72
                73          73
                74          74
                75          75
                76          76
                77          77
                78          78
                79          79
                80          80
                81          81
                82          82
                83          83
                84          84
                85          85
                86          86
                87          87
                88          88
                89          89
                90          90
                91          91
                92          92
                93          93
                94          94
                95          95
                96          96
                97          97
                98          98
                99          99
               100         100
               101         101
               102         102
               103         103
               104         104
               105         105
               106         106
               107         107
               108         108
               109         109
               110         110
               111         111
               112         112
               113         113
               114         114
               115         115
               116         116
               117         117
               118         118
               119         119
               120         120
               121         121
               122         122
               123         123
               124         124
               125         125
               126         126
               127         127
               128         128
               129         129
               130         130
               131         131
               132         132
               133         133
               134         134
               135         135
               136         136
               137         137
               138         138
               139         139
               140         140
               141         141
               142         142
               143         143
               144         144
               145         145
               146         146
               147         147
               148         148
               149         149
               150         150
               151         151
               152         152
               153         153
               154         154
               155         155
               156         156
               157         157
               158         158
               159         159
               160         160
               161         161
               162         162
               163         163
               164         164
               165         165
               166         166
               167         167
               168         168
               169         169
               170         170
               171         171
               172         172
               173         173
               174         174
               175         175
               176         176
               177         177
               178         178
               179         179
               180         180
               181         181
               182         182
               183         183
               184         184
               185         185
               186         186
               187         187
               188         188
               189         189
               190         190
               191         191
               192         192
               193         193
               194         194
               195         195
               196         196
               197         197
               198         198
               199         199
               200         200
               201         201
               202         202
               203         203
               204         204
               205         205
               206         206
               207         207
               208         208
               209         209
               210         210
               211         211
               212         212
               213         213
               214         214
               215         215
               216         216
               217         217
               218         218
               219         219
               220         220
               221         221
               222         222
               223         223
               224         224
               225         225
               226         226
               227         227
               228         228
               229         229
               230         230
               231         231
               232         232
               233         233
               234         234
               235         235
               236         236
               237         237
               238         238
               239         239
               240         240
               241         241
               242         242
               243         243
               244         244
               245         245
               246         246
               247         247
               248         248
               249         249
               250         250
               251         251
               252         252
               253         253
               254         254
               255         255
               256         256
               257         257
               258         258
               259         259
               260         260
               261         261
               262         262
               263         263
               264         264
               265         265
               266         266
               267         267
               268         268
               269         269
               270         270
               271         271
               272         272
               273         273
               274         274
               275         275
               276         276
               277         277
               278         278
               279         279
               280         280
               281         281
               282         282
               283         283
               284         284
               285         285
               286         286
               287         287
               288         288
               289         289
               290         290
               291         291
               292         292
               293         293
               294         294
               295         295
               296         296
               297         297
               298         298
               299         299
               300         300
               301         301
               302         302
               303         303
               304         304
               305         305
               306         306
               307         307
               308         308
               309         309
               310         310
               311         311
               312         312
               313         313
               314         314
               315         315
               316         316
               317         317
               318         318
               319         319
               320         320
               321         321
               322         322
               323         323
               324         324
               325         325

----------------------------------------------------------------------------------------

 
 
 KPOINTS: Automatic Mesh                          

Automatic generation of k-mesh.
 Grid dimensions read from file:
 generate k-points for:    3    3    1

 Generating k-lattice:

  Cartesian coordinates                     Fractional coordinates (reciprocal lattice)
     0.018456177  0.000005026 -0.000000000     0.333333333  0.000000000  0.000000000
     0.000000000  0.018454135  0.000000000     0.000000000  0.333333333  0.000000000
     0.000000000 -0.000000000  0.016003201     0.000000000  0.000000000  1.000000000

  Length of vectors
     0.018456178  0.018454135  0.016003201

  Shift w.r.t. Gamma in fractional coordinates (k-lattice)
     0.000000000  0.000000000  0.000000000

 
 Subroutine IBZKPT returns following result:
 ===========================================
 
 Found      5 irreducible k-points:
 
 Following reciprocal coordinates:
            Coordinates               Weight
  0.000000  0.000000  0.000000      1.000000
  0.333333  0.000000  0.000000      2.000000
  0.000000  0.333333  0.000000      2.000000
  0.333333  0.333333  0.000000      2.000000
 -0.333333  0.333333  0.000000      2.000000
 
 Following cartesian coordinates:
            Coordinates               Weight
  0.000000  0.000000  0.000000      1.000000
  0.018456  0.000005  0.000000      2.000000
  0.000000  0.018454  0.000000      2.000000
  0.018456  0.018459  0.000000      2.000000
 -0.018456  0.018449  0.000000      2.000000
 


--------------------------------------------------------------------------------------------------------




 Dimension of arrays:
   k-points           NKPTS =      5   k-points in BZ     NKDIM =      5   number of bands    NBANDS=    732
   number of dos      NEDOS =    301   number of ions     NIONS =    325
   non local maximal  LDIM  =      5   non local SUM 2l+1 LMDIM =     13
   total plane-waves  NPLWV = ******
   max r-space proj   IRMAX =   3336   max aug-charges    IRDMAX=  19845
   dimension x,y,z NGX =   100 NGY =  100 NGZ =  350
   dimension x,y,z NGXF=   200 NGYF=  200 NGZF=  700
   support grid    NGXF=   200 NGYF=  200 NGZF=  700
   ions per type =             143  39  47  72  24
   NGX,Y,Z   is equivalent  to a cutoff of   9.20,  9.20,  9.31 a.u.
   NGXF,Y,Z  is equivalent  to a cutoff of  18.41, 18.41, 18.62 a.u.

 SYSTEM =  PSC                                     
 POSCAR =   H  C  N  I Pb                          

 Startparameter for this run:
   NWRITE =      2    write-flag & timer
   PREC   = normal    normal or accurate (medium, high low for compatibility)
   ISTART =      0    job   : 0-new  1-cont  2-samecut
   ICHARG =      1    charge: 1-file 2-atom 10-const
   ISPIN  =      1    spin polarized calculation?
   LNONCOLLINEAR =      F non collinear calculations
   LSORBIT =      F    spin-orbit coupling
   INIWAV =      1    electr: 0-lowe 1-rand  2-diag
   LASPH  =      F    aspherical Exc in radial PAW
 Electronic Relaxation 1
   ENCUT  =  500.0 eV  36.75 Ry    6.06 a.u.  32.93 32.93113.93*2*pi/ulx,y,z
   ENINI  =  500.0     initial cutoff
   ENAUG  =  644.9 eV  augmentation charge cutoff
   NELM   =    600;   NELMIN=  2; NELMDL=  0     # of ELM steps 
   EDIFF  = 0.1E-03   stopping-criterion for ELM
   LREAL  =      T    real-space projection
   NLSPLINE    = F    spline interpolate recip. space projectors
   LCOMPAT=      F    compatible to vasp.4.4
   GGA_COMPAT  = F    GGA compatible to vasp.4.4-vasp.4.6
   LMAXPAW     = -100 max onsite density
   LMAXMIX     =    2 max onsite mixed and CHGCAR
   VOSKOWN=      0    Vosko Wilk Nusair interpolation
   ROPT   =   -0.00050  -0.00050  -0.00050  -0.00050
   ROPT   =   -0.00050
 Ionic relaxation
   EDIFFG = 0.1E-02   stopping-criterion for IOM
   NSW    =      0    number of steps for IOM
   NBLOCK =      1;   KBLOCK =      1    inner block; outer block 
   IBRION =     -1    ionic relax: 0-MD 1-quasi-New 2-CG
   NFREE  =      0    steps in history (QN), initial steepest desc. (CG)
   ISIF   =      2    stress and relaxation
   IWAVPR =     10    prediction:  0-non 1-charg 2-wave 3-comb
   ISYM   =      0    0-nonsym 1-usesym 2-fastsym
   LCORR  =      T    Harris-Foulkes like correction to forces

   POTIM  = 0.5000    time-step for ionic-motion
   TEIN   =    0.0    initial temperature
   TEBEG  =    0.0;   TEEND  =   0.0 temperature during run
   SMASS  =  -3.00    Nose mass-parameter (am)
   estimated Nose-frequenzy (Omega)   =  0.10E-29 period in steps = 0.13E+47 mass=  -0.745E-26a.u.
   SCALEE = 1.0000    scale energy and forces
   NPACO  =    256;   APACO  = 16.0  distance and # of slots for P.C.
   PSTRESS=    0.0 pullay stress

  Mass of Ions in am
   POMASS =   1.00 12.01 14.00126.90207.20
  Ionic Valenz
   ZVAL   =   1.00  4.00  5.00  7.00  4.00
  Atomic Wigner-Seitz radii
   RWIGS  =  -1.00 -1.00 -1.00 -1.00 -1.00
  virtual crystal weights 
   VCA    =   1.00  1.00  1.00  1.00  1.00
   NELECT =    1134.0000    total number of electrons
   NUPDOWN=      -1.0000    fix difference up-down

 DOS related values:
   EMIN   =  10.00;   EMAX   =-10.00  energy-range for DOS
   EFERMI =   0.00
   ISMEAR =     0;   SIGMA  =   0.05  broadening in eV -4-tet -1-fermi 0-gaus

 Electronic relaxation 2 (details)
   IALGO  =     38    algorithm
   LDIAG  =      T    sub-space diagonalisation (order eigenvalues)
   LSUBROT=      F    optimize rotation matrix (better conditioning)
   TURBO    =      0    0=normal 1=particle mesh
   IRESTART =      0    0=no restart 2=restart with 2 vectors
   NREBOOT  =      0    no. of reboots
   NMIN     =      0    reboot dimension
   EREF     =   0.00    reference energy to select bands
   IMIX   =      4    mixing-type and parameters
     AMIX     =   0.40;   BMIX     =  0.01
     AMIX_MAG =   1.60;   BMIX_MAG =  0.01
     AMIN     =   0.01
     WC   =   100.;   INIMIX=   1;  MIXPRE=   1;  MAXMIX= -45

 Intra band minimization:
   WEIMIN = 0.0000     energy-eigenvalue tresh-hold
   EBREAK =  0.34E-07  absolut break condition
   DEPER  =   0.30     relativ break condition  

   TIME   =   0.40     timestep for ELM

  volume/ion in A,a.u.               =      62.72       423.28
  Fermi-wavevector in a.u.,A,eV,Ry     =   0.624944  1.180972  5.313816  0.390554
  Thomas-Fermi vector in A             =   1.685677
 
 Write flags
   LWAVE        =      F    write WAVECAR
   LDOWNSAMPLE  =      F    k-point downsampling of WAVECAR
   LCHARG       =      T    write CHGCAR
   LVTOT        =      T    write LOCPOT, total local potential
   LVHAR        =      F    write LOCPOT, Hartree potential only
   LELF         =      F    write electronic localiz. function (ELF)
   LORBIT       =      0    0 simple, 1 ext, 2 COOP (PROOUT), +10 PAW based schemes


 Dipole corrections
   LMONO  =      F    monopole corrections only (constant potential shift)
   LDIPOL =      T    correct potential (dipole corrections)
   IDIPOL =      3    1-x, 2-y, 3-z, 4-all directions 
   EPSILON=  1.0000000 bulk dielectric constant

 Exchange correlation treatment:
   GGA     =    --    GGA type
   LEXCH   =     8    internal setting for exchange type
   VOSKOWN=      0    Vosko Wilk Nusair interpolation
   LHFCALC =     F    Hartree Fock is set to
   LHFONE  =     F    Hartree Fock one center treatment
   AEXX    =    0.0000 exact exchange contribution

 Linear response parameters
   LEPSILON=     F    determine dielectric tensor
   LRPA    =     F    only Hartree local field effects (RPA)
   LNABLA  =     F    use nabla operator in PAW spheres
   LVEL    =     F    velocity operator in full k-point grid
   LINTERFAST=   F  fast interpolation
   KINTER  =     0    interpolate to denser k-point grid
   CSHIFT  =0.1000    complex shift for real part using Kramers Kronig
   OMEGAMAX=  -1.0    maximum frequency
   DEG_THRESHOLD= 0.2000000E-02 threshold for treating states as degnerate
   RTIME   =   -0.100 relaxation time in fs
  (WPLASMAI=    0.000 imaginary part of plasma frequency in eV, 0.658/RTIME)
   DFIELD  = 0.0000000 0.0000000 0.0000000 field for delta impulse in time
 
 Orbital magnetization related:
   ORBITALMAG=     F  switch on orbital magnetization
   LCHIMAG   =     F  perturbation theory with respect to B field
   DQ        =  0.001000  dq finite difference perturbation B field
   LLRAUG    =     F  two centre corrections for induced B field



--------------------------------------------------------------------------------------------------------


 Static calculation
 charge density and potential will be updated during run
 non-spin polarized calculation
 Variant of blocked Davidson
 Davidson routine will perform the subspace rotation
 perform sub-space diagonalisation
    after iterative eigenvector-optimisation
 modified Broyden-mixing scheme, WC =      100.0
 initial mixing is a Kerker type mixing with AMIX =  0.4000 and BMIX =      0.0100
 Hartree-type preconditioning will be used
 using additional bands           165
 real space projection scheme for non local part
[...]
     13.54561      0.00000     45.35368        -0.001503     -0.001589      0.014944
     13.54315      9.03140     45.35368        -0.002825     -0.007843     -0.011542
     14.01550     10.05954     32.46515         0.060595      0.021926     -0.214570
     12.98946      8.64933     32.78823         0.044746     -0.033279     -0.016624
     15.68091      9.05120     33.65319         0.031176      0.013125     -0.017802
     15.51476      8.70065     35.37253         0.009993      0.021832     -0.001499
     13.44741     11.58786     34.99746        -0.047373      0.000200     -0.021157
     14.67341     10.78003     35.98364        -0.003422     -0.039666      0.056941
     12.03635      9.88590     35.55392        -0.046024     -0.029796     -0.031405
     12.29153      8.20231     35.01322        -0.040541      0.062490     -0.061700
     11.14528     10.08814     33.56443        -0.025805      0.032233     -0.072918
     12.16398     11.53919     33.42687        -0.042836     -0.230528     -0.123785
     10.95101     11.66293     31.47128        -0.071194      0.142890     -0.049862
     12.40357     10.88476     30.87967         0.126673     -0.007765     -0.053543
     14.20132      7.03437     33.11576        -0.013121      0.035891     -0.069732
     14.05747      6.71984     34.84644        -0.070971     -0.115488      0.114165
     15.62943      6.63435     34.06027         0.067047     -0.051110      0.027119
     15.58902     12.57664     34.55785        -0.023217     -0.084993     -0.032878
     15.17765     11.68676     33.09144        -0.002092      0.067845     -0.037143
     16.37734     11.00897     34.23435         0.001187      0.074897     -0.011003
     13.90805      9.54141     37.29296        -0.035736     -0.001967     -0.031660
     13.96479      7.83127     36.80550        -0.073494      0.119255     -0.029583
     12.49013      8.51410     37.49360         0.087521      0.011950     -0.068241
      9.69923      9.54868     31.52839         0.203954      0.070784     -0.085086
     10.37380      9.86584     29.91764        -0.013948      0.043215      0.030565
     12.67273      8.67720     29.35419        -0.046864     -0.169775      0.175357
     10.05501      7.49337     32.54722        -0.036561     -0.039345      0.057590
     13.81252      6.47599     29.46931        -0.031771      0.017365      0.016457
     11.20244      5.28876     32.68485         0.026888     -0.035388      0.009673
     13.10566      4.78328     31.16644         0.019306     -0.058427     -0.017313
      0.33579      4.60916     34.83145         0.122007      0.184638     -0.173154
      0.64756     13.78238     35.04709        -0.154619      0.061376     -0.105159
      8.36373      4.09570     34.67293         0.116663     -0.159110      0.031704
      9.03069     13.66113     34.66339        -0.176592     -0.025103     -0.001902
      4.30672      9.66604     34.98377         0.037723     -0.105429      0.027215
      4.53000      0.25375     34.81380        -0.179690     -0.033732      0.048723
     14.02281     17.70288     34.99611         0.083766      0.052089      0.060490
      0.19827      4.41545     40.51521         0.290126     -0.343610     -0.227555
      0.19478     13.73526     40.76115         0.416047     -0.179306     -0.182066
      8.71961      4.12133     40.88010         0.390058     -0.117562      0.091197
      9.02962     13.61996     40.53996        -0.067043     -0.002447      0.435892
      4.57665      8.95058     40.54138        -0.236360     -0.298233     -0.047319
      4.53558     18.02034     40.40986         0.102214      0.088028     -0.055892
     14.01342      8.75146     40.94583         0.172233      0.049981      0.038456
     13.62162     18.01644     40.56783         0.081335      0.139873      0.063501
      9.02897      4.51561     46.44552         0.011841      0.001716     -0.009629
      9.02651     13.54701     46.44552         0.013458      0.002639      0.037285
     18.05937      4.51561     46.44552        -0.000389      0.016775      0.045794
     18.05691     13.54701     46.44552         0.007332      0.013142      0.006949
      4.51521      0.00002     46.44421         0.007549      0.004770      0.053114
      4.51275      9.03142     46.44421         0.000708     -0.003306      0.031744
     13.54561      0.00002     46.44421        -0.009173     -0.010508      0.015251
     13.54315      9.03142     46.44421        -0.019672     -0.022693      0.005262
     11.29248      8.24258     30.96163         0.013530     -0.024355      0.025786
     12.35058      7.93161     30.09788         0.060299      0.384182     -0.374241
     10.88187      7.26477     31.87479         0.002906     -0.123831      0.037358
     12.99069      6.69649     30.15441         0.141604     -0.140252     -0.008742
     11.52665      6.02524     31.94921        -0.088496      0.136645      0.013096
     12.59056      5.73982     31.09307        -0.020128      0.005889      0.021995
     13.21330      9.67315     33.09729        -0.120813     -0.007246      0.093552
     15.00654      8.62634     34.40295         0.049436      0.094906      0.058313
     14.32270     10.93025     34.95909        -0.104779     -0.048593      0.011095
     12.77200      9.07779     35.46904         0.195088      0.047519     -0.014849
     11.96738     10.53886     32.98746         0.125617      0.337148      0.122886
     11.52739     10.73225     31.52380        -0.162989     -0.128173      0.177558
     14.68450      7.18670     34.08609        -0.061191      0.017070     -0.062131
     15.43372     11.56580     34.15096         0.015137     -0.062848     -0.092072
     13.33475      8.73058     36.82470        -0.009694     -0.128960      0.189315
     10.64474      9.60398     30.95401        -0.145024     -0.063208     -0.026694
     17.94340      3.49326     35.34042        -0.351835     -0.072103      0.288816
      0.58817     12.66987     35.73410        -0.102748     -0.036134      0.065841
      9.62943      3.86065     34.93933         0.129982     -0.081522      0.074641
      8.55655     12.54816     35.18474         0.047567      0.090703     -0.001022
      7.73940      5.23695     34.83506         0.069292      0.260157      0.067682
      8.54215     14.85882     34.90859         0.197082     -0.247486     -0.048749
     17.97532      5.80040     35.18024        -0.051778      0.107230      0.181563
     17.79157     14.72901     35.09010         0.083265      0.074935     -0.002864
      4.25159      8.40895     35.36636        -0.160970      0.008310     -0.014857
      3.49519     17.59420     35.19065        -0.100371      0.113252     -0.068922
     12.73677     17.78892     35.23801        -0.367057     -0.383182      0.055099
      5.76360     18.01603     35.12123         0.506558      0.296534     -0.236331
      5.41443     10.34717     34.80611        -0.205103      0.413476     -0.224626
     14.87974      0.63208     35.11028         0.129718     -0.288295     -0.209658
      1.00761      3.48100     40.96319        -0.270733      0.313885     -0.086838
      1.16481     12.89814     41.07464        -0.341369      0.308391     -0.075328
      9.99967      3.81486     40.97054        -0.474825      0.198829     -0.050733
      9.63903     12.65682     41.19180         0.119497     -0.137240      0.057885
      3.73257      8.10585     41.09142         0.047329      0.020050     -0.032275
      3.75633     17.26364     41.14252        -0.325001     -0.338884     -0.285924
     12.78723      8.33823     41.16569         0.006353      0.096890      0.048478
     12.75169     17.26522     41.19656        -0.177806     -0.228926     -0.305242
      8.21351      5.31190     41.09089         0.004496      0.081169     -0.004967
      8.30446     14.56742     41.08735         0.006232     -0.005878     -0.153625
     17.48879      5.17957     41.24663        -0.176600      0.201973      0.169292
     17.06627     13.73713     41.30722        -0.039314      0.084952     -0.014799
      5.41652      0.82696     40.85466        -0.025634      0.017068     -0.084591
      5.34204      9.79999     41.17838         0.326325      0.327382     -0.259730
     14.42388      0.83498     41.13132        -0.020069     -0.008455      0.048162
     14.38917     10.01020     40.93347        -0.163079     -0.247161     -0.136343
      0.82731      3.68697     47.03596         0.025898     -0.033762     -0.087743
      0.82485     12.71837     47.03596         0.028761     -0.032440     -0.068885
      9.85771      3.68697     47.03596         0.021879     -0.028540     -0.058085
      9.85525     12.71837     47.03596         0.021053     -0.023183     -0.091229
      3.68432      8.20234     47.03465        -0.017508     -0.010812     -0.065548
      3.68186     17.23373     47.03465        -0.015110     -0.010731     -0.061596
     12.71472      8.20234     47.03465        -0.004189     -0.002047     -0.059900
     12.71226     17.23373     47.03465        -0.010546     -0.011125     -0.059881
      8.20068      5.34457     47.03603        -0.026321      0.021688     -0.058787
      8.19822     14.37597     47.03603        -0.022651      0.017948     -0.088246
     17.23108      5.34457     47.03603        -0.009295      0.008736     -0.090168
     17.22862     14.37597     47.03603        -0.014477      0.016587     -0.066915
      5.34365      0.82909     47.03465         0.003270      0.004582     -0.065824
      5.34119      9.86049     47.03465         0.010666      0.017956     -0.067949
     14.37405      0.82909     47.03465         0.025942      0.019944     -0.056231
     14.37159      9.86049     47.03465         0.031209      0.031572     -0.065973
     13.82141      9.57619     34.48043         0.028346     -0.093599     -0.055896
      9.26963      0.32330     34.48291        -0.013553     -0.051054      0.001374
      8.68507      8.94523     34.66737         0.020747      0.032687     -0.058245
      0.17941      0.09799     34.26645         0.037303     -0.001748      0.014289
      0.68717      9.15001     34.57343        -0.022635      0.032700      0.011624
      4.27698      4.36839     34.50023        -0.017781     -0.001709     -0.004681
      4.62798     13.83169     34.59387        -0.007701     -0.015363     -0.008652
     13.32203      3.67305     34.65869        -0.004543      0.172625     -0.015365
     12.66440     14.30566     34.63490         0.005472     -0.062703     -0.051198
      0.02072     17.75220     40.83051        -0.005196      0.002622      0.041363
     17.99720      9.13897     40.91944        -0.002914     -0.015215      0.009916
      9.00058      0.21515     40.87367         0.000950      0.011321      0.023983
      9.19825      8.85810     40.93059        -0.009613     -0.014221      0.025881
      4.70117      4.44455     40.88337        -0.000608      0.002847      0.000940
      4.67958     13.62029     40.90838         0.001972      0.000438      0.001399
     13.50406      4.79008     40.89948         0.005083     -0.002581     -0.023262
     13.46687     13.55410     40.89895        -0.015494     -0.040479     -0.024988
      2.45018      2.02843     37.93832        -0.032619     -0.031668      0.012256
      2.72637     10.91799     38.00022        -0.034426      0.026435      0.021625
     11.70112      1.88984     38.09044         0.005005      0.013623      0.027348
     11.12525     11.35045     38.07452         0.031114      0.060333     -0.011555
      6.49029      6.99038     37.78480        -0.014914     -0.020169      0.036804
      6.76526     15.89416     37.89257        -0.023266      0.014629     -0.005131
     16.07856      6.58946     38.08229         0.030792     -0.008729     -0.000600
     15.70628     15.83580     37.78045        -0.015492      0.015289      0.018865
      2.22176      6.64998     38.09823        -0.043102     -0.003245     -0.029999
      2.23073     15.62887     37.94778        -0.011201      0.023096      0.032208
     10.70388      6.10448     37.57013        -0.025887     -0.003847      0.004847
     11.14028     15.74365     38.28500         0.007681     -0.013489      0.000909
      6.97677      2.42681     37.75979        -0.009772      0.003775      0.031290
      6.95528     11.35229     38.18181         0.007055      0.009036     -0.031986
     16.01966      2.40554     38.14155        -0.019839     -0.026492      0.054051
     16.17944     11.65012     38.14750         0.069361     -0.014985     -0.118992
      0.00000      0.00000     47.17356         0.002062      0.004663      0.285214
     -0.00246      9.03140     47.17356        -0.000468      0.002345      0.402028
      9.03040      0.00000     47.17356        -0.002378     -0.003510      0.382600
      9.02794      9.03140     47.17356         0.001548      0.004779      0.419823
      4.51398      4.51570     47.17425        -0.006489     -0.003499      0.431943
      4.51152     13.54710     47.17425         0.003818     -0.001458      0.419969
     13.54438      4.51570     47.17425         0.006579      0.000631      0.429763
     13.54192     13.54710     47.17425        -0.003943     -0.005202      0.409667
      2.45192      2.06295     44.04013        -0.024699     -0.024421     -0.062278
      2.44946     11.09435     44.04013         0.018012     -0.029831     -0.057450
     11.48232      2.06295     44.04013         0.056733     -0.042321     -0.056445
     11.47986     11.09435     44.04013        -0.020867      0.000906     -0.079697
      6.57602      6.96845     44.04013        -0.038117      0.052394     -0.031468
      6.57356     15.99985     44.04013         0.011897      0.000089     -0.047879
     15.60642      6.96845     44.04013         0.080421     -0.019436     -0.028274
     15.60396     15.99985     44.04013        -0.023124      0.024845     -0.029856
      2.06108      6.57881     44.04000        -0.007742      0.006402     -0.062317
      2.05862     15.61021     44.04000         0.049158      0.038163     -0.014885
     11.09148      6.57881     44.04000        -0.019099     -0.025468     -0.023450
     11.08902     15.61021     44.04000        -0.029270     -0.001242     -0.037684
      6.96686      2.45259     44.04007        -0.068690     -0.078442     -0.044889
      6.96440     11.48399     44.04007         0.024438      0.007274     -0.049878
     15.99726      2.45259     44.04007         0.039732      0.002514     -0.080765
     15.99481     11.48399     44.04007         0.014777      0.014331     -0.012009
      2.43163      2.08322     50.06849        -0.001759     -0.021882      0.022572
      2.42917     11.11462     50.06849         0.010817     -0.010505      0.024020
     11.46203      2.08322     50.06849         0.009207     -0.014601      0.027563
     11.45957     11.11462     50.06849         0.013358     -0.006075      0.023939
      6.59631      6.94818     50.06849        -0.013873      0.009763      0.026732
      6.59385     15.97958     50.06849        -0.010985      0.009417      0.023062
     15.62671      6.94818     50.06849        -0.005576      0.012930      0.023892
     15.62425     15.97958     50.06849        -0.001703      0.019321      0.025033
      2.08113      6.59901     50.06905        -0.013801     -0.008260      0.023544
      2.07867     15.63041     50.06905        -0.019014     -0.001207      0.023539
     11.11153      6.59901     50.06905        -0.008394     -0.010894      0.026486
     11.10907     15.63041     50.06905        -0.010299     -0.011882      0.024944
      6.94681      2.43239     50.06905         0.010181      0.006731      0.025263
      6.94435     11.46379     50.06905         0.006459      0.013996      0.023991
     15.97721      2.43239     50.06905         0.023521     -0.001496      0.024534
     15.97475     11.46379     50.06905         0.010385      0.009983      0.024134
     -0.00172     18.03108     37.78458        -0.015372      0.007552     -0.011670
      0.12395      9.10381     37.79447        -0.024472     -0.025382     -0.033310
      9.11624      0.11935     37.71645        -0.007007      0.032733     -0.012205
      9.00305      8.89213     37.79010         0.001582     -0.017527     -0.048915
      4.47957      4.45579     37.63921         0.004804     -0.011477      0.003722
      4.56223     13.45395     37.73690        -0.007980      0.027582     -0.024116
     13.42865      4.44986     37.66290         0.018849     -0.024131     -0.033755
     13.32725     13.63478     37.69103        -0.003602      0.020622     -0.052698
      0.00001      0.00001     44.04300        -0.039218     -0.124348      0.115580
     -0.00245      9.03141     44.04300        -0.031855     -0.055332      0.194799
      9.03041      0.00001     44.04300         0.037226      0.100321      0.117513
      9.02795      9.03141     44.04300        -0.028174     -0.104786      0.291053
      4.51397      4.51569     44.04275         0.115201      0.029989      0.038009
      4.51151     13.54709     44.04275        -0.048660      0.034607      0.127997
     13.54437      4.51569     44.04275        -0.092431      0.029224      0.148771
     13.54191     13.54709     44.04275        -0.001556      0.079887      0.158635
      0.00000      0.00000     50.44728        -0.001700      0.002062     -0.598080
     -0.00246      9.03140     50.44728        -0.001558     -0.002702     -0.626729
      9.03040      0.00000     50.44728         0.001977      0.005730     -0.627202
      9.02794      9.03140     50.44728         0.000931     -0.006124     -0.636277
      4.51397      4.51570     50.44728         0.010633      0.007346     -0.639041
      4.51151     13.54710     50.44728         0.007557     -0.007269     -0.633235
     13.54437      4.51570     50.44728        -0.011685      0.005854     -0.641277
     13.54191     13.54710     50.44728        -0.007118     -0.007392     -0.632404
 -----------------------------------------------------------------------------------
    total drift:                                0.037039      0.097474      0.264969


--------------------------------------------------------------------------------------------------------



  FREE ENERGIE OF THE ION-ELECTRON SYSTEM (eV)
  ---------------------------------------------------
  free  energy   TOTEN  =     -1576.24843587 eV

  energy  without entropy=    -1576.24843587  energy(sigma->0) =    -1576.24843587
 


--------------------------------------------------------------------------------------------------------


    POTLOK:  cpu time    0.5035: real time    0.5034


--------------------------------------------------------------------------------------------------------


     LOOP+:  cpu time  301.9510: real time  302.5166
 vacuum level on the upper side and lower side of the slab         2.285         1.600
    4ORBIT:  cpu time    0.0000: real time    0.0000

 total amount of memory used by VASP MPI-rank0  8653581. kBytes
=======================================================================

   base      :      30000. kBytes
   nonlr-proj:      53619. kBytes
   fftplans  :     249280. kBytes
   grid      :     701440. kBytes
   one-center:       2636. kBytes
   wavefun   :    7616606. kBytes
 
  
  
 General timing and accounting informations for this job:
 ========================================================
  
                  Total CPU time used (sec):      513.191
                            User time (sec):      414.354
                          System time (sec):       98.837
                         Elapsed time (sec):      516.315
  
                   Maximum memory used (kb):    10309004.
                   Average memory used (kb):          N/A
  
                          Minor page faults:      3684841
                          Major page faults:           12
                 Voluntary context switches:        11418
