<?xml version="1.0" encoding="ISO-8859-1"?>
<modeling>
 <generator>
  <i name="program" type="string">vasp </i>
  <i name="version" type="string">6.2.1  </i>
  <i name="subversion" type="string">16May21 (build Nov 15 2021 14:57:28) complex                          parallel </i>
  <i name="platform" type="string">LinuxPGI </i>
  <i name="date" type="string">2023 07 25 </i>
  <i name="time" type="string">02:21:17 </i>
 </generator>
 <incar>
  <i type="string" name="SYSTEM">PSC</i>
  <i type="int" name="ISTART">     1</i>
  <i type="string" name="PREC">Normal</i>
  <i name="BMIX">      0.01000000</i>
  <i name="AMIN">      0.01000000</i>
  <i type="int" name="ICHARG">     1</i>
  <i type="int" name="NELM">   600</i>
  <i type="int" name="ISYM">     0</i>
  <i name="ENCUT">    500.00000000</i>
  <i type="string" name="LREAL">Auto</i>
  <i type="int" name="ISMEAR">     0</i>
  <i name="SIGMA">      0.05000000</i>
  <i type="logical" name="LWAVE"> F  </i>
  <i type="logical" name="LVTOT"> T  </i>
  <i type="logical" name="GGA_COMPAT"> F  </i>
  <i type="logical" name="LDIPOL"> T  </i>
  <i type="int" name="IDIPOL">     3</i>
  <i type="int" name="IVDW">    12</i>
 </incar>
 <primitive_cell>
  <structure name="primitive_cell" >
   <crystal>
    <varray name="basis" >
     <v>      18.06080055       0.00000000       0.00000000 </v>
     <v>      -0.00491865      18.06279945       0.00000000 </v>
     <v>       0.00000000       0.00000000      62.48749924 </v>
    </varray>
    <i name="volume">  20385.21054034 </i>
    <varray name="rec_basis" >
     <v>       0.05536853       0.00001508      -0.00000000 </v>
     <v>       0.00000000       0.05536240       0.00000000 </v>
     <v>       0.00000000      -0.00000000       0.01600320 </v>
    </varray>
   </crystal>
   <varray name="positions" >
    <v>       0.45251408       0.33541729       0.56449224 </v>
    <v>       0.43177645       0.82994383       0.56964958 </v>
    <v>       0.96100984       0.32876314       0.57605992 </v>
    <v>       0.94506068       0.81597936       0.57317244 </v>
    <v>       0.33243296       0.95519841       0.57239140 </v>
    <v>       0.35162206       0.54957773       0.55827896 </v>
    <v>       0.80605002       0.08796566       0.56497494 </v>
    <v>       0.01044745       0.14331643       0.55967585 </v>
    <v>       0.07140455       0.66118405       0.56977479 </v>
    <v>       0.55226130       0.16032234       0.55772227 </v>
    <v>       0.49650064       0.64424575       0.55934772 </v>
    <v>       0.36358687       0.02841343       0.55664869 </v>
    <v>       0.29572657       0.62845787       0.55320318 </v>
    <v>       0.87838496       0.02607704       0.55764089 </v>
    <v>       0.95451151       0.19262170       0.57773347 </v>
    <v>       0.99175150       0.69003155       0.58298929 </v>
    <v>       0.56623393       0.25094363       0.56717142 </v>
    <v>       0.43463052       0.69397644       0.57499330 </v>
    <v>       0.28060798       0.43860171       0.57223897 </v>
    <v>       0.19992402       0.92766536       0.57240917 </v>
    <v>       0.68135663       0.03179445       0.56980904 </v>
    <v>       0.37256258       0.29151367       0.55469920 </v>
    <v>       0.49884704       0.86942072       0.55305715 </v>
    <v>       0.01855058       0.36860386       0.55692261 </v>
    <v>       0.99436771       0.86571501       0.55423701 </v>
    <v>       0.18447944       0.44312463       0.56887422 </v>
    <v>       0.14012466       0.99028223       0.55973634 </v>
    <v>       0.67421626       0.93692845       0.56314523 </v>
    <v>       0.43138580       0.18049530       0.54827665 </v>
    <v>       0.54711737       0.75218348       0.54370653 </v>
    <v>       0.06231584       0.25184404       0.54533771 </v>
    <v>       0.08356845       0.77081383       0.55024268 </v>
    <v>       0.18540890       0.56207611       0.55663874 </v>
    <v>       0.24077106       0.06430671       0.54772259 </v>
    <v>       0.79699419       0.92577265       0.55501256 </v>
    <v>       0.48613918       0.33969973       0.66124120 </v>
    <v>       0.44958016       0.81121880       0.67351118 </v>
    <v>       0.96502217       0.28396653       0.67634115 </v>
    <v>       0.93034061       0.72443300       0.67289130 </v>
    <v>       0.30903912       0.05673294       0.66961318 </v>
    <v>       0.29786284       0.54836248       0.67513491 </v>
    <v>       0.80067049       0.05610071       0.67438745 </v>
    <v>       0.76128317       0.59749597       0.65686454 </v>
    <v>       0.08619825       0.16306485       0.64475732 </v>
    <v>       0.11638942       0.72049630       0.65091706 </v>
    <v>       0.57006616       0.15869263       0.65240808 </v>
    <v>       0.56430908       0.66351654       0.65049754 </v>
    <v>       0.17718269       0.41425727       0.64776292 </v>
    <v>       0.17296149       0.91978878       0.65077848 </v>
    <v>       0.69856212       0.40613714       0.66005377 </v>
    <v>       0.67417499       0.92015831       0.65040554 </v>
    <v>       0.06305278       0.18181302       0.67139515 </v>
    <v>       0.05959298       0.67594919       0.66926008 </v>
    <v>       0.59397828       0.24841559       0.65949537 </v>
    <v>       0.53321802       0.69450288       0.67551524 </v>
    <v>       0.19885303       0.44321882       0.67372313 </v>
    <v>       0.20745259       0.95541245       0.67466521 </v>
    <v>       0.66510992       0.49653204       0.66211546 </v>
    <v>       0.69755354       0.95697825       0.67534119 </v>
    <v>       0.39858694       0.30054733       0.65682699 </v>
    <v>       0.43569435       0.84452671       0.64778777 </v>
    <v>       0.93658162       0.32540259       0.65257132 </v>
    <v>       0.90492350       0.79488092       0.65553511 </v>
    <v>       0.32977274       0.07561003       0.64290007 </v>
    <v>       0.32907247       0.57723929       0.65016477 </v>
    <v>       0.83381612       0.07587362       0.64871886 </v>
    <v>       0.84981388       0.56711544       0.65111851 </v>
    <v>       0.00924413       0.25288394       0.63104516 </v>
    <v>       0.02258577       0.80095778       0.63966865 </v>
    <v>       0.44489860       0.18341250       0.64984152 </v>
    <v>       0.50626559       0.75470140       0.63150723 </v>
    <v>       0.24638229       0.99182890       0.62935635 </v>
    <v>       0.25765762       0.49461046       0.63135357 </v>
    <v>       0.75806641       0.99091927       0.63186253 </v>
    <v>       0.81867334       0.44236695       0.65233909 </v>
    <v>       0.44874502       0.30128397       0.76888902 </v>
    <v>       0.44874501       0.80128391       0.76888902 </v>
    <v>       0.94874497       0.30128397       0.76888902 </v>
    <v>       0.94874501       0.80128391       0.76888902 </v>
    <v>       0.30127600       0.05129450       0.76887296 </v>
    <v>       0.30127601       0.55129450       0.76887296 </v>
    <v>       0.80127594       0.05129450       0.76887296 </v>
    <v>       0.80127598       0.55129450       0.76887296 </v>
    <v>       0.07877100       0.17118050       0.74344197 </v>
    <v>       0.07877101       0.67118045       0.74344197 </v>
    <v>       0.57877100       0.17118050       0.74344197 </v>
    <v>       0.57877099       0.67118045       0.74344197 </v>
    <v>       0.17119950       0.42117448       0.74342103 </v>
    <v>       0.17119950       0.92117451       0.74342103 </v>
    <v>       0.67119951       0.42117448       0.74342103 </v>
    <v>       0.67119950       0.92117451       0.74342103 </v>
    <v>       0.05125600       0.19871499       0.76888902 </v>
    <v>       0.05125600       0.69871493       0.76888902 </v>
    <v>       0.55125603       0.19871499       0.76888902 </v>
    <v>       0.55125602       0.69871493       0.76888902 </v>
    <v>       0.19872349       0.44870397       0.76887205 </v>
    <v>       0.19872349       0.94870397       0.76887205 </v>
    <v>       0.69872352       0.44870397       0.76887205 </v>
    <v>       0.69872351       0.94870397       0.76887205 </v>
    <v>       0.42123152       0.32881747       0.74344197 </v>
    <v>       0.42123151       0.82881744       0.74344197 </v>
    <v>       0.92123147       0.32881747       0.74344197 </v>
    <v>       0.92123151       0.82881744       0.74344197 </v>
    <v>       0.32880050       0.07882500       0.74342103 </v>
    <v>       0.32880049       0.57882496       0.74342103 </v>
    <v>       0.82880048       0.07882500       0.74342103 </v>
    <v>       0.82880052       0.57882496       0.74342103 </v>
    <v>       0.00000350       0.25000148       0.72582199 </v>
    <v>       0.00000350       0.75000145       0.72582199 </v>
    <v>       0.50000351       0.25000148       0.72582199 </v>
    <v>       0.50000350       0.75000145       0.72582199 </v>
    <v>       0.25000050       0.00000000       0.72580398 </v>
    <v>       0.25000052       0.50000000       0.72580398 </v>
    <v>       0.75000050       0.00000000       0.72580398 </v>
    <v>       0.75000049       0.50000000       0.72580398 </v>
    <v>       0.77616932       0.55692036       0.51954636 </v>
    <v>       0.71933752       0.47884776       0.52471664 </v>
    <v>       0.86836553       0.50109603       0.53855877 </v>
    <v>       0.85916060       0.48168891       0.56607373 </v>
    <v>       0.74473819       0.64153195       0.56007131 </v>
    <v>       0.81260777       0.59680823       0.57585346 </v>
    <v>       0.66658398       0.54730706       0.56897653 </v>
    <v>       0.68068745       0.45409963       0.56032356 </v>
    <v>       0.61724977       0.55850355       0.53713832 </v>
    <v>       0.67367582       0.63883705       0.53493689 </v>
    <v>       0.60651707       0.64568797       0.50364120 </v>
    <v>       0.68693131       0.60260637       0.49417349 </v>
    <v>       0.78641227       0.38943955       0.52995811 </v>
    <v>       0.77844291       0.37202666       0.55765463 </v>
    <v>       0.86547887       0.36729332       0.54507332 </v>
    <v>       0.86333091       0.69627314       0.55303627 </v>
    <v>       0.84054037       0.64700686       0.52956899 </v>
    <v>       0.90695526       0.60948322       0.54785921 </v>
    <v>       0.77021214       0.52823526       0.59680675 </v>
    <v>       0.77332779       0.43355808       0.58900575 </v>
    <v>       0.69168870       0.47136084       0.60001753 </v>
    <v>       0.53717636       0.52863763       0.50455517 </v>
    <v>       0.57453062       0.54619651       0.47877795 </v>
    <v>       0.70180151       0.48039062       0.46976104 </v>
    <v>       0.55684437       0.41485090       0.52085967 </v>
    <v>       0.76487632       0.35852642       0.47160330 </v>
    <v>       0.62034219       0.29279840       0.52306226 </v>
    <v>       0.72571329       0.26481390       0.49876275 </v>
    <v>       0.01866194       0.25517425       0.55741465 </v>
    <v>       0.03606215       0.76302569       0.56086566 </v>
    <v>       0.46314943       0.22674752       0.55487783 </v>
    <v>       0.50022181       0.75631310       0.55472515 </v>
    <v>       0.23860222       0.53513502       0.55985227 </v>
    <v>       0.25082342       0.01404803       0.55713231 </v>
    <v>       0.77668906       0.98007386       0.56004982 </v>
    <v>       0.01104454       0.24445006       0.64837303 </v>
    <v>       0.01099173       0.76041712       0.65230888 </v>
    <v>       0.48285404       0.22816654       0.65421245 </v>
    <v>       0.50016189       0.75403361       0.64876911 </v>
    <v>       0.25353748       0.49552555       0.64879181 </v>
    <v>       0.25139992       0.99764947       0.64668715 </v>
    <v>       0.77603454       0.48450197       0.65526436 </v>
    <v>       0.75448092       0.99743353       0.64921506 </v>
    <v>       0.49998898       0.24999498       0.74327702 </v>
    <v>       0.49998903       0.74999496       0.74327702 </v>
    <v>       0.99998898       0.24999498       0.74327702 </v>
    <v>       0.99998903       0.74999496       0.74327702 </v>
    <v>       0.25000050       0.00000100       0.74325596 </v>
    <v>       0.25000052       0.50000100       0.74325596 </v>
    <v>       0.75000050       0.00000100       0.74325596 </v>
    <v>       0.75000049       0.50000100       0.74325596 </v>
    <v>       0.62537223       0.45632896       0.49548512 </v>
    <v>       0.68395329       0.43911303       0.48166244 </v>
    <v>       0.60262271       0.40219497       0.51009867 </v>
    <v>       0.71937640       0.37073377       0.48256704 </v>
    <v>       0.63830450       0.33357201       0.51128970 </v>
    <v>       0.69720720       0.31777005       0.49758866 </v>
    <v>       0.73174669       0.53552900       0.52966252 </v>
    <v>       0.83102037       0.47757507       0.55055726 </v>
    <v>       0.79319158       0.60512498       0.55945736 </v>
    <v>       0.70730398       0.50256808       0.56761811 </v>
    <v>       0.66277523       0.58345659       0.52790496 </v>
    <v>       0.63841623       0.59416296       0.50448173 </v>
    <v>       0.81316738       0.39787301       0.54548661 </v>
    <v>       0.85471698       0.64031069       0.54652472 </v>
    <v>       0.73845690       0.48334586       0.58931300 </v>
    <v>       0.58952837       0.53169927       0.49536318 </v>
    <v>       0.99355224       0.19339545       0.56555977 </v>
    <v>       0.03275688       0.70143448       0.57185992 </v>
    <v>       0.53322581       0.21373479       0.55914107 </v>
    <v>       0.47395280       0.69469639       0.56306849 </v>
    <v>       0.42859816       0.28993001       0.55747240 </v>
    <v>       0.47319020       0.82262026       0.55864921 </v>
    <v>       0.99535446       0.32112423       0.56299640 </v>
    <v>       0.98531521       0.81543343       0.56155385 </v>
    <v>       0.23553099       0.46553989       0.56597490 </v>
    <v>       0.19378908       0.97405726       0.56316305 </v>
    <v>       0.70548446       0.98483729       0.56392090 </v>
    <v>       0.31939393       0.99741047       0.56205211 </v>
    <v>       0.29994500       0.57284425       0.55700911 </v>
    <v>       0.82387876       0.03499322       0.56187679 </v>
    <v>       0.05584230       0.19271670       0.65554213 </v>
    <v>       0.06468828       0.71407193       0.65732575 </v>
    <v>       0.55372482       0.21119996       0.65565977 </v>
    <v>       0.53388968       0.70071205       0.65920057 </v>
    <v>       0.20678889       0.44875962       0.65759423 </v>
    <v>       0.20824255       0.95575671       0.65841196 </v>
    <v>       0.70813605       0.46162425       0.65878277 </v>
    <v>       0.70630247       0.95584416       0.65927688 </v>
    <v>       0.45484994       0.29407977       0.65758575 </v>
    <v>       0.46002563       0.80648755       0.65752904 </v>
    <v>       0.96840684       0.28675359       0.66007807 </v>
    <v>       0.94514116       0.76052029       0.66104774 </v>
    <v>       0.29991699       0.04578260       0.65380533 </v>
    <v>       0.29592848       0.54255115       0.65898587 </v>
    <v>       0.79864172       0.04622670       0.65823273 </v>
    <v>       0.79685822       0.55418850       0.65506657 </v>
    <v>       0.04586250       0.20411950       0.75272599 </v>
    <v>       0.04586250       0.70411946       0.75272599 </v>
    <v>       0.54586251       0.20411950       0.75272599 </v>
    <v>       0.54586250       0.70411946       0.75272599 </v>
    <v>       0.20411900       0.45410100       0.75270499 </v>
    <v>       0.20411899       0.95410095       0.75270499 </v>
    <v>       0.70411898       0.45410100       0.75270499 </v>
    <v>       0.70411896       0.95410095       0.75270499 </v>
    <v>       0.45414002       0.29588849       0.75272697 </v>
    <v>       0.45414001       0.79588852       0.75272697 </v>
    <v>       0.95414002       0.29588849       0.75272697 </v>
    <v>       0.95414006       0.79588852       0.75272697 </v>
    <v>       0.29588249       0.04590050       0.75270499 </v>
    <v>       0.29588248       0.54590053       0.75270499 </v>
    <v>       0.79588244       0.04590050       0.75270499 </v>
    <v>       0.79588248       0.54590053       0.75270499 </v>
    <v>       0.76541541       0.53016074       0.55179719 </v>
    <v>       0.51325086       0.01789860       0.55183700 </v>
    <v>       0.48101460       0.49522925       0.55478894 </v>
    <v>       0.00993539       0.00542520       0.54837280 </v>
    <v>       0.03818549       0.50656640       0.55328553 </v>
    <v>       0.23687596       0.24184466       0.55211415 </v>
    <v>       0.25645275       0.76575549       0.55361268 </v>
    <v>       0.73767646       0.20334878       0.55464994 </v>
    <v>       0.70142498       0.79199590       0.55426931 </v>
    <v>       0.00141462       0.98280471       0.65341884 </v>
    <v>       0.99661655       0.50595537       0.65484197 </v>
    <v>       0.49835234       0.01191112       0.65410953 </v>
    <v>       0.50942698       0.49040565       0.65502048 </v>
    <v>       0.26036407       0.24606100       0.65426483 </v>
    <v>       0.25930658       0.75405193       0.65466500 </v>
    <v>       0.74777228       0.26519022       0.65452251 </v>
    <v>       0.74584519       0.75038740       0.65451409 </v>
    <v>       0.13569339       0.11229897       0.60713462 </v>
    <v>       0.15111963       0.60444611       0.60812511 </v>
    <v>       0.64790224       0.10462593       0.60956888 </v>
    <v>       0.61615993       0.62838828       0.60931419 </v>
    <v>       0.35946339       0.38700449       0.60467777 </v>
    <v>       0.37482227       0.87993876       0.60640235 </v>
    <v>       0.89034570       0.36480826       0.60943848 </v>
    <v>       0.86987240       0.87670812       0.60460805 </v>
    <v>       0.12311605       0.36815904       0.60969360 </v>
    <v>       0.12374781       0.86525160       0.60728595 </v>
    <v>       0.59274991       0.33795844       0.60124227 </v>
    <v>       0.61705804       0.87160628       0.61268254 </v>
    <v>       0.38633030       0.13435422       0.60427748 </v>
    <v>       0.38527466       0.62848991       0.61103121 </v>
    <v>       0.88702126       0.13317634       0.61038692 </v>
    <v>       0.89600767       0.64497858       0.61048203 </v>
    <v>       0.00000000       0.00000000       0.75492797 </v>
    <v>       0.00000000       0.50000000       0.75492797 </v>
    <v>       0.50000000       0.00000000       0.75492797 </v>
    <v>       0.49999999       0.50000000       0.75492797 </v>
    <v>       0.25000050       0.25000000       0.75493902 </v>
    <v>       0.25000051       0.74999997       0.75493902 </v>
    <v>       0.75000047       0.25000000       0.75493902 </v>
    <v>       0.75000046       0.74999997       0.75493902 </v>
    <v>       0.13579050       0.11421000       0.70478299 </v>
    <v>       0.13579050       0.61420998       0.70478299 </v>
    <v>       0.63579045       0.11421000       0.70478299 </v>
    <v>       0.63579049       0.61420998       0.70478299 </v>
    <v>       0.36420952       0.38578999       0.70478299 </v>
    <v>       0.36420950       0.88578996       0.70478299 </v>
    <v>       0.86420954       0.38578999       0.70478299 </v>
    <v>       0.86420953       0.88578996       0.70478299 </v>
    <v>       0.11421799       0.36421899       0.70478098 </v>
    <v>       0.11421799       0.86421899       0.70478098 </v>
    <v>       0.61421800       0.36421899       0.70478098 </v>
    <v>       0.61421799       0.86421899       0.70478098 </v>
    <v>       0.38578201       0.13578149       0.70478202 </v>
    <v>       0.38578200       0.63578149       0.70478202 </v>
    <v>       0.88578199       0.13578149       0.70478202 </v>
    <v>       0.88578203       0.63578149       0.70478202 </v>
    <v>       0.13466700       0.11533200       0.80125603 </v>
    <v>       0.13466699       0.61533199       0.80125603 </v>
    <v>       0.63466699       0.11533200       0.80125603 </v>
    <v>       0.63466698       0.61533199       0.80125603 </v>
    <v>       0.36533300       0.38466799       0.80125603 </v>
    <v>       0.36533299       0.88466796       0.80125603 </v>
    <v>       0.86533295       0.38466799       0.80125603 </v>
    <v>       0.86533294       0.88466796       0.80125603 </v>
    <v>       0.11532850       0.36533700       0.80126500 </v>
    <v>       0.11532850       0.86533698       0.80126500 </v>
    <v>       0.61532850       0.36533700       0.80126500 </v>
    <v>       0.61532849       0.86533698       0.80126500 </v>
    <v>       0.38467151       0.13466300       0.80126500 </v>
    <v>       0.38467150       0.63466297       0.80126500 </v>
    <v>       0.88467149       0.13466300       0.80126500 </v>
    <v>       0.88467153       0.63466297       0.80126500 </v>
    <v>       0.00017668       0.99824409       0.60467429 </v>
    <v>       0.00700046       0.50400856       0.60483246 </v>
    <v>       0.50475470       0.00660776       0.60358386 </v>
    <v>       0.49861972       0.49228979       0.60476250 </v>
    <v>       0.24809444       0.24668338       0.60234783 </v>
    <v>       0.25280683       0.74484322       0.60391119 </v>
    <v>       0.74359198       0.24635522       0.60272688 </v>
    <v>       0.73811597       0.75485441       0.60317716 </v>
    <v>       0.00000050       0.00000050       0.70482896 </v>
    <v>       0.00000050       0.50000048       0.70482896 </v>
    <v>       0.50000048       0.00000050       0.70482896 </v>
    <v>       0.50000046       0.50000048       0.70482896 </v>
    <v>       0.24999999       0.24999947       0.70482499 </v>
    <v>       0.25000001       0.74999950       0.70482499 </v>
    <v>       0.74999999       0.24999947       0.70482499 </v>
    <v>       0.74999998       0.74999950       0.70482499 </v>
    <v>       0.00000000       0.00000000       0.80731797 </v>
    <v>       0.00000000       0.50000000       0.80731797 </v>
    <v>       0.50000000       0.00000000       0.80731797 </v>
    <v>       0.49999999       0.50000000       0.80731797 </v>
    <v>       0.24999999       0.25000000       0.80731797 </v>
    <v>       0.25000001       0.74999997       0.80731797 </v>
    <v>       0.74999999       0.25000000       0.80731797 </v>
    <v>       0.74999998       0.74999997       0.80731797 </v>
   </varray>
  </structure>
  <varray name="primitive_index" >
   <v type="int" >        1 </v>
   <v type="int" >        2 </v>
   <v type="int" >        3 </v>
   <v type="int" >        4 </v>
   <v type="int" >        5 </v>
   <v type="int" >        6 </v>
   <v type="int" >        7 </v>
   <v type="int" >        8 </v>
   <v type="int" >        9 </v>
   <v type="int" >       10 </v>
   <v type="int" >       11 </v>
   <v type="int" >       12 </v>
   <v type="int" >       13 </v>
   <v type="int" >       14 </v>
   <v type="int" >       15 </v>
   <v type="int" >       16 </v>
   <v type="int" >       17 </v>
   <v type="int" >       18 </v>
   <v type="int" >       19 </v>
   <v type="int" >       20 </v>
   <v type="int" >       21 </v>
   <v type="int" >       22 </v>
   <v type="int" >       23 </v>
   <v type="int" >       24 </v>
   <v type="int" >       25 </v>
   <v type="int" >       26 </v>
   <v type="int" >       27 </v>
   <v type="int" >       28 </v>
   <v type="int" >       29 </v>
   <v type="int" >       30 </v>
   <v type="int" >       31 </v>
   <v type="int" >       32 </v>
   <v type="int" >       33 </v>
   <v type="int" >       34 </v>
   <v type="int" >       35 </v>
   <v type="int" >       36 </v>
   <v type="int" >       37 </v>
   <v type="int" >       38 </v>
   <v type="int" >       39 </v>
   <v type="int" >       40 </v>
   <v type="int" >       41 </v>
   <v type="int" >       42 </v>
   <v type="int" >       43 </v>
   <v type="int" >       44 </v>
   <v type="int" >       45 </v>
   <v type="int" >       46 </v>
   <v type="int" >       47 </v>
   <v type="int" >       48 </v>
   <v type="int" >       49 </v>
   <v type="int" >       50 </v>
   <v type="int" >       51 </v>
   <v type="int" >       52 </v>
   <v type="int" >       53 </v>
   <v type="int" >       54 </v>
   <v type="int" >       55 </v>
   <v type="int" >       56 </v>
   <v type="int" >       57 </v>
   <v type="int" >       58 </v>
   <v type="int" >       59 </v>
   <v type="int" >       60 </v>
   <v type="int" >       61 </v>
   <v type="int" >       62 </v>
   <v type="int" >       63 </v>
   <v type="int" >       64 </v>
   <v type="int" >       65 </v>
   <v type="int" >       66 </v>
   <v type="int" >       67 </v>
   <v type="int" >       68 </v>
   <v type="int" >       69 </v>
   <v type="int" >       70 </v>
   <v type="int" >       71 </v>
   <v type="int" >       72 </v>
   <v type="int" >       73 </v>
   <v type="int" >       74 </v>
   <v type="int" >       75 </v>
   <v type="int" >       76 </v>
   <v type="int" >       77 </v>
   <v type="int" >       78 </v>
   <v type="int" >       79 </v>
   <v type="int" >       80 </v>
   <v type="int" >       81 </v>
   <v type="int" >       82 </v>
   <v type="int" >       83 </v>
   <v type="int" >       84 </v>
   <v type="int" >       85 </v>
   <v type="int" >       86 </v>
   <v type="int" >       87 </v>
   <v type="int" >       88 </v>
   <v type="int" >       89 </v>
   <v type="int" >       90 </v>
   <v type="int" >       91 </v>
   <v type="int" >       92 </v>
   <v type="int" >       93 </v>
   <v type="int" >       94 </v>
   <v type="int" >       95 </v>
   <v type="int" >       96 </v>
   <v type="int" >       97 </v>
   <v type="int" >       98 </v>
   <v type="int" >       99 </v>
   <v type="int" >      100 </v>
   <v type="int" >      101 </v>
   <v type="int" >      102 </v>
   <v type="int" >      103 </v>
   <v type="int" >      104 </v>
   <v type="int" >      105 </v>
   <v type="int" >      106 </v>
   <v type="int" >      107 </v>
   <v type="int" >      108 </v>
   <v type="int" >      109 </v>
   <v type="int" >      110 </v>
   <v type="int" >      111 </v>
   <v type="int" >      112 </v>
   <v type="int" >      113 </v>
   <v type="int" >      114 </v>
   <v type="int" >      115 </v>
   <v type="int" >      116 </v>
   <v type="int" >      117 </v>
   <v type="int" >      118 </v>
   <v type="int" >      119 </v>
   <v type="int" >      120 </v>
   <v type="int" >      121 </v>
   <v type="int" >      122 </v>
   <v type="int" >      123 </v>
   <v type="int" >      124 </v>
   <v type="int" >      125 </v>
   <v type="int" >      126 </v>
   <v type="int" >      127 </v>
   <v type="int" >      128 </v>
   <v type="int" >      129 </v>
   <v type="int" >      130 </v>
   <v type="int" >      131 </v>
   <v type="int" >      132 </v>
   <v type="int" >      133 </v>
   <v type="int" >      134 </v>
   <v type="int" >      135 </v>
   <v type="int" >      136 </v>
   <v type="int" >      137 </v>
   <v type="int" >      138 </v>
   <v type="int" >      139 </v>
   <v type="int" >      140 </v>
   <v type="int" >      141 </v>
   <v type="int" >      142 </v>
   <v type="int" >      143 </v>
   <v type="int" >      144 </v>
   <v type="int" >      145 </v>
   <v type="int" >      146 </v>
   <v type="int" >      147 </v>
   <v type="int" >      148 </v>
   <v type="int" >      149 </v>
   <v type="int" >      150 </v>
   <v type="int" >      151 </v>
   <v type="int" >      152 </v>
   <v type="int" >      153 </v>
   <v type="int" >      154 </v>
   <v type="int" >      155 </v>
   <v type="int" >      156 </v>
   <v type="int" >      157 </v>
   <v type="int" >      158 </v>
   <v type="int" >      159 </v>
   <v type="int" >      160 </v>
   <v type="int" >      161 </v>
   <v type="int" >      162 </v>
   <v type="int" >      163 </v>
   <v type="int" >      164 </v>
   <v type="int" >      165 </v>
   <v type="int" >      166 </v>
   <v type="int" >      167 </v>
   <v type="int" >      168 </v>
   <v type="int" >      169 </v>
   <v type="int" >      170 </v>
   <v type="int" >      171 </v>
   <v type="int" >      172 </v>
   <v type="int" >      173 </v>
   <v type="int" >      174 </v>
   <v type="int" >      175 </v>
   <v type="int" >      176 </v>
   <v type="int" >      177 </v>
   <v type="int" >      178 </v>
   <v type="int" >      179 </v>
   <v type="int" >      180 </v>
   <v type="int" >      181 </v>
   <v type="int" >      182 </v>
   <v type="int" >      183 </v>
   <v type="int" >      184 </v>
   <v type="int" >      185 </v>
   <v type="int" >      186 </v>
   <v type="int" >      187 </v>
   <v type="int" >      188 </v>
   <v type="int" >      189 </v>
   <v type="int" >      190 </v>
   <v type="int" >      191 </v>
   <v type="int" >      192 </v>
   <v type="int" >      193 </v>
   <v type="int" >      194 </v>
   <v type="int" >      195 </v>
   <v type="int" >      196 </v>
   <v type="int" >      197 </v>
   <v type="int" >      198 </v>
   <v type="int" >      199 </v>
   <v type="int" >      200 </v>
   <v type="int" >      201 </v>
   <v type="int" >      202 </v>
   <v type="int" >      203 </v>
   <v type="int" >      204 </v>
   <v type="int" >      205 </v>
   <v type="int" >      206 </v>
   <v type="int" >      207 </v>
   <v type="int" >      208 </v>
   <v type="int" >      209 </v>
   <v type="int" >      210 </v>
   <v type="int" >      211 </v>
   <v type="int" >      212 </v>
   <v type="int" >      213 </v>
   <v type="int" >      214 </v>
   <v type="int" >      215 </v>
   <v type="int" >      216 </v>
   <v type="int" >      217 </v>
   <v type="int" >      218 </v>
   <v type="int" >      219 </v>
   <v type="int" >      220 </v>
   <v type="int" >      221 </v>
   <v type="int" >      222 </v>
   <v type="int" >      223 </v>
   <v type="int" >      224 </v>
   <v type="int" >      225 </v>
   <v type="int" >      226 </v>
   <v type="int" >      227 </v>
   <v type="int" >      228 </v>
   <v type="int" >      229 </v>
   <v type="int" >      230 </v>
   <v type="int" >      231 </v>
   <v type="int" >      232 </v>
   <v type="int" >      233 </v>
   <v type="int" >      234 </v>
   <v type="int" >      235 </v>
   <v type="int" >      236 </v>
   <v type="int" >      237 </v>
   <v type="int" >      238 </v>
   <v type="int" >      239 </v>
   <v type="int" >      240 </v>
   <v type="int" >      241 </v>
   <v type="int" >      242 </v>
   <v type="int" >      243 </v>
   <v type="int" >      244 </v>
   <v type="int" >      245 </v>
   <v type="int" >      246 </v>
   <v type="int" >      247 </v>
   <v type="int" >      248 </v>
   <v type="int" >      249 </v>
   <v type="int" >      250 </v>
   <v type="int" >      251 </v>
   <v type="int" >      252 </v>
   <v type="int" >      253 </v>
   <v type="int" >      254 </v>
   <v type="int" >      255 </v>
   <v type="int" >      256 </v>
   <v type="int" >      257 </v>
   <v type="int" >      258 </v>
   <v type="int" >      259 </v>
   <v type="int" >      260 </v>
   <v type="int" >      261 </v>
   <v type="int" >      262 </v>
   <v type="int" >      263 </v>
   <v type="int" >      264 </v>
   <v type="int" >      265 </v>
   <v type="int" >      266 </v>
   <v type="int" >      267 </v>
   <v type="int" >      268 </v>
   <v type="int" >      269 </v>
   <v type="int" >      270 </v>
   <v type="int" >      271 </v>
   <v type="int" >      272 </v>
   <v type="int" >      273 </v>
   <v type="int" >      274 </v>
   <v type="int" >      275 </v>
   <v type="int" >      276 </v>
   <v type="int" >      277 </v>
   <v type="int" >      278 </v>
   <v type="int" >      279 </v>
   <v type="int" >      280 </v>
   <v type="int" >      281 </v>
   <v type="int" >      282 </v>
   <v type="int" >      283 </v>
   <v type="int" >      284 </v>
   <v type="int" >      285 </v>
   <v type="int" >      286 </v>
   <v type="int" >      287 </v>
   <v type="int" >      288 </v>
   <v type="int" >      289 </v>
   <v type="int" >      290 </v>
   <v type="int" >      291 </v>
   <v type="int" >      292 </v>
   <v type="int" >      293 </v>
   <v type="int" >      294 </v>
   <v type="int" >      295 </v>
   <v type="int" >      296 </v>
   <v type="int" >      297 </v>
   <v type="int" >      298 </v>
   <v type="int" >      299 </v>
   <v type="int" >      300 </v>
   <v type="int" >      301 </v>
   <v type="int" >      302 </v>
   <v type="int" >      303 </v>
   <v type="int" >      304 </v>
   <v type="int" >      305 </v>
   <v type="int" >      306 </v>
   <v type="int" >      307 </v>
   <v type="int" >      308 </v>
   <v type="int" >      309 </v>
   <v type="int" >      310 </v>
   <v type="int" >      311 </v>
   <v type="int" >      312 </v>
   <v type="int" >      313 </v>
   <v type="int" >      314 </v>
   <v type="int" >      315 </v>
   <v type="int" >      316 </v>
   <v type="int" >      317 </v>
   <v type="int" >      318 </v>
   <v type="int" >      319 </v>
   <v type="int" >      320 </v>
   <v type="int" >      321 </v>
   <v type="int" >      322 </v>
   <v type="int" >      323 </v>
   <v type="int" >      324 </v>
   <v type="int" >      325 </v>
  </varray>
 </primitive_cell>
 <kpoints>
  <generation param="Gamma">
   <v type="int" name="divisions">       3        3        1 </v>
   <v name="usershift">      0.00000000       0.00000000       0.00000000 </v>
   <v name="genvec1">      0.33333333       0.00000000       0.00000000 </v>
   <v name="genvec2">      0.00000000       0.33333333       0.00000000 </v>
   <v name="genvec3">      0.00000000       0.00000000       1.00000000 </v>
   <v name="shift">      0.00000000       0.00000000       0.00000000 </v>
  </generation>
  <varray name="kpointlist" >
   <v>       0.00000000       0.00000000       0.00000000 </v>
   <v>       0.33333333       0.00000000       0.00000000 </v>
   <v>       0.00000000       0.33333333       0.00000000 </v>
   <v>       0.33333333       0.33333333       0.00000000 </v>
   <v>      -0.33333333       0.33333333       0.00000000 </v>
  </varray>
  <varray name="weights" >
   <v>       0.11111111 </v>
   <v>       0.22222222 </v>
   <v>       0.22222222 </v>
   <v>       0.22222222 </v>
   <v>       0.22222222 </v>
  </varray>
 </kpoints>
 <parameters>
  <separator name="general" >
   <i type="string" name="SYSTEM">PSC</i>
   <i type="logical" name="LCOMPAT"> F  </i>
  </separator>
  <separator name="electronic" >
   <i type="string" name="PREC">normal</i>
   <i name="ENMAX">    500.00000000</i>
   <i name="ENAUG">    644.87300000</i>
   <i name="EDIFF">      0.00010000</i>
   <i type="int" name="IALGO">    38</i>
   <i type="int" name="IWAVPR">    10</i>
   <i type="int" name="NBANDS">   732</i>
   <i type="int" name="NBANDSLOW">    -1</i>
   <i type="int" name="NBANDSHIGH">    -1</i>
   <i name="NELECT">   1134.00000000</i>
   <i type="int" name="TURBO">     0</i>
   <i type="int" name="IRESTART">     0</i>
   <i type="int" name="NREBOOT">     0</i>
   <i type="int" name="NMIN">     0</i>
   <i name="EREF">      0.00000000</i>
   <separator name="electronic smearing" >
    <i type="int" name="ISMEAR">     0</i>
    <i name="SIGMA">      0.05000000</i>
    <i name="KSPACING">      0.50000000</i>
    <i type="logical" name="KGAMMA"> T  </i>
    <i type="logical" name="KBLOWUP"> T  </i>
   </separator>
   <separator name="electronic projectors" >
    <i type="logical" name="LREAL"> T  </i>
    <v name="ROPT">     -0.00050000     -0.00050000     -0.00050000     -0.00050000     -0.00050000</v>
    <i type="int" name="LMAXPAW">  -100</i>
    <i type="int" name="LMAXMIX">     2</i>
    <i type="logical" name="NLSPLINE"> F  </i>
   </separator>
   <separator name="electronic startup" >
    <i type="int" name="ISTART">     0</i>
    <i type="int" name="ICHARG">     1</i>
    <i type="int" name="INIWAV">     1</i>
   </separator>
   <separator name="electronic spin" >
    <i type="int" name="ISPIN">     1</i>
    <i type="logical" name="LNONCOLLINEAR"> F  </i>
    <v name="MAGMOM">      1.00000000      1.00000000      1.00000000      1.00000000      1.00000000      1.00000000      1.00000000      1.00000000      1.00000000      1.00000000      1.00000000      1.00000000      1.00000000      1.00000000      1.00000000      1.00000000      1.00000000      1.00000000      1.00000000      1.00000000
      1.00000000      1.00000000      1.00000000      1.00000000      1.00000000      1.00000000      1.00000000      1.00000000      1.00000000      1.00000000      1.00000000      1.00000000      1.00000000      1.00000000      1.00000000      1.00000000      1.00000000      1.00000000      1.00000000      1.00000000
      1.00000000      1.00000000      1.00000000      1.00000000      1.00000000      1.00000000      1.00000000      1.00000000      1.00000000      1.00000000      1.00000000      1.00000000      1.00000000      1.00000000      1.00000000      1.00000000      1.00000000      1.00000000      1.00000000      1.00000000
      1.00000000      1.00000000      1.00000000      1.00000000      1.00000000      1.00000000      1.00000000      1.00000000      1.00000000      1.00000000      1.00000000      1.00000000      1.00000000      1.00000000      1.00000000      1.00000000      1.00000000      1.00000000      1.00000000      1.00000000
      1.00000000      1.00000000      1.00000000      1.00000000      1.00000000      1.00000000      1.00000000      1.00000000      1.00000000      1.00000000      1.00000000      1.00000000      1.00000000      1.00000000      1.00000000      1.00000000      1.00000000      1.00000000      1.00000000      1.00000000
      1.00000000      1.00000000      1.00000000      1.00000000      1.00000000      1.00000000      1.00000000      1.00000000      1.00000000      1.00000000      1.00000000      1.00000000      1.00000000      1.00000000      1.00000000      1.00000000      1.00000000      1.00000000      1.00000000      1.00000000
      1.00000000      1.00000000      1.00000000      1.00000000      1.00000000      1.00000000      1.00000000      1.00000000      1.00000000      1.00000000      1.00000000      1.00000000      1.00000000      1.00000000      1.00000000      1.00000000      1.00000000      1.00000000      1.00000000      1.00000000
      1.00000000      1.00000000      1.00000000      1.00000000      1.00000000      1.00000000      1.00000000      1.00000000      1.00000000      1.00000000      1.00000000      1.00000000      1.00000000      1.00000000      1.00000000      1.00000000      1.00000000      1.00000000      1.00000000      1.00000000
      1.00000000      1.00000000      1.00000000      1.00000000      1.00000000      1.00000000      1.00000000      1.00000000      1.00000000      1.00000000      1.00000000      1.00000000      1.00000000      1.00000000      1.00000000      1.00000000      1.00000000      1.00000000      1.00000000      1.00000000
      1.00000000      1.00000000      1.00000000      1.00000000      1.00000000      1.00000000      1.00000000      1.00000000      1.00000000      1.00000000      1.00000000      1.00000000      1.00000000      1.00000000      1.00000000      1.00000000      1.00000000      1.00000000      1.00000000      1.00000000
      1.00000000      1.00000000      1.00000000      1.00000000      1.00000000      1.00000000      1.00000000      1.00000000      1.00000000      1.00000000      1.00000000      1.00000000      1.00000000      1.00000000      1.00000000      1.00000000      1.00000000      1.00000000      1.00000000      1.00000000
      1.00000000      1.00000000      1.00000000      1.00000000      1.00000000      1.00000000      1.00000000      1.00000000      1.00000000      1.00000000      1.00000000      1.00000000      1.00000000      1.00000000      1.00000000      1.00000000      1.00000000      1.00000000      1.00000000      1.00000000
      1.00000000      1.00000000      1.00000000      1.00000000      1.00000000      1.00000000      1.00000000      1.00000000      1.00000000      1.00000000      1.00000000      1.00000000      1.00000000      1.00000000      1.00000000      1.00000000      1.00000000      1.00000000      1.00000000      1.00000000
      1.00000000      1.00000000      1.00000000      1.00000000      1.00000000      1.00000000      1.00000000      1.00000000      1.00000000      1.00000000      1.00000000      1.00000000      1.00000000      1.00000000      1.00000000      1.00000000      1.00000000      1.00000000      1.00000000      1.00000000
      1.00000000      1.00000000      1.00000000      1.00000000      1.00000000      1.00000000      1.00000000      1.00000000      1.00000000      1.00000000      1.00000000      1.00000000      1.00000000      1.00000000      1.00000000      1.00000000      1.00000000      1.00000000      1.00000000      1.00000000
      1.00000000      1.00000000      1.00000000      1.00000000      1.00000000      1.00000000      1.00000000      1.00000000      1.00000000      1.00000000      1.00000000      1.00000000      1.00000000      1.00000000      1.00000000      1.00000000      1.00000000      1.00000000      1.00000000      1.00000000
      1.00000000      1.00000000      1.00000000      1.00000000      1.00000000</v>
    <i name="NUPDOWN">     -1.00000000</i>
    <i type="logical" name="LSORBIT"> F  </i>
    <v name="SAXIS">      0.00000000      0.00000000      1.00000000</v>
    <i type="logical" name="LSPIRAL"> F  </i>
    <v name="QSPIRAL">      0.00000000      0.00000000      0.00000000</v>
    <i type="logical" name="LZEROZ"> F  </i>
   </separator>
   <separator name="electronic exchange-correlation" >
    <i type="logical" name="LASPH"> F  </i>
    <i type="logical" name="LMETAGGA"> F  </i>
   </separator>
   <separator name="electronic convergence" >
    <i type="int" name="NELM">   600</i>
    <i type="int" name="NELMDL">     0</i>
    <i type="int" name="NELMIN">     2</i>
    <i name="ENINI">    500.00000000</i>
    <separator name="electronic convergence detail" >
     <i type="logical" name="LDIAG"> T  </i>
     <i type="logical" name="LSUBROT"> F  </i>
     <i name="WEIMIN">      0.00000000</i>
     <i name="EBREAK">      0.00000003</i>
     <i name="DEPER">      0.30000000</i>
     <i type="int" name="NRMM">     4</i>
     <i name="TIME">      0.40000000</i>
    </separator>
   </separator>
   <separator name="electronic mixer" >
    <i name="AMIX">      0.40000000</i>
    <i name="BMIX">      0.01000000</i>
    <i name="AMIN">      0.01000000</i>
    <i name="AMIX_MAG">      1.60000000</i>
    <i name="BMIX_MAG">      0.01000000</i>
    <separator name="electronic mixer details" >
     <i type="int" name="IMIX">     4</i>
     <i type="logical" name="MIXFIRST"> F  </i>
     <i type="int" name="MAXMIX">   -45</i>
     <i name="WC">    100.00000000</i>
     <i type="int" name="INIMIX">     1</i>
     <i type="int" name="MIXPRE">     1</i>
     <i type="int" name="MREMOVE">     5</i>
    </separator>
   </separator>
   <separator name="electronic dipolcorrection" >
    <i type="logical" name="LDIPOL"> T  </i>
    <i type="logical" name="LMONO"> F  </i>
    <i type="int" name="IDIPOL">     3</i>
    <i name="EPSILON">      1.00000000</i>
    <v name="DIPOL">   -100.00000000   -100.00000000   -100.00000000</v>
    <i name="EFIELD">      0.00000000</i>
   </separator>
  </separator>
  <separator name="grids" >
   <i type="int" name="NGX">   100</i>
   <i type="int" name="NGY">   100</i>
   <i type="int" name="NGZ">   350</i>
   <i type="int" name="NGXF">   200</i>
   <i type="int" name="NGYF">   200</i>
   <i type="int" name="NGZF">   700</i>
   <i type="logical" name="ADDGRID"> F  </i>
  </separator>
  <separator name="ionic" >
   <i type="int" name="NSW">     0</i>
   <i type="int" name="IBRION">    -1</i>
   <i type="int" name="MDALGO">     0</i>
   <i type="int" name="ISIF">     2</i>
   <i name="PSTRESS">      0.00000000</i>
   <i name="EDIFFG">      0.00100000</i>
   <i type="int" name="NFREE">     0</i>
   <i name="POTIM">      0.50000000</i>
   <i name="SMASS">     -3.00000000</i>
   <i name="SCALEE">      1.00000000</i>
  </separator>
  <separator name="ionic md" >
   <i name="TEBEG">      0.00010000</i>
   <i name="TEEND">      0.00010000</i>
   <i type="int" name="NBLOCK">     1</i>
   <i type="int" name="KBLOCK">     1</i>
   <i type="int" name="NPACO">   256</i>
   <i name="APACO">     16.00000000</i>
  </separator>
  <separator name="symmetry" >
   <i type="int" name="ISYM">     0</i>
   <i name="SYMPREC">      0.00001000</i>
  </separator>
  <separator name="dos" >
   <i type="int" name="LORBIT">     0</i>
   <v name="RWIGS">     -1.00000000     -1.00000000     -1.00000000     -1.00000000     -1.00000000</v>
   <i type="int" name="NEDOS">   301</i>
   <i name="EMIN">     10.00000000</i>
   <i name="EMAX">    -10.00000000</i>
   <i name="EFERMI">      0.00000000</i>
  </separator>
  <separator name="writing" >
   <i type="int" name="NWRITE">     2</i>
   <i type="logical" name="LWAVE"> F  </i>
   <i type="logical" name="LDOWNSAMPLE"> F  </i>
   <i type="logical" name="LCHARG"> T  </i>
   <i type="logical" name="LPARD"> F  </i>
   <i type="logical" name="LVTOT"> T  </i>
   <i type="logical" name="LVHAR"> F  </i>
   <i type="logical" name="LELF"> F  </i>
   <i type="logical" name="LOPTICS"> F  </i>
   <v name="STM">      0.00000000      0.00000000      0.00000000      0.00000000      0.00000000      0.00000000      0.00000000</v>
  </separator>
  <separator name="performance" >
   <i type="int" name="NPAR">     4</i>
   <i type="int" name="NSIM">     4</i>
   <i type="int" name="NBLK">    -1</i>
   <i type="logical" name="LPLANE"> T  </i>
   <i type="logical" name="LSCALAPACK"> T  </i>
   <i type="logical" name="LSCAAWARE"> F  </i>
   <i type="logical" name="LSCALU"> F  </i>
   <i type="logical" name="LASYNC"> F  </i>
   <i type="logical" name="LORBITALREAL"> F  </i>
  </separator>
  <separator name="miscellaneous" >
   <i type="int" name="IDIOT">     3</i>
   <i type="int" name="PHON_NSTRUCT">    -1</i>
   <i type="logical" name="LMUSIC"> F  </i>
   <v name="POMASS">      1.00000000     12.01100000     14.00100000    126.90400000    207.20000000</v>
   <v name="DARWINR">      0.00000000      0.00000000      0.00000000      0.00000000      0.00000000</v>
   <v name="DARWINV">      1.00000000      1.00000000      1.00000000      1.00000000      1.00000000</v>
   <i type="logical" name="LCORR"> T  </i>
  </separator>
  <i type="logical" name="GGA_COMPAT"> F  </i>
  <i type="logical" name="LBERRY"> F  </i>
  <i type="int" name="ICORELEVEL">     0</i>
  <i type="logical" name="LDAU"> F  </i>
  <i type="int" name="I_CONSTRAINED_M">     0</i>
  <separator name="electronic exchange-correlation" >
   <i type="string" name="GGA">--</i>
   <i type="int" name="VOSKOWN">     0</i>
   <i type="logical" name="LHFCALC"> F  </i>
   <i type="string" name="PRECFOCK"></i>
   <i type="logical" name="LSYMGRAD"> F  </i>
   <i type="logical" name="LHFONE"> F  </i>
   <i type="logical" name="LRHFCALC"> F  </i>
   <i type="logical" name="LTHOMAS"> F  </i>
   <i type="logical" name="LMODELHF"> F  </i>
   <i type="logical" name="LFOCKACE"> F  </i>
   <i name="ENCUT4O">     -1.00000000</i>
   <i type="int" name="EXXOEP">     0</i>
   <i type="int" name="FOURORBIT">     0</i>
   <i name="AEXX">      0.00000000</i>
   <i name="HFALPHA">      0.00000000</i>
   <i name="MCALPHA">      0.00000000</i>
   <i name="ALDAX">      1.00000000</i>
   <i name="AGGAX">      1.00000000</i>
   <i name="ALDAC">      1.00000000</i>
   <i name="AGGAC">      1.00000000</i>
   <i type="int" name="NKREDX">     1</i>
   <i type="int" name="NKREDY">     1</i>
   <i type="int" name="NKREDZ">     1</i>
   <i type="logical" name="SHIFTRED"> F  </i>
   <i type="logical" name="ODDONLY"> F  </i>
   <i type="logical" name="EVENONLY"> F  </i>
   <i type="int" name="LMAXFOCK">     0</i>
   <i type="int" name="NMAXFOCKAE">     0</i>
   <i type="logical" name="LFOCKAEDFT"> F  </i>
   <i name="HFSCREEN">      0.00000000</i>
   <i name="HFSCREENC">      0.00000000</i>
   <i type="int" name="NBANDSGWLOW">     0</i>
  </separator>
  <separator name="vdW DFT" >
   <i type="logical" name="LUSE_VDW"> F  </i>
   <i name="Zab_VDW">     -0.84910000</i>
   <i name="PARAM1">      0.12340000</i>
   <i name="PARAM2">      1.00000000</i>
   <i name="PARAM3">      0.00000000</i>
  </separator>
  <separator name="model GW" >
   <i type="int" name="MODEL_GW">     0</i>
   <i name="MODEL_EPS0">     37.63423484</i>
   <i name="MODEL_ALPHA">      1.00000000</i>
  </separator>
  <separator name="linear response parameters" >
   <i type="logical" name="LEPSILON"> F  </i>
   <i type="logical" name="LRPA"> F  </i>
   <i type="logical" name="LNABLA"> F  </i>
   <i type="logical" name="LVEL"> F  </i>
   <i type="int" name="KINTER">     0</i>
   <i name="CSHIFT">      0.10000000</i>
   <i name="OMEGAMAX">     -1.00000000</i>
   <i name="DEG_THRESHOLD">      0.00200000</i>
   <i name="RTIME">     -0.10000000</i>
   <i name="WPLASMAI">      0.00000000</i>
   <v name="DFIELD">      0.00000000      0.00000000      0.00000000</v>
   <v name="WPLASMA">      0.00000000      0.00000000      0.00000000      0.00000000      0.00000000      0.00000000      0.00000000      0.00000000      0.00000000</v>
  </separator>
  <separator name="orbital magnetization" >
   <i type="logical" name="NUCIND"> F  </i>
   <v name="MAGPOS">      0.00000000      0.00000000      0.00000000</v>
   <i type="logical" name="LNICSALL"> T  </i>
   <i type="logical" name="ORBITALMAG"> F  </i>
   <i type="logical" name="LMAGBLOCH"> F  </i>
   <i type="logical" name="LCHIMAG"> F  </i>
   <i type="logical" name="LGAUGE"> T  </i>
   <i type="int" name="MAGATOM">     0</i>
   <v name="MAGDIPOL">      0.00000000      0.00000000      0.00000000</v>
   <v name="AVECCONST">      0.00000000      0.00000000      0.00000000</v>
  </separator>
  <separator name="response functions" >
   <i type="logical" name="LFINITE_TEMPERATURE"> F  </i>
   <i type="logical" name="LADDER"> F  </i>
   <i type="logical" name="LRPAFORCE"> F  </i>
   <i type="logical" name="LFXC"> F  </i>
   <i type="logical" name="LHARTREE"> T  </i>
   <i type="int" name="IBSE">     0</i>
   <v type="int" name="KPOINT">    -1     0     0     0</v>
   <i type="logical" name="LTCTC"> F  </i>
   <i type="logical" name="LTCTE"> F  </i>
   <i type="logical" name="LTETE"> F  </i>
   <i type="logical" name="LTRIPLET"> F  </i>
   <i type="logical" name="LFXCEPS"> F  </i>
   <i type="logical" name="LFXHEG"> F  </i>
   <i type="int" name="NATURALO">     2</i>
   <i type="logical" name="LHOLEGF"> F  </i>
   <i type="logical" name="L2ORDER"> F  </i>
   <i type="logical" name="LDMP1"> F  </i>
   <i type="logical" name="LMP2LT"> F  </i>
   <i type="logical" name="LSMP2LT"> F  </i>
   <i type="logical" name="LGWLF"> F  </i>
   <i name="ENCUTGW">     -2.00000000</i>
   <i name="ENCUTGWSOFT">     -2.00000000</i>
   <i name="ENCUTLF">     -1.00000000</i>
   <i type="logical" name="LESF_SPLINES"> F  </i>
   <i type="int" name="LMAXMP2">    -1</i>
   <i name="SCISSOR">      0.00000000</i>
   <i type="int" name="NOMEGA">     0</i>
   <i type="int" name="NOMEGAR">     0</i>
   <i type="int" name="NBANDSGW">    -1</i>
   <i type="int" name="NBANDSO">    -1</i>
   <i type="int" name="NBANDSV">    -1</i>
   <i type="int" name="NELM">   600</i>
   <i type="int" name="NELMHF">     1</i>
   <i type="int" name="DIM">     3</i>
   <i type="int" name="IESPILON">     4</i>
   <i type="int" name="ANTIRES">     0</i>
   <i name="OMEGAMAX">    -30.00000000</i>
   <i name="OMEGAMIN">    -30.00000000</i>
   <i name="OMEGATL">   -200.00000000</i>
   <i type="int" name="OMEGAGRID">     0</i>
   <i name="CSHIFT">     -0.10000000</i>
   <i type="logical" name="LSELFENERGY"> F  </i>
   <i type="logical" name="LSPECTRAL"> F  </i>
   <i type="logical" name="LSPECTRALGW"> F  </i>
   <i type="logical" name="LSINGLES"> F  </i>
   <i type="logical" name="LFERMIGW"> F  </i>
   <i type="logical" name="ODDONLYGW"> F  </i>
   <i type="logical" name="EVENONLYGW"> F  </i>
   <i type="int" name="NKREDLFX">     1</i>
   <i type="int" name="NKREDLFY">     1</i>
   <i type="int" name="NKREDLFZ">     1</i>
   <i type="int" name="MAXMEM">  2800</i>
   <i type="int" name="TELESCOPE">     0</i>
   <i type="int" name="NTAUPAR">    -1</i>
   <i type="int" name="NOMEGAPAR">    -1</i>
   <i name="DAMP_NEWTON">      0.80000001</i>
   <i name="LAMBDA">      1.00000000</i>
  </separator>
  <separator name="External order field" >
   <i name="OFIELD_KAPPA">      0.00000000</i>
   <v name="OFIELD_K">      0.00000000      0.00000000      0.00000000</v>
   <i name="OFIELD_Q6_NEAR">      0.00000000</i>
   <i name="OFIELD_Q6_FAR">      0.00000000</i>
   <i name="OFIELD_A">      0.00000000</i>
  </separator>
 </parameters>
 <atominfo>
  <atoms>     325 </atoms>
  <types>       5 </types>
  <array name="atoms" >
   <dimension dim="1">ion</dimension>
   <field type="string">element</field>
   <field type="int">atomtype</field>
   <set>
    <rc><c>H </c><c>   1</c></rc>
    <rc><c>H </c><c>   1</c></rc>
    <rc><c>H </c><c>   1</c></rc>
    <rc><c>H </c><c>   1</c></rc>
    <rc><c>H </c><c>   1</c></rc>
    <rc><c>H </c><c>   1</c></rc>
    <rc><c>H </c><c>   1</c></rc>
    <rc><c>H </c><c>   1</c></rc>
    <rc><c>H </c><c>   1</c></rc>
    <rc><c>H </c><c>   1</c></rc>
    <rc><c>H </c><c>   1</c></rc>
    <rc><c>H </c><c>   1</c></rc>
    <rc><c>H </c><c>   1</c></rc>
    <rc><c>H </c><c>   1</c></rc>
    <rc><c>H </c><c>   1</c></rc>
    <rc><c>H </c><c>   1</c></rc>
    <rc><c>H </c><c>   1</c></rc>
    <rc><c>H </c><c>   1</c></rc>
    <rc><c>H </c><c>   1</c></rc>
    <rc><c>H </c><c>   1</c></rc>
    <rc><c>H </c><c>   1</c></rc>
    <rc><c>H </c><c>   1</c></rc>
    <rc><c>H </c><c>   1</c></rc>
    <rc><c>H </c><c>   1</c></rc>
    <rc><c>H </c><c>   1</c></rc>
    <rc><c>H </c><c>   1</c></rc>
    <rc><c>H </c><c>   1</c></rc>
    <rc><c>H </c><c>   1</c></rc>
    <rc><c>H </c><c>   1</c></rc>
    <rc><c>H </c><c>   1</c></rc>
    <rc><c>H </c><c>   1</c></rc>
    <rc><c>H </c><c>   1</c></rc>
    <rc><c>H </c><c>   1</c></rc>
    <rc><c>H </c><c>   1</c></rc>
    <rc><c>H </c><c>   1</c></rc>
    <rc><c>H </c><c>   1</c></rc>
    <rc><c>H </c><c>   1</c></rc>
    <rc><c>H </c><c>   1</c></rc>
    <rc><c>H </c><c>   1</c></rc>
    <rc><c>H </c><c>   1</c></rc>
    <rc><c>H </c><c>   1</c></rc>
    <rc><c>H </c><c>   1</c></rc>
    <rc><c>H </c><c>   1</c></rc>
    <rc><c>H </c><c>   1</c></rc>
    <rc><c>H </c><c>   1</c></rc>
    <rc><c>H </c><c>   1</c></rc>
    <rc><c>H </c><c>   1</c></rc>
    <rc><c>H </c><c>   1</c></rc>
    <rc><c>H </c><c>   1</c></rc>
    <rc><c>H </c><c>   1</c></rc>
    <rc><c>H </c><c>   1</c></rc>
    <rc><c>H </c><c>   1</c></rc>
    <rc><c>H </c><c>   1</c></rc>
    <rc><c>H </c><c>   1</c></rc>
    <rc><c>H </c><c>   1</c></rc>
    <rc><c>H </c><c>   1</c></rc>
    <rc><c>H </c><c>   1</c></rc>
    <rc><c>H </c><c>   1</c></rc>
    <rc><c>H </c><c>   1</c></rc>
    <rc><c>H </c><c>   1</c></rc>
    <rc><c>H </c><c>   1</c></rc>
    <rc><c>H </c><c>   1</c></rc>
    <rc><c>H </c><c>   1</c></rc>
    <rc><c>H </c><c>   1</c></rc>
    <rc><c>H </c><c>   1</c></rc>
    <rc><c>H </c><c>   1</c></rc>
    <rc><c>H </c><c>   1</c></rc>
    <rc><c>H </c><c>   1</c></rc>
    <rc><c>H </c><c>   1</c></rc>
    <rc><c>H </c><c>   1</c></rc>
    <rc><c>H </c><c>   1</c></rc>
    <rc><c>H </c><c>   1</c></rc>
    <rc><c>H </c><c>   1</c></rc>
    <rc><c>H </c><c>   1</c></rc>
    <rc><c>H </c><c>   1</c></rc>
    <rc><c>H </c><c>   1</c></rc>
    <rc><c>H </c><c>   1</c></rc>
    <rc><c>H </c><c>   1</c></rc>
    <rc><c>H </c><c>   1</c></rc>
    <rc><c>H </c><c>   1</c></rc>
    <rc><c>H </c><c>   1</c></rc>
    <rc><c>H </c><c>   1</c></rc>
    <rc><c>H </c><c>   1</c></rc>
    <rc><c>H </c><c>   1</c></rc>
    <rc><c>H </c><c>   1</c></rc>
    <rc><c>H </c><c>   1</c></rc>
    <rc><c>H </c><c>   1</c></rc>
    <rc><c>H </c><c>   1</c></rc>
    <rc><c>H </c><c>   1</c></rc>
    <rc><c>H </c><c>   1</c></rc>
    <rc><c>H </c><c>   1</c></rc>
    <rc><c>H </c><c>   1</c></rc>
    <rc><c>H </c><c>   1</c></rc>
    <rc><c>H </c><c>   1</c></rc>
    <rc><c>H </c><c>   1</c></rc>
    <rc><c>H </c><c>   1</c></rc>
    <rc><c>H </c><c>   1</c></rc>
    <rc><c>H </c><c>   1</c></rc>
    <rc><c>H </c><c>   1</c></rc>
    <rc><c>H </c><c>   1</c></rc>
    <rc><c>H </c><c>   1</c></rc>
    <rc><c>H </c><c>   1</c></rc>
    <rc><c>H </c><c>   1</c></rc>
    <rc><c>H </c><c>   1</c></rc>
    <rc><c>H </c><c>   1</c></rc>
    <rc><c>H </c><c>   1</c></rc>
    <rc><c>H </c><c>   1</c></rc>
    <rc><c>H </c><c>   1</c></rc>
    <rc><c>H </c><c>   1</c></rc>
    <rc><c>H </c><c>   1</c></rc>
    <rc><c>H </c><c>   1</c></rc>
    <rc><c>H </c><c>   1</c></rc>
    <rc><c>H </c><c>   1</c></rc>
    <rc><c>H </c><c>   1</c></rc>
    <rc><c>H </c><c>   1</c></rc>
    <rc><c>H </c><c>   1</c></rc>
    <rc><c>H </c><c>   1</c></rc>
    <rc><c>H </c><c>   1</c></rc>
    <rc><c>H </c><c>   1</c></rc>
    <rc><c>H </c><c>   1</c></rc>
    <rc><c>H </c><c>   1</c></rc>
    <rc><c>H </c><c>   1</c></rc>
    <rc><c>H </c><c>   1</c></rc>
    <rc><c>H </c><c>   1</c></rc>
    <rc><c>H </c><c>   1</c></rc>
    <rc><c>H </c><c>   1</c></rc>
    <rc><c>H </c><c>   1</c></rc>
    <rc><c>H </c><c>   1</c></rc>
    <rc><c>H </c><c>   1</c></rc>
    <rc><c>H </c><c>   1</c></rc>
    <rc><c>H </c><c>   1</c></rc>
    <rc><c>H </c><c>   1</c></rc>
    <rc><c>H </c><c>   1</c></rc>
    <rc><c>H </c><c>   1</c></rc>
    <rc><c>H </c><c>   1</c></rc>
    <rc><c>H </c><c>   1</c></rc>
    <rc><c>H </c><c>   1</c></rc>
    <rc><c>H </c><c>   1</c></rc>
    <rc><c>H </c><c>   1</c></rc>
    <rc><c>H </c><c>   1</c></rc>
    <rc><c>H </c><c>   1</c></rc>
    <rc><c>H </c><c>   1</c></rc>
    <rc><c>H </c><c>   1</c></rc>
    <rc><c>C </c><c>   2</c></rc>
    <rc><c>C </c><c>   2</c></rc>
    <rc><c>C </c><c>   2</c></rc>
    <rc><c>C </c><c>   2</c></rc>
    <rc><c>C </c><c>   2</c></rc>
    <rc><c>C </c><c>   2</c></rc>
    <rc><c>C </c><c>   2</c></rc>
    <rc><c>C </c><c>   2</c></rc>
    <rc><c>C </c><c>   2</c></rc>
    <rc><c>C </c><c>   2</c></rc>
    <rc><c>C </c><c>   2</c></rc>
    <rc><c>C </c><c>   2</c></rc>
    <rc><c>C </c><c>   2</c></rc>
    <rc><c>C </c><c>   2</c></rc>
    <rc><c>C </c><c>   2</c></rc>
    <rc><c>C </c><c>   2</c></rc>
    <rc><c>C </c><c>   2</c></rc>
    <rc><c>C </c><c>   2</c></rc>
    <rc><c>C </c><c>   2</c></rc>
    <rc><c>C </c><c>   2</c></rc>
    <rc><c>C </c><c>   2</c></rc>
    <rc><c>C </c><c>   2</c></rc>
    <rc><c>C </c><c>   2</c></rc>
    <rc><c>C </c><c>   2</c></rc>
    <rc><c>C </c><c>   2</c></rc>
    <rc><c>C </c><c>   2</c></rc>
    <rc><c>C </c><c>   2</c></rc>
    <rc><c>C </c><c>   2</c></rc>
    <rc><c>C </c><c>   2</c></rc>
    <rc><c>C </c><c>   2</c></rc>
    <rc><c>C </c><c>   2</c></rc>
    <rc><c>C </c><c>   2</c></rc>
    <rc><c>C </c><c>   2</c></rc>
    <rc><c>C </c><c>   2</c></rc>
    <rc><c>C </c><c>   2</c></rc>
    <rc><c>C </c><c>   2</c></rc>
    <rc><c>C </c><c>   2</c></rc>
    <rc><c>C </c><c>   2</c></rc>
    <rc><c>C </c><c>   2</c></rc>
    <rc><c>N </c><c>   3</c></rc>
    <rc><c>N </c><c>   3</c></rc>
    <rc><c>N </c><c>   3</c></rc>
    <rc><c>N </c><c>   3</c></rc>
    <rc><c>N </c><c>   3</c></rc>
    <rc><c>N </c><c>   3</c></rc>
    <rc><c>N </c><c>   3</c></rc>
    <rc><c>N </c><c>   3</c></rc>
    <rc><c>N </c><c>   3</c></rc>
    <rc><c>N </c><c>   3</c></rc>
    <rc><c>N </c><c>   3</c></rc>
    <rc><c>N </c><c>   3</c></rc>
    <rc><c>N </c><c>   3</c></rc>
    <rc><c>N </c><c>   3</c></rc>
    <rc><c>N </c><c>   3</c></rc>
    <rc><c>N </c><c>   3</c></rc>
    <rc><c>N </c><c>   3</c></rc>
    <rc><c>N </c><c>   3</c></rc>
    <rc><c>N </c><c>   3</c></rc>
    <rc><c>N </c><c>   3</c></rc>
    <rc><c>N </c><c>   3</c></rc>
    <rc><c>N </c><c>   3</c></rc>
    <rc><c>N </c><c>   3</c></rc>
    <rc><c>N </c><c>   3</c></rc>
    <rc><c>N </c><c>   3</c></rc>
    <rc><c>N </c><c>   3</c></rc>
    <rc><c>N </c><c>   3</c></rc>
    <rc><c>N </c><c>   3</c></rc>
    <rc><c>N </c><c>   3</c></rc>
    <rc><c>N </c><c>   3</c></rc>
    <rc><c>N </c><c>   3</c></rc>
    <rc><c>N </c><c>   3</c></rc>
    <rc><c>N </c><c>   3</c></rc>
    <rc><c>N </c><c>   3</c></rc>
    <rc><c>N </c><c>   3</c></rc>
    <rc><c>N </c><c>   3</c></rc>
    <rc><c>N </c><c>   3</c></rc>
    <rc><c>N </c><c>   3</c></rc>
    <rc><c>N </c><c>   3</c></rc>
    <rc><c>N </c><c>   3</c></rc>
    <rc><c>N </c><c>   3</c></rc>
    <rc><c>N </c><c>   3</c></rc>
    <rc><c>N </c><c>   3</c></rc>
    <rc><c>N </c><c>   3</c></rc>
    <rc><c>N </c><c>   3</c></rc>
    <rc><c>N </c><c>   3</c></rc>
    <rc><c>N </c><c>   3</c></rc>
    <rc><c>I </c><c>   4</c></rc>
    <rc><c>I </c><c>   4</c></rc>
    <rc><c>I </c><c>   4</c></rc>
    <rc><c>I </c><c>   4</c></rc>
    <rc><c>I </c><c>   4</c></rc>
    <rc><c>I </c><c>   4</c></rc>
    <rc><c>I </c><c>   4</c></rc>
    <rc><c>I </c><c>   4</c></rc>
    <rc><c>I </c><c>   4</c></rc>
    <rc><c>I </c><c>   4</c></rc>
    <rc><c>I </c><c>   4</c></rc>
    <rc><c>I </c><c>   4</c></rc>
    <rc><c>I </c><c>   4</c></rc>
    <rc><c>I </c><c>   4</c></rc>
    <rc><c>I </c><c>   4</c></rc>
    <rc><c>I </c><c>   4</c></rc>
    <rc><c>I </c><c>   4</c></rc>
    <rc><c>I </c><c>   4</c></rc>
    <rc><c>I </c><c>   4</c></rc>
    <rc><c>I </c><c>   4</c></rc>
    <rc><c>I </c><c>   4</c></rc>
    <rc><c>I </c><c>   4</c></rc>
    <rc><c>I </c><c>   4</c></rc>
    <rc><c>I </c><c>   4</c></rc>
    <rc><c>I </c><c>   4</c></rc>
    <rc><c>I </c><c>   4</c></rc>
    <rc><c>I </c><c>   4</c></rc>
    <rc><c>I </c><c>   4</c></rc>
    <rc><c>I </c><c>   4</c></rc>
    <rc><c>I </c><c>   4</c></rc>
    <rc><c>I </c><c>   4</c></rc>
    <rc><c>I </c><c>   4</c></rc>
    <rc><c>I </c><c>   4</c></rc>
    <rc><c>I </c><c>   4</c></rc>
    <rc><c>I </c><c>   4</c></rc>
    <rc><c>I </c><c>   4</c></rc>
    <rc><c>I </c><c>   4</c></rc>
    <rc><c>I </c><c>   4</c></rc>
    <rc><c>I </c><c>   4</c></rc>
    <rc><c>I </c><c>   4</c></rc>
    <rc><c>I </c><c>   4</c></rc>
    <rc><c>I </c><c>   4</c></rc>
    <rc><c>I </c><c>   4</c></rc>
    <rc><c>I </c><c>   4</c></rc>
    <rc><c>I </c><c>   4</c></rc>
    <rc><c>I </c><c>   4</c></rc>
    <rc><c>I </c><c>   4</c></rc>
    <rc><c>I </c><c>   4</c></rc>
    <rc><c>I </c><c>   4</c></rc>
    <rc><c>I </c><c>   4</c></rc>
    <rc><c>I </c><c>   4</c></rc>
    <rc><c>I </c><c>   4</c></rc>
    <rc><c>I </c><c>   4</c></rc>
    <rc><c>I </c><c>   4</c></rc>
    <rc><c>I </c><c>   4</c></rc>
    <rc><c>I </c><c>   4</c></rc>
    <rc><c>I </c><c>   4</c></rc>
    <rc><c>I </c><c>   4</c></rc>
    <rc><c>I </c><c>   4</c></rc>
    <rc><c>I </c><c>   4</c></rc>
    <rc><c>I </c><c>   4</c></rc>
    <rc><c>I </c><c>   4</c></rc>
    <rc><c>I </c><c>   4</c></rc>
    <rc><c>I </c><c>   4</c></rc>
    <rc><c>I </c><c>   4</c></rc>
    <rc><c>I </c><c>   4</c></rc>
    <rc><c>I </c><c>   4</c></rc>
    <rc><c>I </c><c>   4</c></rc>
    <rc><c>I </c><c>   4</c></rc>
    <rc><c>I </c><c>   4</c></rc>
    <rc><c>I </c><c>   4</c></rc>
    <rc><c>I </c><c>   4</c></rc>
    <rc><c>Pb</c><c>   5</c></rc>
    <rc><c>Pb</c><c>   5</c></rc>
    <rc><c>Pb</c><c>   5</c></rc>
    <rc><c>Pb</c><c>   5</c></rc>
    <rc><c>Pb</c><c>   5</c></rc>
    <rc><c>Pb</c><c>   5</c></rc>
    <rc><c>Pb</c><c>   5</c></rc>
    <rc><c>Pb</c><c>   5</c></rc>
    <rc><c>Pb</c><c>   5</c></rc>
    <rc><c>Pb</c><c>   5</c></rc>
    <rc><c>Pb</c><c>   5</c></rc>
    <rc><c>Pb</c><c>   5</c></rc>
    <rc><c>Pb</c><c>   5</c></rc>
    <rc><c>Pb</c><c>   5</c></rc>
    <rc><c>Pb</c><c>   5</c></rc>
    <rc><c>Pb</c><c>   5</c></rc>
    <rc><c>Pb</c><c>   5</c></rc>
    <rc><c>Pb</c><c>   5</c></rc>
    <rc><c>Pb</c><c>   5</c></rc>
    <rc><c>Pb</c><c>   5</c></rc>
    <rc><c>Pb</c><c>   5</c></rc>
    <rc><c>Pb</c><c>   5</c></rc>
    <rc><c>Pb</c><c>   5</c></rc>
    <rc><c>Pb</c><c>   5</c></rc>
   </set>
  </array>
  <array name="atomtypes" >
   <dimension dim="1">type</dimension>
   <field type="int">atomspertype</field>
   <field type="string">element</field>
   <field>mass</field>
   <field>valence</field>
   <field type="string">pseudopotential</field>
   <set>
    <rc><c> 143</c><c>H </c><c>      1.00000000</c><c>      1.00000000</c><c>  PAW_PBE H 15Jun2001                   </c></rc>
    <rc><c>  39</c><c>C </c><c>     12.01100000</c><c>      4.00000000</c><c>  PAW_PBE C 08Apr2002                   </c></rc>
    <rc><c>  47</c><c>N </c><c>     14.00100000</c><c>      5.00000000</c><c>  PAW_PBE N 08Apr2002                   </c></rc>
    <rc><c>  72</c><c>I </c><c>    126.90400000</c><c>      7.00000000</c><c>  PAW_PBE I 08Apr2002                   </c></rc>
    <rc><c>  24</c><c>Pb</c><c>    207.20000000</c><c>      4.00000000</c><c>  PAW_PBE Pb 08Apr2002                  </c></rc>
   </set>
  </array>
 </atominfo>
 <structure name="initialpos" >
  <crystal>
   <varray name="basis" >
    <v>      18.06080055       0.00000000       0.00000000 </v>
    <v>      -0.00491865      18.06279945       0.00000000 </v>
    <v>       0.00000000       0.00000000      62.48749924 </v>
   </varray>
   <i name="volume">  20385.21054034 </i>
   <varray name="rec_basis" >
    <v>       0.05536853       0.00001508      -0.00000000 </v>
    <v>       0.00000000       0.05536240       0.00000000 </v>
    <v>       0.00000000      -0.00000000       0.01600320 </v>
   </varray>
  </crystal>
  <varray name="positions" >
   <v>       0.45251408       0.33541729       0.56449224 </v>
   <v>       0.43177645       0.82994383       0.56964958 </v>
   <v>       0.96100984       0.32876314       0.57605992 </v>
   <v>       0.94506068       0.81597936       0.57317244 </v>
   <v>       0.33243296       0.95519841       0.57239140 </v>
   <v>       0.35162206       0.54957773       0.55827896 </v>
   <v>       0.80605002       0.08796566       0.56497494 </v>
   <v>       0.01044745       0.14331643       0.55967585 </v>
   <v>       0.07140455       0.66118405       0.56977479 </v>
   <v>       0.55226130       0.16032234       0.55772227 </v>
   <v>       0.49650064       0.64424575       0.55934772 </v>
   <v>       0.36358687       0.02841343       0.55664869 </v>
   <v>       0.29572657       0.62845787       0.55320318 </v>
   <v>       0.87838496       0.02607704       0.55764089 </v>
   <v>       0.95451151       0.19262170       0.57773347 </v>
   <v>       0.99175150       0.69003155       0.58298929 </v>
   <v>       0.56623393       0.25094363       0.56717142 </v>
   <v>       0.43463052       0.69397644       0.57499330 </v>
   <v>       0.28060798       0.43860171       0.57223897 </v>
   <v>       0.19992402       0.92766536       0.57240917 </v>
   <v>       0.68135663       0.03179445       0.56980904 </v>
   <v>       0.37256258       0.29151367       0.55469920 </v>
   <v>       0.49884704       0.86942072       0.55305715 </v>
   <v>       0.01855058       0.36860386       0.55692261 </v>
   <v>       0.99436771       0.86571501       0.55423701 </v>
   <v>       0.18447944       0.44312463       0.56887422 </v>
   <v>       0.14012466       0.99028223       0.55973634 </v>
   <v>       0.67421626       0.93692845       0.56314523 </v>
   <v>       0.43138580       0.18049530       0.54827665 </v>
   <v>       0.54711737       0.75218348       0.54370653 </v>
   <v>       0.06231584       0.25184404       0.54533771 </v>
   <v>       0.08356845       0.77081383       0.55024268 </v>
   <v>       0.18540890       0.56207611       0.55663874 </v>
   <v>       0.24077106       0.06430671       0.54772259 </v>
   <v>       0.79699419       0.92577265       0.55501256 </v>
   <v>       0.48613918       0.33969973       0.66124120 </v>
   <v>       0.44958016       0.81121880       0.67351118 </v>
   <v>       0.96502217       0.28396653       0.67634115 </v>
   <v>       0.93034061       0.72443300       0.67289130 </v>
   <v>       0.30903912       0.05673294       0.66961318 </v>
   <v>       0.29786284       0.54836248       0.67513491 </v>
   <v>       0.80067049       0.05610071       0.67438745 </v>
   <v>       0.76128317       0.59749597       0.65686454 </v>
   <v>       0.08619825       0.16306485       0.64475732 </v>
   <v>       0.11638942       0.72049630       0.65091706 </v>
   <v>       0.57006616       0.15869263       0.65240808 </v>
   <v>       0.56430908       0.66351654       0.65049754 </v>
   <v>       0.17718269       0.41425727       0.64776292 </v>
   <v>       0.17296149       0.91978878       0.65077848 </v>
   <v>       0.69856212       0.40613714       0.66005377 </v>
   <v>       0.67417499       0.92015831       0.65040554 </v>
   <v>       0.06305278       0.18181302       0.67139515 </v>
   <v>       0.05959298       0.67594919       0.66926008 </v>
   <v>       0.59397828       0.24841559       0.65949537 </v>
   <v>       0.53321802       0.69450288       0.67551524 </v>
   <v>       0.19885303       0.44321882       0.67372313 </v>
   <v>       0.20745259       0.95541245       0.67466521 </v>
   <v>       0.66510992       0.49653204       0.66211546 </v>
   <v>       0.69755354       0.95697825       0.67534119 </v>
   <v>       0.39858694       0.30054733       0.65682699 </v>
   <v>       0.43569435       0.84452671       0.64778777 </v>
   <v>       0.93658162       0.32540259       0.65257132 </v>
   <v>       0.90492350       0.79488092       0.65553511 </v>
   <v>       0.32977274       0.07561003       0.64290007 </v>
   <v>       0.32907247       0.57723929       0.65016477 </v>
   <v>       0.83381612       0.07587362       0.64871886 </v>
   <v>       0.84981388       0.56711544       0.65111851 </v>
   <v>       0.00924413       0.25288394       0.63104516 </v>
   <v>       0.02258577       0.80095778       0.63966865 </v>
   <v>       0.44489860       0.18341250       0.64984152 </v>
   <v>       0.50626559       0.75470140       0.63150723 </v>
   <v>       0.24638229       0.99182890       0.62935635 </v>
   <v>       0.25765762       0.49461046       0.63135357 </v>
   <v>       0.75806641       0.99091927       0.63186253 </v>
   <v>       0.81867334       0.44236695       0.65233909 </v>
   <v>       0.44874502       0.30128397       0.76888902 </v>
   <v>       0.44874501       0.80128391       0.76888902 </v>
   <v>       0.94874497       0.30128397       0.76888902 </v>
   <v>       0.94874501       0.80128391       0.76888902 </v>
   <v>       0.30127600       0.05129450       0.76887296 </v>
   <v>       0.30127601       0.55129450       0.76887296 </v>
   <v>       0.80127594       0.05129450       0.76887296 </v>
   <v>       0.80127598       0.55129450       0.76887296 </v>
   <v>       0.07877100       0.17118050       0.74344197 </v>
   <v>       0.07877101       0.67118045       0.74344197 </v>
   <v>       0.57877100       0.17118050       0.74344197 </v>
   <v>       0.57877099       0.67118045       0.74344197 </v>
   <v>       0.17119950       0.42117448       0.74342103 </v>
   <v>       0.17119950       0.92117451       0.74342103 </v>
   <v>       0.67119951       0.42117448       0.74342103 </v>
   <v>       0.67119950       0.92117451       0.74342103 </v>
   <v>       0.05125600       0.19871499       0.76888902 </v>
   <v>       0.05125600       0.69871493       0.76888902 </v>
   <v>       0.55125603       0.19871499       0.76888902 </v>
   <v>       0.55125602       0.69871493       0.76888902 </v>
   <v>       0.19872349       0.44870397       0.76887205 </v>
   <v>       0.19872349       0.94870397       0.76887205 </v>
   <v>       0.69872352       0.44870397       0.76887205 </v>
   <v>       0.69872351       0.94870397       0.76887205 </v>
   <v>       0.42123152       0.32881747       0.74344197 </v>
   <v>       0.42123151       0.82881744       0.74344197 </v>
   <v>       0.92123147       0.32881747       0.74344197 </v>
   <v>       0.92123151       0.82881744       0.74344197 </v>
   <v>       0.32880050       0.07882500       0.74342103 </v>
   <v>       0.32880049       0.57882496       0.74342103 </v>
   <v>       0.82880048       0.07882500       0.74342103 </v>
   <v>       0.82880052       0.57882496       0.74342103 </v>
   <v>       0.00000350       0.25000148       0.72582199 </v>
   <v>       0.00000350       0.75000145       0.72582199 </v>
   <v>       0.50000351       0.25000148       0.72582199 </v>
   <v>       0.50000350       0.75000145       0.72582199 </v>
   <v>       0.25000050       0.00000000       0.72580398 </v>
   <v>       0.25000052       0.50000000       0.72580398 </v>
   <v>       0.75000050       0.00000000       0.72580398 </v>
   <v>       0.75000049       0.50000000       0.72580398 </v>
   <v>       0.77616932       0.55692036       0.51954636 </v>
   <v>       0.71933752       0.47884776       0.52471664 </v>
   <v>       0.86836553       0.50109603       0.53855877 </v>
   <v>       0.85916060       0.48168891       0.56607373 </v>
   <v>       0.74473819       0.64153195       0.56007131 </v>
   <v>       0.81260777       0.59680823       0.57585346 </v>
   <v>       0.66658398       0.54730706       0.56897653 </v>
   <v>       0.68068745       0.45409963       0.56032356 </v>
   <v>       0.61724977       0.55850355       0.53713832 </v>
   <v>       0.67367582       0.63883705       0.53493689 </v>
   <v>       0.60651707       0.64568797       0.50364120 </v>
   <v>       0.68693131       0.60260637       0.49417349 </v>
   <v>       0.78641227       0.38943955       0.52995811 </v>
   <v>       0.77844291       0.37202666       0.55765463 </v>
   <v>       0.86547887       0.36729332       0.54507332 </v>
   <v>       0.86333091       0.69627314       0.55303627 </v>
   <v>       0.84054037       0.64700686       0.52956899 </v>
   <v>       0.90695526       0.60948322       0.54785921 </v>
   <v>       0.77021214       0.52823526       0.59680675 </v>
   <v>       0.77332779       0.43355808       0.58900575 </v>
   <v>       0.69168870       0.47136084       0.60001753 </v>
   <v>       0.53717636       0.52863763       0.50455517 </v>
   <v>       0.57453062       0.54619651       0.47877795 </v>
   <v>       0.70180151       0.48039062       0.46976104 </v>
   <v>       0.55684437       0.41485090       0.52085967 </v>
   <v>       0.76487632       0.35852642       0.47160330 </v>
   <v>       0.62034219       0.29279840       0.52306226 </v>
   <v>       0.72571329       0.26481390       0.49876275 </v>
   <v>       0.01866194       0.25517425       0.55741465 </v>
   <v>       0.03606215       0.76302569       0.56086566 </v>
   <v>       0.46314943       0.22674752       0.55487783 </v>
   <v>       0.50022181       0.75631310       0.55472515 </v>
   <v>       0.23860222       0.53513502       0.55985227 </v>
   <v>       0.25082342       0.01404803       0.55713231 </v>
   <v>       0.77668906       0.98007386       0.56004982 </v>
   <v>       0.01104454       0.24445006       0.64837303 </v>
   <v>       0.01099173       0.76041712       0.65230888 </v>
   <v>       0.48285404       0.22816654       0.65421245 </v>
   <v>       0.50016189       0.75403361       0.64876911 </v>
   <v>       0.25353748       0.49552555       0.64879181 </v>
   <v>       0.25139992       0.99764947       0.64668715 </v>
   <v>       0.77603454       0.48450197       0.65526436 </v>
   <v>       0.75448092       0.99743353       0.64921506 </v>
   <v>       0.49998898       0.24999498       0.74327702 </v>
   <v>       0.49998903       0.74999496       0.74327702 </v>
   <v>       0.99998898       0.24999498       0.74327702 </v>
   <v>       0.99998903       0.74999496       0.74327702 </v>
   <v>       0.25000050       0.00000100       0.74325596 </v>
   <v>       0.25000052       0.50000100       0.74325596 </v>
   <v>       0.75000050       0.00000100       0.74325596 </v>
   <v>       0.75000049       0.50000100       0.74325596 </v>
   <v>       0.62537223       0.45632896       0.49548512 </v>
   <v>       0.68395329       0.43911303       0.48166244 </v>
   <v>       0.60262271       0.40219497       0.51009867 </v>
   <v>       0.71937640       0.37073377       0.48256704 </v>
   <v>       0.63830450       0.33357201       0.51128970 </v>
   <v>       0.69720720       0.31777005       0.49758866 </v>
   <v>       0.73174669       0.53552900       0.52966252 </v>
   <v>       0.83102037       0.47757507       0.55055726 </v>
   <v>       0.79319158       0.60512498       0.55945736 </v>
   <v>       0.70730398       0.50256808       0.56761811 </v>
   <v>       0.66277523       0.58345659       0.52790496 </v>
   <v>       0.63841623       0.59416296       0.50448173 </v>
   <v>       0.81316738       0.39787301       0.54548661 </v>
   <v>       0.85471698       0.64031069       0.54652472 </v>
   <v>       0.73845690       0.48334586       0.58931300 </v>
   <v>       0.58952837       0.53169927       0.49536318 </v>
   <v>       0.99355224       0.19339545       0.56555977 </v>
   <v>       0.03275688       0.70143448       0.57185992 </v>
   <v>       0.53322581       0.21373479       0.55914107 </v>
   <v>       0.47395280       0.69469639       0.56306849 </v>
   <v>       0.42859816       0.28993001       0.55747240 </v>
   <v>       0.47319020       0.82262026       0.55864921 </v>
   <v>       0.99535446       0.32112423       0.56299640 </v>
   <v>       0.98531521       0.81543343       0.56155385 </v>
   <v>       0.23553099       0.46553989       0.56597490 </v>
   <v>       0.19378908       0.97405726       0.56316305 </v>
   <v>       0.70548446       0.98483729       0.56392090 </v>
   <v>       0.31939393       0.99741047       0.56205211 </v>
   <v>       0.29994500       0.57284425       0.55700911 </v>
   <v>       0.82387876       0.03499322       0.56187679 </v>
   <v>       0.05584230       0.19271670       0.65554213 </v>
   <v>       0.06468828       0.71407193       0.65732575 </v>
   <v>       0.55372482       0.21119996       0.65565977 </v>
   <v>       0.53388968       0.70071205       0.65920057 </v>
   <v>       0.20678889       0.44875962       0.65759423 </v>
   <v>       0.20824255       0.95575671       0.65841196 </v>
   <v>       0.70813605       0.46162425       0.65878277 </v>
   <v>       0.70630247       0.95584416       0.65927688 </v>
   <v>       0.45484994       0.29407977       0.65758575 </v>
   <v>       0.46002563       0.80648755       0.65752904 </v>
   <v>       0.96840684       0.28675359       0.66007807 </v>
   <v>       0.94514116       0.76052029       0.66104774 </v>
   <v>       0.29991699       0.04578260       0.65380533 </v>
   <v>       0.29592848       0.54255115       0.65898587 </v>
   <v>       0.79864172       0.04622670       0.65823273 </v>
   <v>       0.79685822       0.55418850       0.65506657 </v>
   <v>       0.04586250       0.20411950       0.75272599 </v>
   <v>       0.04586250       0.70411946       0.75272599 </v>
   <v>       0.54586251       0.20411950       0.75272599 </v>
   <v>       0.54586250       0.70411946       0.75272599 </v>
   <v>       0.20411900       0.45410100       0.75270499 </v>
   <v>       0.20411899       0.95410095       0.75270499 </v>
   <v>       0.70411898       0.45410100       0.75270499 </v>
   <v>       0.70411896       0.95410095       0.75270499 </v>
   <v>       0.45414002       0.29588849       0.75272697 </v>
   <v>       0.45414001       0.79588852       0.75272697 </v>
   <v>       0.95414002       0.29588849       0.75272697 </v>
[...]
   <v>       0.55226130       0.16032234       0.55772227 </v>
   <v>       0.49650064       0.64424575       0.55934772 </v>
   <v>       0.36358687       0.02841343       0.55664869 </v>
   <v>       0.29572657       0.62845787       0.55320318 </v>
   <v>       0.87838496       0.02607704       0.55764089 </v>
   <v>       0.95451151       0.19262170       0.57773347 </v>
   <v>       0.99175150       0.69003155       0.58298929 </v>
   <v>       0.56623393       0.25094363       0.56717142 </v>
   <v>       0.43463052       0.69397644       0.57499330 </v>
   <v>       0.28060798       0.43860171       0.57223897 </v>
   <v>       0.19992402       0.92766536       0.57240917 </v>
   <v>       0.68135663       0.03179445       0.56980904 </v>
   <v>       0.37256258       0.29151367       0.55469920 </v>
   <v>       0.49884704       0.86942072       0.55305715 </v>
   <v>       0.01855058       0.36860386       0.55692261 </v>
   <v>       0.99436771       0.86571501       0.55423701 </v>
   <v>       0.18447944       0.44312463       0.56887422 </v>
   <v>       0.14012466       0.99028223       0.55973634 </v>
   <v>       0.67421626       0.93692845       0.56314523 </v>
   <v>       0.43138580       0.18049530       0.54827665 </v>
   <v>       0.54711737       0.75218348       0.54370653 </v>
   <v>       0.06231584       0.25184404       0.54533771 </v>
   <v>       0.08356845       0.77081383       0.55024268 </v>
   <v>       0.18540890       0.56207611       0.55663874 </v>
   <v>       0.24077106       0.06430671       0.54772259 </v>
   <v>       0.79699419       0.92577265       0.55501256 </v>
   <v>       0.48613918       0.33969973       0.66124120 </v>
   <v>       0.44958016       0.81121880       0.67351118 </v>
   <v>       0.96502217       0.28396653       0.67634115 </v>
   <v>       0.93034061       0.72443300       0.67289130 </v>
   <v>       0.30903912       0.05673294       0.66961318 </v>
   <v>       0.29786284       0.54836248       0.67513491 </v>
   <v>       0.80067049       0.05610071       0.67438745 </v>
   <v>       0.76128317       0.59749597       0.65686454 </v>
   <v>       0.08619825       0.16306485       0.64475732 </v>
   <v>       0.11638942       0.72049630       0.65091706 </v>
   <v>       0.57006616       0.15869263       0.65240808 </v>
   <v>       0.56430908       0.66351654       0.65049754 </v>
   <v>       0.17718269       0.41425727       0.64776292 </v>
   <v>       0.17296149       0.91978878       0.65077848 </v>
   <v>       0.69856212       0.40613714       0.66005377 </v>
   <v>       0.67417499       0.92015831       0.65040554 </v>
   <v>       0.06305278       0.18181302       0.67139515 </v>
   <v>       0.05959298       0.67594919       0.66926008 </v>
   <v>       0.59397828       0.24841559       0.65949537 </v>
   <v>       0.53321802       0.69450288       0.67551524 </v>
   <v>       0.19885303       0.44321882       0.67372313 </v>
   <v>       0.20745259       0.95541245       0.67466521 </v>
   <v>       0.66510992       0.49653204       0.66211546 </v>
   <v>       0.69755354       0.95697825       0.67534119 </v>
   <v>       0.39858694       0.30054733       0.65682699 </v>
   <v>       0.43569435       0.84452671       0.64778777 </v>
   <v>       0.93658162       0.32540259       0.65257132 </v>
   <v>       0.90492350       0.79488092       0.65553511 </v>
   <v>       0.32977274       0.07561003       0.64290007 </v>
   <v>       0.32907247       0.57723929       0.65016477 </v>
   <v>       0.83381612       0.07587362       0.64871886 </v>
   <v>       0.84981388       0.56711544       0.65111851 </v>
   <v>       0.00924413       0.25288394       0.63104516 </v>
   <v>       0.02258577       0.80095778       0.63966865 </v>
   <v>       0.44489860       0.18341250       0.64984152 </v>
   <v>       0.50626559       0.75470140       0.63150723 </v>
   <v>       0.24638229       0.99182890       0.62935635 </v>
   <v>       0.25765762       0.49461046       0.63135357 </v>
   <v>       0.75806641       0.99091927       0.63186253 </v>
   <v>       0.81867334       0.44236695       0.65233909 </v>
   <v>       0.44874502       0.30128397       0.76888902 </v>
   <v>       0.44874501       0.80128391       0.76888902 </v>
   <v>       0.94874497       0.30128397       0.76888902 </v>
   <v>       0.94874501       0.80128391       0.76888902 </v>
   <v>       0.30127600       0.05129450       0.76887296 </v>
   <v>       0.30127601       0.55129450       0.76887296 </v>
   <v>       0.80127594       0.05129450       0.76887296 </v>
   <v>       0.80127598       0.55129450       0.76887296 </v>
   <v>       0.07877100       0.17118050       0.74344197 </v>
   <v>       0.07877101       0.67118045       0.74344197 </v>
   <v>       0.57877100       0.17118050       0.74344197 </v>
   <v>       0.57877099       0.67118045       0.74344197 </v>
   <v>       0.17119950       0.42117448       0.74342103 </v>
   <v>       0.17119950       0.92117451       0.74342103 </v>
   <v>       0.67119951       0.42117448       0.74342103 </v>
   <v>       0.67119950       0.92117451       0.74342103 </v>
   <v>       0.05125600       0.19871499       0.76888902 </v>
   <v>       0.05125600       0.69871493       0.76888902 </v>
   <v>       0.55125603       0.19871499       0.76888902 </v>
   <v>       0.55125602       0.69871493       0.76888902 </v>
   <v>       0.19872349       0.44870397       0.76887205 </v>
   <v>       0.19872349       0.94870397       0.76887205 </v>
   <v>       0.69872352       0.44870397       0.76887205 </v>
   <v>       0.69872351       0.94870397       0.76887205 </v>
   <v>       0.42123152       0.32881747       0.74344197 </v>
   <v>       0.42123151       0.82881744       0.74344197 </v>
   <v>       0.92123147       0.32881747       0.74344197 </v>
   <v>       0.92123151       0.82881744       0.74344197 </v>
   <v>       0.32880050       0.07882500       0.74342103 </v>
   <v>       0.32880049       0.57882496       0.74342103 </v>
   <v>       0.82880048       0.07882500       0.74342103 </v>
   <v>       0.82880052       0.57882496       0.74342103 </v>
   <v>       0.00000350       0.25000148       0.72582199 </v>
   <v>       0.00000350       0.75000145       0.72582199 </v>
   <v>       0.50000351       0.25000148       0.72582199 </v>
   <v>       0.50000350       0.75000145       0.72582199 </v>
   <v>       0.25000050       0.00000000       0.72580398 </v>
   <v>       0.25000052       0.50000000       0.72580398 </v>
   <v>       0.75000050       0.00000000       0.72580398 </v>
   <v>       0.75000049       0.50000000       0.72580398 </v>
   <v>       0.77616932       0.55692036       0.51954636 </v>
   <v>       0.71933752       0.47884776       0.52471664 </v>
   <v>       0.86836553       0.50109603       0.53855877 </v>
   <v>       0.85916060       0.48168891       0.56607373 </v>
   <v>       0.74473819       0.64153195       0.56007131 </v>
   <v>       0.81260777       0.59680823       0.57585346 </v>
   <v>       0.66658398       0.54730706       0.56897653 </v>
   <v>       0.68068745       0.45409963       0.56032356 </v>
   <v>       0.61724977       0.55850355       0.53713832 </v>
   <v>       0.67367582       0.63883705       0.53493689 </v>
   <v>       0.60651707       0.64568797       0.50364120 </v>
   <v>       0.68693131       0.60260637       0.49417349 </v>
   <v>       0.78641227       0.38943955       0.52995811 </v>
   <v>       0.77844291       0.37202666       0.55765463 </v>
   <v>       0.86547887       0.36729332       0.54507332 </v>
   <v>       0.86333091       0.69627314       0.55303627 </v>
   <v>       0.84054037       0.64700686       0.52956899 </v>
   <v>       0.90695526       0.60948322       0.54785921 </v>
   <v>       0.77021214       0.52823526       0.59680675 </v>
   <v>       0.77332779       0.43355808       0.58900575 </v>
   <v>       0.69168870       0.47136084       0.60001753 </v>
   <v>       0.53717636       0.52863763       0.50455517 </v>
   <v>       0.57453062       0.54619651       0.47877795 </v>
   <v>       0.70180151       0.48039062       0.46976104 </v>
   <v>       0.55684437       0.41485090       0.52085967 </v>
   <v>       0.76487632       0.35852642       0.47160330 </v>
   <v>       0.62034219       0.29279840       0.52306226 </v>
   <v>       0.72571329       0.26481390       0.49876275 </v>
   <v>       0.01866194       0.25517425       0.55741465 </v>
   <v>       0.03606215       0.76302569       0.56086566 </v>
   <v>       0.46314943       0.22674752       0.55487783 </v>
   <v>       0.50022181       0.75631310       0.55472515 </v>
   <v>       0.23860222       0.53513502       0.55985227 </v>
   <v>       0.25082342       0.01404803       0.55713231 </v>
   <v>       0.77668906       0.98007386       0.56004982 </v>
   <v>       0.01104454       0.24445006       0.64837303 </v>
   <v>       0.01099173       0.76041712       0.65230888 </v>
   <v>       0.48285404       0.22816654       0.65421245 </v>
   <v>       0.50016189       0.75403361       0.64876911 </v>
   <v>       0.25353748       0.49552555       0.64879181 </v>
   <v>       0.25139992       0.99764947       0.64668715 </v>
   <v>       0.77603454       0.48450197       0.65526436 </v>
   <v>       0.75448092       0.99743353       0.64921506 </v>
   <v>       0.49998898       0.24999498       0.74327702 </v>
   <v>       0.49998903       0.74999496       0.74327702 </v>
   <v>       0.99998898       0.24999498       0.74327702 </v>
   <v>       0.99998903       0.74999496       0.74327702 </v>
   <v>       0.25000050       0.00000100       0.74325596 </v>
   <v>       0.25000052       0.50000100       0.74325596 </v>
   <v>       0.75000050       0.00000100       0.74325596 </v>
   <v>       0.75000049       0.50000100       0.74325596 </v>
   <v>       0.62537223       0.45632896       0.49548512 </v>
   <v>       0.68395329       0.43911303       0.48166244 </v>
   <v>       0.60262271       0.40219497       0.51009867 </v>
   <v>       0.71937640       0.37073377       0.48256704 </v>
   <v>       0.63830450       0.33357201       0.51128970 </v>
   <v>       0.69720720       0.31777005       0.49758866 </v>
   <v>       0.73174669       0.53552900       0.52966252 </v>
   <v>       0.83102037       0.47757507       0.55055726 </v>
   <v>       0.79319158       0.60512498       0.55945736 </v>
   <v>       0.70730398       0.50256808       0.56761811 </v>
   <v>       0.66277523       0.58345659       0.52790496 </v>
   <v>       0.63841623       0.59416296       0.50448173 </v>
   <v>       0.81316738       0.39787301       0.54548661 </v>
   <v>       0.85471698       0.64031069       0.54652472 </v>
   <v>       0.73845690       0.48334586       0.58931300 </v>
   <v>       0.58952837       0.53169927       0.49536318 </v>
   <v>       0.99355224       0.19339545       0.56555977 </v>
   <v>       0.03275688       0.70143448       0.57185992 </v>
   <v>       0.53322581       0.21373479       0.55914107 </v>
   <v>       0.47395280       0.69469639       0.56306849 </v>
   <v>       0.42859816       0.28993001       0.55747240 </v>
   <v>       0.47319020       0.82262026       0.55864921 </v>
   <v>       0.99535446       0.32112423       0.56299640 </v>
   <v>       0.98531521       0.81543343       0.56155385 </v>
   <v>       0.23553099       0.46553989       0.56597490 </v>
   <v>       0.19378908       0.97405726       0.56316305 </v>
   <v>       0.70548446       0.98483729       0.56392090 </v>
   <v>       0.31939393       0.99741047       0.56205211 </v>
   <v>       0.29994500       0.57284425       0.55700911 </v>
   <v>       0.82387876       0.03499322       0.56187679 </v>
   <v>       0.05584230       0.19271670       0.65554213 </v>
   <v>       0.06468828       0.71407193       0.65732575 </v>
   <v>       0.55372482       0.21119996       0.65565977 </v>
   <v>       0.53388968       0.70071205       0.65920057 </v>
   <v>       0.20678889       0.44875962       0.65759423 </v>
   <v>       0.20824255       0.95575671       0.65841196 </v>
   <v>       0.70813605       0.46162425       0.65878277 </v>
   <v>       0.70630247       0.95584416       0.65927688 </v>
   <v>       0.45484994       0.29407977       0.65758575 </v>
   <v>       0.46002563       0.80648755       0.65752904 </v>
   <v>       0.96840684       0.28675359       0.66007807 </v>
   <v>       0.94514116       0.76052029       0.66104774 </v>
   <v>       0.29991699       0.04578260       0.65380533 </v>
   <v>       0.29592848       0.54255115       0.65898587 </v>
   <v>       0.79864172       0.04622670       0.65823273 </v>
   <v>       0.79685822       0.55418850       0.65506657 </v>
   <v>       0.04586250       0.20411950       0.75272599 </v>
   <v>       0.04586250       0.70411946       0.75272599 </v>
   <v>       0.54586251       0.20411950       0.75272599 </v>
   <v>       0.54586250       0.70411946       0.75272599 </v>
   <v>       0.20411900       0.45410100       0.75270499 </v>
   <v>       0.20411899       0.95410095       0.75270499 </v>
   <v>       0.70411898       0.45410100       0.75270499 </v>
   <v>       0.70411896       0.95410095       0.75270499 </v>
   <v>       0.45414002       0.29588849       0.75272697 </v>
   <v>       0.45414001       0.79588852       0.75272697 </v>
   <v>       0.95414002       0.29588849       0.75272697 </v>
   <v>       0.95414006       0.79588852       0.75272697 </v>
   <v>       0.29588249       0.04590050       0.75270499 </v>
   <v>       0.29588248       0.54590053       0.75270499 </v>
   <v>       0.79588244       0.04590050       0.75270499 </v>
   <v>       0.79588248       0.54590053       0.75270499 </v>
   <v>       0.76541541       0.53016074       0.55179719 </v>
   <v>       0.51325086       0.01789860       0.55183700 </v>
   <v>       0.48101460       0.49522925       0.55478894 </v>
   <v>       0.00993539       0.00542520       0.54837280 </v>
   <v>       0.03818549       0.50656640       0.55328553 </v>
   <v>       0.23687596       0.24184466       0.55211415 </v>
   <v>       0.25645275       0.76575549       0.55361268 </v>
   <v>       0.73767646       0.20334878       0.55464994 </v>
   <v>       0.70142498       0.79199590       0.55426931 </v>
   <v>       0.00141462       0.98280471       0.65341884 </v>
   <v>       0.99661655       0.50595537       0.65484197 </v>
   <v>       0.49835234       0.01191112       0.65410953 </v>
   <v>       0.50942698       0.49040565       0.65502048 </v>
   <v>       0.26036407       0.24606100       0.65426483 </v>
   <v>       0.25930658       0.75405193       0.65466500 </v>
   <v>       0.74777228       0.26519022       0.65452251 </v>
   <v>       0.74584519       0.75038740       0.65451409 </v>
   <v>       0.13569339       0.11229897       0.60713462 </v>
   <v>       0.15111963       0.60444611       0.60812511 </v>
   <v>       0.64790224       0.10462593       0.60956888 </v>
   <v>       0.61615993       0.62838828       0.60931419 </v>
   <v>       0.35946339       0.38700449       0.60467777 </v>
   <v>       0.37482227       0.87993876       0.60640235 </v>
   <v>       0.89034570       0.36480826       0.60943848 </v>
   <v>       0.86987240       0.87670812       0.60460805 </v>
   <v>       0.12311605       0.36815904       0.60969360 </v>
   <v>       0.12374781       0.86525160       0.60728595 </v>
   <v>       0.59274991       0.33795844       0.60124227 </v>
   <v>       0.61705804       0.87160628       0.61268254 </v>
   <v>       0.38633030       0.13435422       0.60427748 </v>
   <v>       0.38527466       0.62848991       0.61103121 </v>
   <v>       0.88702126       0.13317634       0.61038692 </v>
   <v>       0.89600767       0.64497858       0.61048203 </v>
   <v>       0.00000000       0.00000000       0.75492797 </v>
   <v>       0.00000000       0.50000000       0.75492797 </v>
   <v>       0.50000000       0.00000000       0.75492797 </v>
   <v>       0.49999999       0.50000000       0.75492797 </v>
   <v>       0.25000050       0.25000000       0.75493902 </v>
   <v>       0.25000051       0.74999997       0.75493902 </v>
   <v>       0.75000047       0.25000000       0.75493902 </v>
   <v>       0.75000046       0.74999997       0.75493902 </v>
   <v>       0.13579050       0.11421000       0.70478299 </v>
   <v>       0.13579050       0.61420998       0.70478299 </v>
   <v>       0.63579045       0.11421000       0.70478299 </v>
   <v>       0.63579049       0.61420998       0.70478299 </v>
   <v>       0.36420952       0.38578999       0.70478299 </v>
   <v>       0.36420950       0.88578996       0.70478299 </v>
   <v>       0.86420954       0.38578999       0.70478299 </v>
   <v>       0.86420953       0.88578996       0.70478299 </v>
   <v>       0.11421799       0.36421899       0.70478098 </v>
   <v>       0.11421799       0.86421899       0.70478098 </v>
   <v>       0.61421800       0.36421899       0.70478098 </v>
   <v>       0.61421799       0.86421899       0.70478098 </v>
   <v>       0.38578201       0.13578149       0.70478202 </v>
   <v>       0.38578200       0.63578149       0.70478202 </v>
   <v>       0.88578199       0.13578149       0.70478202 </v>
   <v>       0.88578203       0.63578149       0.70478202 </v>
   <v>       0.13466700       0.11533200       0.80125603 </v>
   <v>       0.13466699       0.61533199       0.80125603 </v>
   <v>       0.63466699       0.11533200       0.80125603 </v>
   <v>       0.63466698       0.61533199       0.80125603 </v>
   <v>       0.36533300       0.38466799       0.80125603 </v>
   <v>       0.36533299       0.88466796       0.80125603 </v>
   <v>       0.86533295       0.38466799       0.80125603 </v>
   <v>       0.86533294       0.88466796       0.80125603 </v>
   <v>       0.11532850       0.36533700       0.80126500 </v>
   <v>       0.11532850       0.86533698       0.80126500 </v>
   <v>       0.61532850       0.36533700       0.80126500 </v>
   <v>       0.61532849       0.86533698       0.80126500 </v>
   <v>       0.38467151       0.13466300       0.80126500 </v>
   <v>       0.38467150       0.63466297       0.80126500 </v>
   <v>       0.88467149       0.13466300       0.80126500 </v>
   <v>       0.88467153       0.63466297       0.80126500 </v>
   <v>       0.00017668       0.99824409       0.60467429 </v>
   <v>       0.00700046       0.50400856       0.60483246 </v>
   <v>       0.50475470       0.00660776       0.60358386 </v>
   <v>       0.49861972       0.49228979       0.60476250 </v>
   <v>       0.24809444       0.24668338       0.60234783 </v>
   <v>       0.25280683       0.74484322       0.60391119 </v>
   <v>       0.74359198       0.24635522       0.60272688 </v>
   <v>       0.73811597       0.75485441       0.60317716 </v>
   <v>       0.00000050       0.00000050       0.70482896 </v>
   <v>       0.00000050       0.50000048       0.70482896 </v>
   <v>       0.50000048       0.00000050       0.70482896 </v>
   <v>       0.50000046       0.50000048       0.70482896 </v>
   <v>       0.24999999       0.24999947       0.70482499 </v>
   <v>       0.25000001       0.74999950       0.70482499 </v>
   <v>       0.74999999       0.24999947       0.70482499 </v>
   <v>       0.74999998       0.74999950       0.70482499 </v>
   <v>       0.00000000       0.00000000       0.80731797 </v>
   <v>       0.00000000       0.50000000       0.80731797 </v>
   <v>       0.50000000       0.00000000       0.80731797 </v>
   <v>       0.49999999       0.50000000       0.80731797 </v>
   <v>       0.24999999       0.25000000       0.80731797 </v>
   <v>       0.25000001       0.74999997       0.80731797 </v>
   <v>       0.74999999       0.25000000       0.80731797 </v>
   <v>       0.74999998       0.74999997       0.80731797 </v>
  </varray>
 </structure>
</modeling>
