<?xml version="1.0" encoding="ISO-8859-1"?>
<modeling>
 <generator>
  <i name="program" type="string">vasp </i>
  <i name="version" type="string">6.2.1  </i>
  <i name="subversion" type="string">16May21 (build Nov 15 2021 14:57:28) complex                          parallel </i>
  <i name="platform" type="string">LinuxPGI </i>
  <i name="date" type="string">2023 07 25 </i>
  <i name="time" type="string">01:55:54 </i>
 </generator>
 <incar>
  <i type="string" name="SYSTEM">PSC</i>
  <i type="int" name="ISTART">     1</i>
  <i type="string" name="PREC">Normal</i>
  <i name="BMIX">      0.01000000</i>
  <i name="AMIN">      0.01000000</i>
  <i type="int" name="ICHARG">     1</i>
  <i type="int" name="NELM">   600</i>
  <i type="int" name="ISYM">     0</i>
  <i name="ENCUT">    500.00000000</i>
  <i type="string" name="LREAL">Auto</i>
  <i type="int" name="ISMEAR">     0</i>
  <i name="SIGMA">      0.05000000</i>
  <i type="logical" name="LWAVE"> F  </i>
  <i type="logical" name="LVTOT"> T  </i>
  <i type="logical" name="GGA_COMPAT"> F  </i>
  <i type="logical" name="LDIPOL"> T  </i>
  <i type="int" name="IDIPOL">     3</i>
  <i type="int" name="IVDW">    12</i>
 </incar>
 <primitive_cell>
  <structure name="primitive_cell" >
   <crystal>
    <varray name="basis" >
     <v>      18.06080055       0.00000000       0.00000000 </v>
     <v>      -0.00491865      18.06279945       0.00000000 </v>
     <v>       0.00000000       0.00000000      62.48749924 </v>
    </varray>
    <i name="volume">  20385.21054034 </i>
    <varray name="rec_basis" >
     <v>       0.05536853       0.00001508      -0.00000000 </v>
     <v>       0.00000000       0.05536240       0.00000000 </v>
     <v>       0.00000000      -0.00000000       0.01600320 </v>
    </varray>
   </crystal>
   <varray name="positions" >
    <v>       0.45050837       0.33376965       0.56505241 </v>
    <v>       0.42740694       0.83104909       0.56871696 </v>
    <v>       0.96048831       0.32742810       0.57661020 </v>
    <v>       0.94599917       0.81465821       0.57334881 </v>
    <v>       0.32806761       0.95353625       0.57342933 </v>
    <v>       0.35349046       0.54803836       0.55993762 </v>
    <v>       0.80610522       0.08744026       0.56716746 </v>
    <v>       0.01113122       0.14238309       0.56005587 </v>
    <v>       0.06971146       0.65848566       0.56919496 </v>
    <v>       0.55544393       0.16458390       0.55665705 </v>
    <v>       0.49587468       0.64550413       0.56057379 </v>
    <v>       0.36329541       0.02429679       0.55753003 </v>
    <v>       0.29876980       0.62751918       0.55424574 </v>
    <v>       0.87665167       0.02429593       0.55948214 </v>
    <v>       0.95642661       0.19073769       0.57826471 </v>
    <v>       0.99172773       0.68999475       0.58305625 </v>
    <v>       0.56515422       0.25409203       0.56709670 </v>
    <v>       0.43134729       0.69509691       0.57526215 </v>
    <v>       0.28016105       0.43609538       0.57209612 </v>
    <v>       0.19441513       0.92815627       0.57145292 </v>
    <v>       0.67893771       0.03377387       0.56977937 </v>
    <v>       0.37129779       0.28991630       0.55433829 </v>
    <v>       0.49598240       0.86924179       0.55237244 </v>
    <v>       0.01810725       0.36863184       0.55747539 </v>
    <v>       0.99536377       0.86446481       0.55431424 </v>
    <v>       0.18556598       0.44045433       0.56717735 </v>
    <v>       0.13906837       0.99111576       0.55774016 </v>
    <v>       0.66993973       0.94074407       0.56206213 </v>
    <v>       0.43391784       0.18137221       0.54700253 </v>
    <v>       0.54798874       0.75220375       0.54494939 </v>
    <v>       0.06144785       0.25185576       0.54532251 </v>
    <v>       0.08339089       0.76797875       0.54993232 </v>
    <v>       0.18826444       0.56110980       0.55559788 </v>
    <v>       0.24235348       0.06229264       0.54680016 </v>
    <v>       0.79373406       0.92678667       0.55510175 </v>
    <v>       0.48546645       0.33908321       0.66295077 </v>
    <v>       0.44940442       0.81156046       0.67353584 </v>
    <v>       0.96599586       0.28268223       0.67694564 </v>
    <v>       0.92818429       0.72506299       0.67313000 </v>
    <v>       0.30890773       0.05513625       0.67049776 </v>
    <v>       0.29827185       0.54873835       0.67514151 </v>
    <v>       0.80115029       0.05641354       0.67453030 </v>
    <v>       0.75660018       0.59826022       0.65833511 </v>
    <v>       0.08515927       0.16210182       0.64478247 </v>
    <v>       0.11394299       0.71827051       0.65031501 </v>
    <v>       0.57454120       0.16371072       0.65041122 </v>
    <v>       0.56309476       0.66256355       0.65078080 </v>
    <v>       0.17868269       0.41310187       0.64829880 </v>
    <v>       0.17486722       0.92095831       0.64955161 </v>
    <v>       0.70265174       0.40412206       0.66129584 </v>
    <v>       0.67366283       0.92339633       0.65003437 </v>
    <v>       0.06281736       0.17963225       0.67163818 </v>
    <v>       0.05798809       0.67465517       0.66913127 </v>
    <v>       0.59570214       0.25278693       0.65914893 </v>
    <v>       0.53113434       0.69487204       0.67557311 </v>
    <v>       0.19957061       0.44430112       0.67398838 </v>
    <v>       0.20755037       0.95388203       0.67389217 </v>
    <v>       0.66677632       0.49293878       0.66486040 </v>
    <v>       0.69725419       0.96004422       0.67507045 </v>
    <v>       0.39856625       0.29950592       0.65795606 </v>
    <v>       0.43571503       0.84476757       0.64774583 </v>
    <v>       0.93711026       0.32602661       0.65333172 </v>
    <v>       0.90349750       0.79598894       0.65570787 </v>
    <v>       0.33227429       0.07765058       0.64422572 </v>
    <v>       0.33054729       0.57621739       0.65008114 </v>
    <v>       0.83613493       0.07646355       0.64918490 </v>
    <v>       0.84380348       0.57242636       0.65003901 </v>
    <v>       0.00945434       0.25314207       0.63148006 </v>
    <v>       0.02126143       0.79968309       0.63951475 </v>
    <v>       0.44788973       0.18503921       0.64865000 </v>
    <v>       0.50621047       0.75359185       0.63149032 </v>
    <v>       0.24973519       0.99534750       0.62930299 </v>
    <v>       0.25942039       0.49257480       0.63159099 </v>
    <v>       0.75969981       0.99276258       0.63193590 </v>
    <v>       0.81837787       0.44614096       0.65057367 </v>
    <v>       0.44874502       0.30128397       0.76888902 </v>
    <v>       0.44874501       0.80128391       0.76888902 </v>
    <v>       0.94874497       0.30128397       0.76888902 </v>
    <v>       0.94874501       0.80128391       0.76888902 </v>
    <v>       0.30127600       0.05129450       0.76887296 </v>
    <v>       0.30127601       0.55129450       0.76887296 </v>
    <v>       0.80127594       0.05129450       0.76887296 </v>
    <v>       0.80127598       0.55129450       0.76887296 </v>
    <v>       0.07877100       0.17118050       0.74344197 </v>
    <v>       0.07877101       0.67118045       0.74344197 </v>
    <v>       0.57877100       0.17118050       0.74344197 </v>
    <v>       0.57877099       0.67118045       0.74344197 </v>
    <v>       0.17119950       0.42117448       0.74342103 </v>
    <v>       0.17119950       0.92117451       0.74342103 </v>
    <v>       0.67119951       0.42117448       0.74342103 </v>
    <v>       0.67119950       0.92117451       0.74342103 </v>
    <v>       0.05125600       0.19871499       0.76888902 </v>
    <v>       0.05125600       0.69871493       0.76888902 </v>
    <v>       0.55125603       0.19871499       0.76888902 </v>
    <v>       0.55125602       0.69871493       0.76888902 </v>
    <v>       0.19872349       0.44870397       0.76887205 </v>
    <v>       0.19872349       0.94870397       0.76887205 </v>
    <v>       0.69872352       0.44870397       0.76887205 </v>
    <v>       0.69872351       0.94870397       0.76887205 </v>
    <v>       0.42123152       0.32881747       0.74344197 </v>
    <v>       0.42123151       0.82881744       0.74344197 </v>
    <v>       0.92123147       0.32881747       0.74344197 </v>
    <v>       0.92123151       0.82881744       0.74344197 </v>
    <v>       0.32880050       0.07882500       0.74342103 </v>
    <v>       0.32880049       0.57882496       0.74342103 </v>
    <v>       0.82880048       0.07882500       0.74342103 </v>
    <v>       0.82880052       0.57882496       0.74342103 </v>
    <v>       0.00000350       0.25000148       0.72582199 </v>
    <v>       0.00000350       0.75000145       0.72582199 </v>
    <v>       0.50000351       0.25000148       0.72582199 </v>
    <v>       0.50000350       0.75000145       0.72582199 </v>
    <v>       0.25000050       0.00000000       0.72580398 </v>
    <v>       0.25000052       0.50000000       0.72580398 </v>
    <v>       0.75000050       0.00000000       0.72580398 </v>
    <v>       0.75000049       0.50000000       0.72580398 </v>
    <v>       0.77630545       0.55709686       0.51960893 </v>
    <v>       0.72028607       0.47821034       0.52502182 </v>
    <v>       0.86881283       0.50107169       0.53927693 </v>
    <v>       0.85818764       0.48107297       0.56683902 </v>
    <v>       0.74442443       0.64188892       0.56021599 </v>
    <v>       0.81021763       0.59567762       0.57647339 </v>
    <v>       0.66612733       0.54823799       0.56922768 </v>
    <v>       0.67933575       0.45472829       0.56051323 </v>
    <v>       0.61727174       0.55751681       0.53693283 </v>
    <v>       0.67282068       0.63772159       0.53519958 </v>
    <v>       0.60633630       0.64581252       0.50380383 </v>
    <v>       0.68691154       0.60213172       0.49453733 </v>
    <v>       0.78512790       0.39086179       0.53038660 </v>
    <v>       0.77927638       0.37095420       0.55805241 </v>
    <v>       0.86576700       0.36802977       0.54489115 </v>
    <v>       0.86307167       0.69541174       0.55379607 </v>
    <v>       0.84315172       0.64723521       0.53004877 </v>
    <v>       0.90754188       0.60975011       0.54901734 </v>
    <v>       0.76740559       0.52888309       0.59750275 </v>
    <v>       0.77230781       0.43421483       0.58930976 </v>
    <v>       0.68976337       0.46956725       0.60018999 </v>
    <v>       0.53628319       0.52997716       0.50396402 </v>
    <v>       0.57573895       0.54745901       0.47851749 </v>
    <v>       0.69868656       0.47934021       0.46952015 </v>
    <v>       0.55778029       0.41457239       0.52154786 </v>
    <v>       0.76375335       0.35892649       0.47149952 </v>
    <v>       0.62264977       0.29380520       0.52398865 </v>
    <v>       0.72738080       0.26587743       0.49919958 </v>
    <v>       0.01884976       0.25497859       0.55771085 </v>
    <v>       0.03593514       0.76123416       0.56079173 </v>
    <v>       0.46454146       0.22761142       0.55419336 </v>
    <v>       0.49887530       0.75659953       0.55510175 </v>
    <v>       0.24041321       0.53362765       0.55950632 </v>
    <v>       0.25028682       0.01267581       0.55653490 </v>
    <v>       0.77387241       0.98103808       0.56023455 </v>
    <v>       0.01115527       0.24390316       0.64877863 </v>
    <v>       0.00937584       0.75945668       0.65217555 </v>
    <v>       0.48505165       0.23019875       0.65352994 </v>
    <v>       0.49966303       0.75354729       0.64904541 </v>
    <v>       0.25496457       0.49453106       0.64900975 </v>
    <v>       0.25325892       0.99900750       0.64673525 </v>
    <v>       0.77518754       0.48571590       0.65519342 </v>
    <v>       0.75510790       0.99911972       0.64930296 </v>
    <v>       0.49998898       0.24999498       0.74327702 </v>
    <v>       0.49998903       0.74999496       0.74327702 </v>
    <v>       0.99998898       0.24999498       0.74327702 </v>
    <v>       0.99998903       0.74999496       0.74327702 </v>
    <v>       0.25000050       0.00000100       0.74325596 </v>
    <v>       0.25000052       0.50000100       0.74325596 </v>
    <v>       0.75000050       0.00000100       0.74325596 </v>
    <v>       0.75000049       0.50000100       0.74325596 </v>
    <v>       0.62453815       0.45597332       0.49544168 </v>
    <v>       0.68273809       0.43902227       0.48143440 </v>
    <v>       0.60346838       0.40208830       0.51058781 </v>
    <v>       0.71904517       0.37074233       0.48262107 </v>
    <v>       0.63998466       0.33397393       0.51191327 </v>
    <v>       0.69826885       0.31850887       0.49790473 </v>
    <v>       0.73182372       0.53531300       0.52991648 </v>
    <v>       0.83093532       0.47763648       0.55118367 </v>
    <v>       0.79253621       0.60502867       0.55989238 </v>
    <v>       0.70640439       0.50284152       0.56796058 </v>
    <v>       0.66319412       0.58324487       0.52811771 </v>
    <v>       0.63786757       0.59386011       0.50479970 </v>
    <v>       0.81290372       0.39800611       0.54582310 </v>
    <v>       0.85528303       0.63971830       0.54716291 </v>
    <v>       0.73679024       0.48306144       0.58987573 </v>
    <v>       0.58899690       0.53185349       0.49516548 </v>
    <v>       0.99489107       0.19280747       0.56613124 </v>
    <v>       0.03243242       0.69976032       0.57193794 </v>
    <v>       0.53481844       0.21655152       0.55857663 </v>
    <v>       0.47210470       0.69575989       0.56370686 </v>
    <v>       0.42753742       0.28971942       0.55742723 </v>
    <v>       0.47022232       0.82281735       0.55812677 </v>
    <v>       0.99521222       0.32079264       0.56350571 </v>
    <v>       0.98640019       0.81454279       0.56170439 </v>
    <v>       0.23662925       0.46331336       0.56503678 </v>
    <v>       0.19147695       0.97423994       0.56186604 </v>
    <v>       0.70218242       0.98707723       0.56344430 </v>
    <v>       0.31795220       0.99534834       0.56251443 </v>
    <v>       0.30175325       0.57215751       0.55791780 </v>
    <v>       0.82236373       0.03384407       0.56342214 </v>
    <v>       0.05488038       0.19200640       0.65563993 </v>
    <v>       0.06205770       0.71305457       0.65710793 </v>
    <v>       0.55599527       0.21506922       0.65466958 </v>
    <v>       0.53303518       0.69998719       0.65941338 </v>
    <v>       0.20824494       0.44829088       0.65805758 </v>
    <v>       0.20926642       0.95587541       0.65769557 </v>
    <v>       0.70970202       0.46017527       0.66018631 </v>
    <v>       0.70594848       0.95840696       0.65903172 </v>
    <v>       0.45516975       0.29476308       0.65827235 </v>
    <v>       0.45983231       0.80665085       0.65752256 </v>
    <v>       0.96877456       0.28650473       0.66063274 </v>
    <v>       0.94370795       0.76142899       0.66125329 </v>
    <v>       0.30150863       0.04658924       0.65463747 </v>
    <v>       0.29707466       0.54215670       0.65900052 </v>
    <v>       0.80000069       0.04725730       0.65856196 </v>
    <v>       0.79319008       0.55656804       0.65514843 </v>
    <v>       0.04586250       0.20411950       0.75272599 </v>
    <v>       0.04586250       0.70411946       0.75272599 </v>
    <v>       0.54586251       0.20411950       0.75272599 </v>
    <v>       0.54586250       0.70411946       0.75272599 </v>
    <v>       0.20411900       0.45410100       0.75270499 </v>
    <v>       0.20411899       0.95410095       0.75270499 </v>
    <v>       0.70411898       0.45410100       0.75270499 </v>
    <v>       0.70411896       0.95410095       0.75270499 </v>
    <v>       0.45414002       0.29588849       0.75272697 </v>
    <v>       0.45414001       0.79588852       0.75272697 </v>
    <v>       0.95414002       0.29588849       0.75272697 </v>
    <v>       0.95414006       0.79588852       0.75272697 </v>
    <v>       0.29588249       0.04590050       0.75270499 </v>
    <v>       0.29588248       0.54590053       0.75270499 </v>
    <v>       0.79588244       0.04590050       0.75270499 </v>
    <v>       0.79588248       0.54590053       0.75270499 </v>
    <v>       0.76512755       0.53044817       0.55215725 </v>
    <v>       0.51092036       0.01707073       0.55148952 </v>
    <v>       0.47909298       0.49719005       0.55499070 </v>
    <v>       0.00714990       0.00487508       0.54870368 </v>
    <v>       0.03891344       0.50541715       0.55336575 </v>
    <v>       0.23533620       0.24249940       0.55212502 </v>
    <v>       0.25653425       0.76528016       0.55342514 </v>
    <v>       0.73669210       0.20218247       0.55491281 </v>
    <v>       0.70226554       0.79232150       0.55406138 </v>
    <v>       0.00010903       0.98354924       0.65394653 </v>
    <v>       0.99570456       0.50403491       0.65503385 </v>
    <v>       0.50054388       0.01243448       0.65409292 </v>
    <v>       0.51183568       0.48987483       0.65539781 </v>
    <v>       0.26102582       0.24631752       0.65415885 </v>
    <v>       0.26095610       0.75343124       0.65454748 </v>
    <v>       0.75082619       0.26270511       0.65446794 </v>
    <v>       0.74360814       0.75145429       0.65468881 </v>
    <v>       0.13568543       0.11167373       0.60726740 </v>
    <v>       0.15199938       0.60323662       0.60855775 </v>
    <v>       0.64854998       0.10481762       0.61043179 </v>
    <v>       0.61626670       0.62915004       0.61008363 </v>
    <v>       0.36065908       0.38556935       0.60537847 </v>
    <v>       0.37353812       0.88062978       0.60649417 </v>
    <v>       0.89095908       0.36486776       0.61012631 </v>
    <v>       0.87170043       0.87602482       0.60519252 </v>
    <v>       0.12451938       0.36843829       0.60919771 </v>
    <v>       0.12251306       0.86528238       0.60744108 </v>
    <v>       0.59119200       0.33681138       0.60151527 </v>
    <v>       0.61763512       0.87157323       0.61231363 </v>
    <v>       0.38512958       0.13366751       0.60397896 </v>
    <v>       0.38608431       0.62931525       0.61098292 </v>
    <v>       0.88653275       0.13249289       0.61123029 </v>
    <v>       0.89795716       0.64260865       0.61114860 </v>
    <v>       0.00000000       0.00000000       0.75492797 </v>
    <v>       0.00000000       0.50000000       0.75492797 </v>
    <v>       0.50000000       0.00000000       0.75492797 </v>
    <v>       0.49999999       0.50000000       0.75492797 </v>
    <v>       0.25000050       0.25000000       0.75493902 </v>
    <v>       0.25000051       0.74999997       0.75493902 </v>
    <v>       0.75000047       0.25000000       0.75493902 </v>
    <v>       0.75000046       0.74999997       0.75493902 </v>
    <v>       0.13579050       0.11421000       0.70478299 </v>
    <v>       0.13579050       0.61420998       0.70478299 </v>
    <v>       0.63579045       0.11421000       0.70478299 </v>
    <v>       0.63579049       0.61420998       0.70478299 </v>
    <v>       0.36420952       0.38578999       0.70478299 </v>
    <v>       0.36420950       0.88578996       0.70478299 </v>
    <v>       0.86420954       0.38578999       0.70478299 </v>
    <v>       0.86420953       0.88578996       0.70478299 </v>
    <v>       0.11421799       0.36421899       0.70478098 </v>
    <v>       0.11421799       0.86421899       0.70478098 </v>
    <v>       0.61421800       0.36421899       0.70478098 </v>
    <v>       0.61421799       0.86421899       0.70478098 </v>
    <v>       0.38578201       0.13578149       0.70478202 </v>
    <v>       0.38578200       0.63578149       0.70478202 </v>
    <v>       0.88578199       0.13578149       0.70478202 </v>
    <v>       0.88578203       0.63578149       0.70478202 </v>
    <v>       0.13466700       0.11533200       0.80125603 </v>
    <v>       0.13466699       0.61533199       0.80125603 </v>
    <v>       0.63466699       0.11533200       0.80125603 </v>
    <v>       0.63466698       0.61533199       0.80125603 </v>
    <v>       0.36533300       0.38466799       0.80125603 </v>
    <v>       0.36533299       0.88466796       0.80125603 </v>
    <v>       0.86533295       0.38466799       0.80125603 </v>
    <v>       0.86533294       0.88466796       0.80125603 </v>
    <v>       0.11532850       0.36533700       0.80126500 </v>
    <v>       0.11532850       0.86533698       0.80126500 </v>
    <v>       0.61532850       0.36533700       0.80126500 </v>
    <v>       0.61532849       0.86533698       0.80126500 </v>
    <v>       0.38467151       0.13466300       0.80126500 </v>
    <v>       0.38467150       0.63466297       0.80126500 </v>
    <v>       0.88467149       0.13466300       0.80126500 </v>
    <v>       0.88467153       0.63466297       0.80126500 </v>
    <v>       0.00002324       0.99756310       0.60501078 </v>
    <v>       0.00682664       0.50208139       0.60509338 </v>
    <v>       0.50316781       0.00762671       0.60323809 </v>
    <v>       0.49754870       0.49229169       0.60483380 </v>
    <v>       0.24731662       0.24619637       0.60239869 </v>
    <v>       0.25181184       0.74479824       0.60372323 </v>
    <v>       0.74264051       0.24655408       0.60290013 </v>
    <v>       0.73846754       0.75508809       0.60332252 </v>
    <v>       0.00000050       0.00000050       0.70482896 </v>
    <v>       0.00000050       0.50000048       0.70482896 </v>
    <v>       0.50000048       0.00000050       0.70482896 </v>
    <v>       0.50000046       0.50000048       0.70482896 </v>
    <v>       0.24999999       0.24999947       0.70482499 </v>
    <v>       0.25000001       0.74999950       0.70482499 </v>
    <v>       0.74999999       0.24999947       0.70482499 </v>
    <v>       0.74999998       0.74999950       0.70482499 </v>
    <v>       0.00000000       0.00000000       0.80731797 </v>
    <v>       0.00000000       0.50000000       0.80731797 </v>
    <v>       0.50000000       0.00000000       0.80731797 </v>
    <v>       0.49999999       0.50000000       0.80731797 </v>
    <v>       0.24999999       0.25000000       0.80731797 </v>
    <v>       0.25000001       0.74999997       0.80731797 </v>
    <v>       0.74999999       0.25000000       0.80731797 </v>
    <v>       0.74999998       0.74999997       0.80731797 </v>
   </varray>
  </structure>
  <varray name="primitive_index" >
   <v type="int" >        1 </v>
   <v type="int" >        2 </v>
   <v type="int" >        3 </v>
   <v type="int" >        4 </v>
   <v type="int" >        5 </v>
   <v type="int" >        6 </v>
   <v type="int" >        7 </v>
   <v type="int" >        8 </v>
   <v type="int" >        9 </v>
   <v type="int" >       10 </v>
   <v type="int" >       11 </v>
   <v type="int" >       12 </v>
   <v type="int" >       13 </v>
   <v type="int" >       14 </v>
   <v type="int" >       15 </v>
   <v type="int" >       16 </v>
   <v type="int" >       17 </v>
   <v type="int" >       18 </v>
   <v type="int" >       19 </v>
   <v type="int" >       20 </v>
   <v type="int" >       21 </v>
   <v type="int" >       22 </v>
   <v type="int" >       23 </v>
   <v type="int" >       24 </v>
   <v type="int" >       25 </v>
   <v type="int" >       26 </v>
   <v type="int" >       27 </v>
   <v type="int" >       28 </v>
   <v type="int" >       29 </v>
   <v type="int" >       30 </v>
   <v type="int" >       31 </v>
   <v type="int" >       32 </v>
   <v type="int" >       33 </v>
   <v type="int" >       34 </v>
   <v type="int" >       35 </v>
   <v type="int" >       36 </v>
   <v type="int" >       37 </v>
   <v type="int" >       38 </v>
   <v type="int" >       39 </v>
   <v type="int" >       40 </v>
   <v type="int" >       41 </v>
   <v type="int" >       42 </v>
   <v type="int" >       43 </v>
   <v type="int" >       44 </v>
   <v type="int" >       45 </v>
   <v type="int" >       46 </v>
   <v type="int" >       47 </v>
   <v type="int" >       48 </v>
   <v type="int" >       49 </v>
   <v type="int" >       50 </v>
   <v type="int" >       51 </v>
   <v type="int" >       52 </v>
   <v type="int" >       53 </v>
   <v type="int" >       54 </v>
   <v type="int" >       55 </v>
   <v type="int" >       56 </v>
   <v type="int" >       57 </v>
   <v type="int" >       58 </v>
   <v type="int" >       59 </v>
   <v type="int" >       60 </v>
   <v type="int" >       61 </v>
   <v type="int" >       62 </v>
   <v type="int" >       63 </v>
   <v type="int" >       64 </v>
   <v type="int" >       65 </v>
   <v type="int" >       66 </v>
   <v type="int" >       67 </v>
   <v type="int" >       68 </v>
   <v type="int" >       69 </v>
   <v type="int" >       70 </v>
   <v type="int" >       71 </v>
   <v type="int" >       72 </v>
   <v type="int" >       73 </v>
   <v type="int" >       74 </v>
   <v type="int" >       75 </v>
   <v type="int" >       76 </v>
   <v type="int" >       77 </v>
   <v type="int" >       78 </v>
   <v type="int" >       79 </v>
   <v type="int" >       80 </v>
   <v type="int" >       81 </v>
   <v type="int" >       82 </v>
   <v type="int" >       83 </v>
   <v type="int" >       84 </v>
   <v type="int" >       85 </v>
   <v type="int" >       86 </v>
   <v type="int" >       87 </v>
   <v type="int" >       88 </v>
   <v type="int" >       89 </v>
   <v type="int" >       90 </v>
   <v type="int" >       91 </v>
   <v type="int" >       92 </v>
   <v type="int" >       93 </v>
   <v type="int" >       94 </v>
   <v type="int" >       95 </v>
   <v type="int" >       96 </v>
   <v type="int" >       97 </v>
   <v type="int" >       98 </v>
   <v type="int" >       99 </v>
   <v type="int" >      100 </v>
   <v type="int" >      101 </v>
   <v type="int" >      102 </v>
   <v type="int" >      103 </v>
   <v type="int" >      104 </v>
   <v type="int" >      105 </v>
   <v type="int" >      106 </v>
   <v type="int" >      107 </v>
   <v type="int" >      108 </v>
   <v type="int" >      109 </v>
   <v type="int" >      110 </v>
   <v type="int" >      111 </v>
   <v type="int" >      112 </v>
   <v type="int" >      113 </v>
   <v type="int" >      114 </v>
   <v type="int" >      115 </v>
   <v type="int" >      116 </v>
   <v type="int" >      117 </v>
   <v type="int" >      118 </v>
   <v type="int" >      119 </v>
   <v type="int" >      120 </v>
   <v type="int" >      121 </v>
   <v type="int" >      122 </v>
   <v type="int" >      123 </v>
   <v type="int" >      124 </v>
   <v type="int" >      125 </v>
   <v type="int" >      126 </v>
   <v type="int" >      127 </v>
   <v type="int" >      128 </v>
   <v type="int" >      129 </v>
   <v type="int" >      130 </v>
   <v type="int" >      131 </v>
   <v type="int" >      132 </v>
   <v type="int" >      133 </v>
   <v type="int" >      134 </v>
   <v type="int" >      135 </v>
   <v type="int" >      136 </v>
   <v type="int" >      137 </v>
   <v type="int" >      138 </v>
   <v type="int" >      139 </v>
   <v type="int" >      140 </v>
   <v type="int" >      141 </v>
   <v type="int" >      142 </v>
   <v type="int" >      143 </v>
   <v type="int" >      144 </v>
   <v type="int" >      145 </v>
   <v type="int" >      146 </v>
   <v type="int" >      147 </v>
   <v type="int" >      148 </v>
   <v type="int" >      149 </v>
   <v type="int" >      150 </v>
   <v type="int" >      151 </v>
   <v type="int" >      152 </v>
   <v type="int" >      153 </v>
   <v type="int" >      154 </v>
   <v type="int" >      155 </v>
   <v type="int" >      156 </v>
   <v type="int" >      157 </v>
   <v type="int" >      158 </v>
   <v type="int" >      159 </v>
   <v type="int" >      160 </v>
   <v type="int" >      161 </v>
   <v type="int" >      162 </v>
   <v type="int" >      163 </v>
   <v type="int" >      164 </v>
   <v type="int" >      165 </v>
   <v type="int" >      166 </v>
   <v type="int" >      167 </v>
   <v type="int" >      168 </v>
   <v type="int" >      169 </v>
   <v type="int" >      170 </v>
   <v type="int" >      171 </v>
   <v type="int" >      172 </v>
   <v type="int" >      173 </v>
   <v type="int" >      174 </v>
   <v type="int" >      175 </v>
   <v type="int" >      176 </v>
   <v type="int" >      177 </v>
   <v type="int" >      178 </v>
   <v type="int" >      179 </v>
   <v type="int" >      180 </v>
   <v type="int" >      181 </v>
   <v type="int" >      182 </v>
   <v type="int" >      183 </v>
   <v type="int" >      184 </v>
   <v type="int" >      185 </v>
   <v type="int" >      186 </v>
   <v type="int" >      187 </v>
   <v type="int" >      188 </v>
   <v type="int" >      189 </v>
   <v type="int" >      190 </v>
   <v type="int" >      191 </v>
   <v type="int" >      192 </v>
   <v type="int" >      193 </v>
   <v type="int" >      194 </v>
   <v type="int" >      195 </v>
   <v type="int" >      196 </v>
   <v type="int" >      197 </v>
   <v type="int" >      198 </v>
   <v type="int" >      199 </v>
   <v type="int" >      200 </v>
   <v type="int" >      201 </v>
   <v type="int" >      202 </v>
   <v type="int" >      203 </v>
   <v type="int" >      204 </v>
   <v type="int" >      205 </v>
   <v type="int" >      206 </v>
   <v type="int" >      207 </v>
   <v type="int" >      208 </v>
   <v type="int" >      209 </v>
   <v type="int" >      210 </v>
   <v type="int" >      211 </v>
   <v type="int" >      212 </v>
   <v type="int" >      213 </v>
   <v type="int" >      214 </v>
   <v type="int" >      215 </v>
   <v type="int" >      216 </v>
   <v type="int" >      217 </v>
   <v type="int" >      218 </v>
   <v type="int" >      219 </v>
   <v type="int" >      220 </v>
   <v type="int" >      221 </v>
   <v type="int" >      222 </v>
   <v type="int" >      223 </v>
   <v type="int" >      224 </v>
   <v type="int" >      225 </v>
   <v type="int" >      226 </v>
   <v type="int" >      227 </v>
   <v type="int" >      228 </v>
   <v type="int" >      229 </v>
   <v type="int" >      230 </v>
   <v type="int" >      231 </v>
   <v type="int" >      232 </v>
   <v type="int" >      233 </v>
   <v type="int" >      234 </v>
   <v type="int" >      235 </v>
   <v type="int" >      236 </v>
   <v type="int" >      237 </v>
   <v type="int" >      238 </v>
   <v type="int" >      239 </v>
   <v type="int" >      240 </v>
   <v type="int" >      241 </v>
   <v type="int" >      242 </v>
   <v type="int" >      243 </v>
   <v type="int" >      244 </v>
   <v type="int" >      245 </v>
   <v type="int" >      246 </v>
   <v type="int" >      247 </v>
   <v type="int" >      248 </v>
   <v type="int" >      249 </v>
   <v type="int" >      250 </v>
   <v type="int" >      251 </v>
   <v type="int" >      252 </v>
   <v type="int" >      253 </v>
   <v type="int" >      254 </v>
   <v type="int" >      255 </v>
   <v type="int" >      256 </v>
   <v type="int" >      257 </v>
   <v type="int" >      258 </v>
   <v type="int" >      259 </v>
   <v type="int" >      260 </v>
   <v type="int" >      261 </v>
   <v type="int" >      262 </v>
   <v type="int" >      263 </v>
   <v type="int" >      264 </v>
   <v type="int" >      265 </v>
   <v type="int" >      266 </v>
   <v type="int" >      267 </v>
   <v type="int" >      268 </v>
   <v type="int" >      269 </v>
   <v type="int" >      270 </v>
   <v type="int" >      271 </v>
   <v type="int" >      272 </v>
   <v type="int" >      273 </v>
   <v type="int" >      274 </v>
   <v type="int" >      275 </v>
   <v type="int" >      276 </v>
   <v type="int" >      277 </v>
   <v type="int" >      278 </v>
   <v type="int" >      279 </v>
   <v type="int" >      280 </v>
   <v type="int" >      281 </v>
   <v type="int" >      282 </v>
   <v type="int" >      283 </v>
   <v type="int" >      284 </v>
   <v type="int" >      285 </v>
   <v type="int" >      286 </v>
   <v type="int" >      287 </v>
   <v type="int" >      288 </v>
   <v type="int" >      289 </v>
   <v type="int" >      290 </v>
   <v type="int" >      291 </v>
   <v type="int" >      292 </v>
   <v type="int" >      293 </v>
   <v type="int" >      294 </v>
   <v type="int" >      295 </v>
   <v type="int" >      296 </v>
   <v type="int" >      297 </v>
   <v type="int" >      298 </v>
   <v type="int" >      299 </v>
   <v type="int" >      300 </v>
   <v type="int" >      301 </v>
   <v type="int" >      302 </v>
   <v type="int" >      303 </v>
   <v type="int" >      304 </v>
   <v type="int" >      305 </v>
   <v type="int" >      306 </v>
   <v type="int" >      307 </v>
   <v type="int" >      308 </v>
   <v type="int" >      309 </v>
   <v type="int" >      310 </v>
   <v type="int" >      311 </v>
   <v type="int" >      312 </v>
   <v type="int" >      313 </v>
   <v type="int" >      314 </v>
   <v type="int" >      315 </v>
   <v type="int" >      316 </v>
   <v type="int" >      317 </v>
   <v type="int" >      318 </v>
   <v type="int" >      319 </v>
   <v type="int" >      320 </v>
   <v type="int" >      321 </v>
   <v type="int" >      322 </v>
   <v type="int" >      323 </v>
   <v type="int" >      324 </v>
   <v type="int" >      325 </v>
  </varray>
 </primitive_cell>
 <kpoints>
  <generation param="Gamma">
   <v type="int" name="divisions">       3        3        1 </v>
   <v name="usershift">      0.00000000       0.00000000       0.00000000 </v>
   <v name="genvec1">      0.33333333       0.00000000       0.00000000 </v>
   <v name="genvec2">      0.00000000       0.33333333       0.00000000 </v>
   <v name="genvec3">      0.00000000       0.00000000       1.00000000 </v>
   <v name="shift">      0.00000000       0.00000000       0.00000000 </v>
  </generation>
  <varray name="kpointlist" >
   <v>       0.00000000       0.00000000       0.00000000 </v>
   <v>       0.33333333       0.00000000       0.00000000 </v>
   <v>       0.00000000       0.33333333       0.00000000 </v>
   <v>       0.33333333       0.33333333       0.00000000 </v>
   <v>      -0.33333333       0.33333333       0.00000000 </v>
  </varray>
  <varray name="weights" >
   <v>       0.11111111 </v>
   <v>       0.22222222 </v>
   <v>       0.22222222 </v>
   <v>       0.22222222 </v>
   <v>       0.22222222 </v>
  </varray>
 </kpoints>
 <parameters>
  <separator name="general" >
   <i type="string" name="SYSTEM">PSC</i>
   <i type="logical" name="LCOMPAT"> F  </i>
  </separator>
  <separator name="electronic" >
   <i type="string" name="PREC">normal</i>
   <i name="ENMAX">    500.00000000</i>
   <i name="ENAUG">    644.87300000</i>
   <i name="EDIFF">      0.00010000</i>
   <i type="int" name="IALGO">    38</i>
   <i type="int" name="IWAVPR">    10</i>
   <i type="int" name="NBANDS">   732</i>
   <i type="int" name="NBANDSLOW">    -1</i>
   <i type="int" name="NBANDSHIGH">    -1</i>
   <i name="NELECT">   1134.00000000</i>
   <i type="int" name="TURBO">     0</i>
   <i type="int" name="IRESTART">     0</i>
   <i type="int" name="NREBOOT">     0</i>
   <i type="int" name="NMIN">     0</i>
   <i name="EREF">      0.00000000</i>
   <separator name="electronic smearing" >
    <i type="int" name="ISMEAR">     0</i>
    <i name="SIGMA">      0.05000000</i>
    <i name="KSPACING">      0.50000000</i>
    <i type="logical" name="KGAMMA"> T  </i>
    <i type="logical" name="KBLOWUP"> T  </i>
   </separator>
   <separator name="electronic projectors" >
    <i type="logical" name="LREAL"> T  </i>
    <v name="ROPT">     -0.00050000     -0.00050000     -0.00050000     -0.00050000     -0.00050000</v>
    <i type="int" name="LMAXPAW">  -100</i>
    <i type="int" name="LMAXMIX">     2</i>
    <i type="logical" name="NLSPLINE"> F  </i>
   </separator>
   <separator name="electronic startup" >
    <i type="int" name="ISTART">     0</i>
    <i type="int" name="ICHARG">     1</i>
    <i type="int" name="INIWAV">     1</i>
   </separator>
   <separator name="electronic spin" >
    <i type="int" name="ISPIN">     1</i>
    <i type="logical" name="LNONCOLLINEAR"> F  </i>
    <v name="MAGMOM">      1.00000000      1.00000000      1.00000000      1.00000000      1.00000000      1.00000000      1.00000000      1.00000000      1.00000000      1.00000000      1.00000000      1.00000000      1.00000000      1.00000000      1.00000000      1.00000000      1.00000000      1.00000000      1.00000000      1.00000000
      1.00000000      1.00000000      1.00000000      1.00000000      1.00000000      1.00000000      1.00000000      1.00000000      1.00000000      1.00000000      1.00000000      1.00000000      1.00000000      1.00000000      1.00000000      1.00000000      1.00000000      1.00000000      1.00000000      1.00000000
      1.00000000      1.00000000      1.00000000      1.00000000      1.00000000      1.00000000      1.00000000      1.00000000      1.00000000      1.00000000      1.00000000      1.00000000      1.00000000      1.00000000      1.00000000      1.00000000      1.00000000      1.00000000      1.00000000      1.00000000
      1.00000000      1.00000000      1.00000000      1.00000000      1.00000000      1.00000000      1.00000000      1.00000000      1.00000000      1.00000000      1.00000000      1.00000000      1.00000000      1.00000000      1.00000000      1.00000000      1.00000000      1.00000000      1.00000000      1.00000000
      1.00000000      1.00000000      1.00000000      1.00000000      1.00000000      1.00000000      1.00000000      1.00000000      1.00000000      1.00000000      1.00000000      1.00000000      1.00000000      1.00000000      1.00000000      1.00000000      1.00000000      1.00000000      1.00000000      1.00000000
      1.00000000      1.00000000      1.00000000      1.00000000      1.00000000      1.00000000      1.00000000      1.00000000      1.00000000      1.00000000      1.00000000      1.00000000      1.00000000      1.00000000      1.00000000      1.00000000      1.00000000      1.00000000      1.00000000      1.00000000
      1.00000000      1.00000000      1.00000000      1.00000000      1.00000000      1.00000000      1.00000000      1.00000000      1.00000000      1.00000000      1.00000000      1.00000000      1.00000000      1.00000000      1.00000000      1.00000000      1.00000000      1.00000000      1.00000000      1.00000000
      1.00000000      1.00000000      1.00000000      1.00000000      1.00000000      1.00000000      1.00000000      1.00000000      1.00000000      1.00000000      1.00000000      1.00000000      1.00000000      1.00000000      1.00000000      1.00000000      1.00000000      1.00000000      1.00000000      1.00000000
      1.00000000      1.00000000      1.00000000      1.00000000      1.00000000      1.00000000      1.00000000      1.00000000      1.00000000      1.00000000      1.00000000      1.00000000      1.00000000      1.00000000      1.00000000      1.00000000      1.00000000      1.00000000      1.00000000      1.00000000
      1.00000000      1.00000000      1.00000000      1.00000000      1.00000000      1.00000000      1.00000000      1.00000000      1.00000000      1.00000000      1.00000000      1.00000000      1.00000000      1.00000000      1.00000000      1.00000000      1.00000000      1.00000000      1.00000000      1.00000000
      1.00000000      1.00000000      1.00000000      1.00000000      1.00000000      1.00000000      1.00000000      1.00000000      1.00000000      1.00000000      1.00000000      1.00000000      1.00000000      1.00000000      1.00000000      1.00000000      1.00000000      1.00000000      1.00000000      1.00000000
      1.00000000      1.00000000      1.00000000      1.00000000      1.00000000      1.00000000      1.00000000      1.00000000      1.00000000      1.00000000      1.00000000      1.00000000      1.00000000      1.00000000      1.00000000      1.00000000      1.00000000      1.00000000      1.00000000      1.00000000
      1.00000000      1.00000000      1.00000000      1.00000000      1.00000000      1.00000000      1.00000000      1.00000000      1.00000000      1.00000000      1.00000000      1.00000000      1.00000000      1.00000000      1.00000000      1.00000000      1.00000000      1.00000000      1.00000000      1.00000000
      1.00000000      1.00000000      1.00000000      1.00000000      1.00000000      1.00000000      1.00000000      1.00000000      1.00000000      1.00000000      1.00000000      1.00000000      1.00000000      1.00000000      1.00000000      1.00000000      1.00000000      1.00000000      1.00000000      1.00000000
      1.00000000      1.00000000      1.00000000      1.00000000      1.00000000      1.00000000      1.00000000      1.00000000      1.00000000      1.00000000      1.00000000      1.00000000      1.00000000      1.00000000      1.00000000      1.00000000      1.00000000      1.00000000      1.00000000      1.00000000
      1.00000000      1.00000000      1.00000000      1.00000000      1.00000000      1.00000000      1.00000000      1.00000000      1.00000000      1.00000000      1.00000000      1.00000000      1.00000000      1.00000000      1.00000000      1.00000000      1.00000000      1.00000000      1.00000000      1.00000000
      1.00000000      1.00000000      1.00000000      1.00000000      1.00000000</v>
    <i name="NUPDOWN">     -1.00000000</i>
    <i type="logical" name="LSORBIT"> F  </i>
    <v name="SAXIS">      0.00000000      0.00000000      1.00000000</v>
    <i type="logical" name="LSPIRAL"> F  </i>
    <v name="QSPIRAL">      0.00000000      0.00000000      0.00000000</v>
    <i type="logical" name="LZEROZ"> F  </i>
   </separator>
   <separator name="electronic exchange-correlation" >
    <i type="logical" name="LASPH"> F  </i>
    <i type="logical" name="LMETAGGA"> F  </i>
   </separator>
   <separator name="electronic convergence" >
    <i type="int" name="NELM">   600</i>
    <i type="int" name="NELMDL">     0</i>
    <i type="int" name="NELMIN">     2</i>
    <i name="ENINI">    500.00000000</i>
    <separator name="electronic convergence detail" >
     <i type="logical" name="LDIAG"> T  </i>
     <i type="logical" name="LSUBROT"> F  </i>
     <i name="WEIMIN">      0.00000000</i>
     <i name="EBREAK">      0.00000003</i>
     <i name="DEPER">      0.30000000</i>
     <i type="int" name="NRMM">     4</i>
     <i name="TIME">      0.40000000</i>
    </separator>
   </separator>
   <separator name="electronic mixer" >
    <i name="AMIX">      0.40000000</i>
    <i name="BMIX">      0.01000000</i>
    <i name="AMIN">      0.01000000</i>
    <i name="AMIX_MAG">      1.60000000</i>
    <i name="BMIX_MAG">      0.01000000</i>
    <separator name="electronic mixer details" >
     <i type="int" name="IMIX">     4</i>
     <i type="logical" name="MIXFIRST"> F  </i>
     <i type="int" name="MAXMIX">   -45</i>
     <i name="WC">    100.00000000</i>
     <i type="int" name="INIMIX">     1</i>
     <i type="int" name="MIXPRE">     1</i>
     <i type="int" name="MREMOVE">     5</i>
    </separator>
   </separator>
   <separator name="electronic dipolcorrection" >
    <i type="logical" name="LDIPOL"> T  </i>
    <i type="logical" name="LMONO"> F  </i>
    <i type="int" name="IDIPOL">     3</i>
    <i name="EPSILON">      1.00000000</i>
    <v name="DIPOL">   -100.00000000   -100.00000000   -100.00000000</v>
    <i name="EFIELD">      0.00000000</i>
   </separator>
  </separator>
  <separator name="grids" >
   <i type="int" name="NGX">   100</i>
   <i type="int" name="NGY">   100</i>
   <i type="int" name="NGZ">   350</i>
   <i type="int" name="NGXF">   200</i>
   <i type="int" name="NGYF">   200</i>
   <i type="int" name="NGZF">   700</i>
   <i type="logical" name="ADDGRID"> F  </i>
  </separator>
  <separator name="ionic" >
   <i type="int" name="NSW">     0</i>
   <i type="int" name="IBRION">    -1</i>
   <i type="int" name="MDALGO">     0</i>
   <i type="int" name="ISIF">     2</i>
   <i name="PSTRESS">      0.00000000</i>
   <i name="EDIFFG">      0.00100000</i>
   <i type="int" name="NFREE">     0</i>
   <i name="POTIM">      0.50000000</i>
   <i name="SMASS">     -3.00000000</i>
   <i name="SCALEE">      1.00000000</i>
  </separator>
  <separator name="ionic md" >
   <i name="TEBEG">      0.00010000</i>
   <i name="TEEND">      0.00010000</i>
   <i type="int" name="NBLOCK">     1</i>
   <i type="int" name="KBLOCK">     1</i>
   <i type="int" name="NPACO">   256</i>
   <i name="APACO">     16.00000000</i>
  </separator>
  <separator name="symmetry" >
   <i type="int" name="ISYM">     0</i>
   <i name="SYMPREC">      0.00001000</i>
  </separator>
  <separator name="dos" >
   <i type="int" name="LORBIT">     0</i>
   <v name="RWIGS">     -1.00000000     -1.00000000     -1.00000000     -1.00000000     -1.00000000</v>
   <i type="int" name="NEDOS">   301</i>
   <i name="EMIN">     10.00000000</i>
   <i name="EMAX">    -10.00000000</i>
   <i name="EFERMI">      0.00000000</i>
  </separator>
  <separator name="writing" >
   <i type="int" name="NWRITE">     2</i>
   <i type="logical" name="LWAVE"> F  </i>
   <i type="logical" name="LDOWNSAMPLE"> F  </i>
   <i type="logical" name="LCHARG"> T  </i>
   <i type="logical" name="LPARD"> F  </i>
   <i type="logical" name="LVTOT"> T  </i>
   <i type="logical" name="LVHAR"> F  </i>
   <i type="logical" name="LELF"> F  </i>
   <i type="logical" name="LOPTICS"> F  </i>
   <v name="STM">      0.00000000      0.00000000      0.00000000      0.00000000      0.00000000      0.00000000      0.00000000</v>
  </separator>
  <separator name="performance" >
   <i type="int" name="NPAR">     4</i>
   <i type="int" name="NSIM">     4</i>
   <i type="int" name="NBLK">    -1</i>
   <i type="logical" name="LPLANE"> T  </i>
   <i type="logical" name="LSCALAPACK"> T  </i>
   <i type="logical" name="LSCAAWARE"> F  </i>
   <i type="logical" name="LSCALU"> F  </i>
   <i type="logical" name="LASYNC"> F  </i>
   <i type="logical" name="LORBITALREAL"> F  </i>
  </separator>
  <separator name="miscellaneous" >
   <i type="int" name="IDIOT">     3</i>
   <i type="int" name="PHON_NSTRUCT">    -1</i>
   <i type="logical" name="LMUSIC"> F  </i>
   <v name="POMASS">      1.00000000     12.01100000     14.00100000    126.90400000    207.20000000</v>
   <v name="DARWINR">      0.00000000      0.00000000      0.00000000      0.00000000      0.00000000</v>
   <v name="DARWINV">      1.00000000      1.00000000      1.00000000      1.00000000      1.00000000</v>
   <i type="logical" name="LCORR"> T  </i>
  </separator>
  <i type="logical" name="GGA_COMPAT"> F  </i>
  <i type="logical" name="LBERRY"> F  </i>
  <i type="int" name="ICORELEVEL">     0</i>
  <i type="logical" name="LDAU"> F  </i>
  <i type="int" name="I_CONSTRAINED_M">     0</i>
  <separator name="electronic exchange-correlation" >
   <i type="string" name="GGA">--</i>
   <i type="int" name="VOSKOWN">     0</i>
   <i type="logical" name="LHFCALC"> F  </i>
   <i type="string" name="PRECFOCK"></i>
   <i type="logical" name="LSYMGRAD"> F  </i>
   <i type="logical" name="LHFONE"> F  </i>
   <i type="logical" name="LRHFCALC"> F  </i>
   <i type="logical" name="LTHOMAS"> F  </i>
   <i type="logical" name="LMODELHF"> F  </i>
   <i type="logical" name="LFOCKACE"> F  </i>
   <i name="ENCUT4O">     -1.00000000</i>
   <i type="int" name="EXXOEP">     0</i>
   <i type="int" name="FOURORBIT">     0</i>
   <i name="AEXX">      0.00000000</i>
   <i name="HFALPHA">      0.00000000</i>
   <i name="MCALPHA">      0.00000000</i>
   <i name="ALDAX">      1.00000000</i>
   <i name="AGGAX">      1.00000000</i>
   <i name="ALDAC">      1.00000000</i>
   <i name="AGGAC">      1.00000000</i>
   <i type="int" name="NKREDX">     1</i>
   <i type="int" name="NKREDY">     1</i>
   <i type="int" name="NKREDZ">     1</i>
   <i type="logical" name="SHIFTRED"> F  </i>
   <i type="logical" name="ODDONLY"> F  </i>
   <i type="logical" name="EVENONLY"> F  </i>
   <i type="int" name="LMAXFOCK">     0</i>
   <i type="int" name="NMAXFOCKAE">     0</i>
   <i type="logical" name="LFOCKAEDFT"> F  </i>
   <i name="HFSCREEN">      0.00000000</i>
   <i name="HFSCREENC">      0.00000000</i>
   <i type="int" name="NBANDSGWLOW">     0</i>
  </separator>
  <separator name="vdW DFT" >
   <i type="logical" name="LUSE_VDW"> F  </i>
   <i name="Zab_VDW">     -0.84910000</i>
   <i name="PARAM1">      0.12340000</i>
   <i name="PARAM2">      1.00000000</i>
   <i name="PARAM3">      0.00000000</i>
  </separator>
  <separator name="model GW" >
   <i type="int" name="MODEL_GW">     0</i>
   <i name="MODEL_EPS0">     37.63423484</i>
   <i name="MODEL_ALPHA">      1.00000000</i>
  </separator>
  <separator name="linear response parameters" >
   <i type="logical" name="LEPSILON"> F  </i>
   <i type="logical" name="LRPA"> F  </i>
   <i type="logical" name="LNABLA"> F  </i>
   <i type="logical" name="LVEL"> F  </i>
   <i type="int" name="KINTER">     0</i>
   <i name="CSHIFT">      0.10000000</i>
   <i name="OMEGAMAX">     -1.00000000</i>
   <i name="DEG_THRESHOLD">      0.00200000</i>
   <i name="RTIME">     -0.10000000</i>
   <i name="WPLASMAI">      0.00000000</i>
   <v name="DFIELD">      0.00000000      0.00000000      0.00000000</v>
   <v name="WPLASMA">      0.00000000      0.00000000      0.00000000      0.00000000      0.00000000      0.00000000      0.00000000      0.00000000      0.00000000</v>
  </separator>
  <separator name="orbital magnetization" >
   <i type="logical" name="NUCIND"> F  </i>
   <v name="MAGPOS">      0.00000000      0.00000000      0.00000000</v>
   <i type="logical" name="LNICSALL"> T  </i>
   <i type="logical" name="ORBITALMAG"> F  </i>
   <i type="logical" name="LMAGBLOCH"> F  </i>
   <i type="logical" name="LCHIMAG"> F  </i>
   <i type="logical" name="LGAUGE"> T  </i>
   <i type="int" name="MAGATOM">     0</i>
   <v name="MAGDIPOL">      0.00000000      0.00000000      0.00000000</v>
   <v name="AVECCONST">      0.00000000      0.00000000      0.00000000</v>
  </separator>
  <separator name="response functions" >
   <i type="logical" name="LFINITE_TEMPERATURE"> F  </i>
   <i type="logical" name="LADDER"> F  </i>
   <i type="logical" name="LRPAFORCE"> F  </i>
   <i type="logical" name="LFXC"> F  </i>
   <i type="logical" name="LHARTREE"> T  </i>
   <i type="int" name="IBSE">     0</i>
   <v type="int" name="KPOINT">    -1     0     0     0</v>
   <i type="logical" name="LTCTC"> F  </i>
   <i type="logical" name="LTCTE"> F  </i>
   <i type="logical" name="LTETE"> F  </i>
   <i type="logical" name="LTRIPLET"> F  </i>
   <i type="logical" name="LFXCEPS"> F  </i>
   <i type="logical" name="LFXHEG"> F  </i>
   <i type="int" name="NATURALO">     2</i>
   <i type="logical" name="LHOLEGF"> F  </i>
   <i type="logical" name="L2ORDER"> F  </i>
   <i type="logical" name="LDMP1"> F  </i>
   <i type="logical" name="LMP2LT"> F  </i>
   <i type="logical" name="LSMP2LT"> F  </i>
   <i type="logical" name="LGWLF"> F  </i>
   <i name="ENCUTGW">     -2.00000000</i>
   <i name="ENCUTGWSOFT">     -2.00000000</i>
   <i name="ENCUTLF">     -1.00000000</i>
   <i type="logical" name="LESF_SPLINES"> F  </i>
   <i type="int" name="LMAXMP2">    -1</i>
   <i name="SCISSOR">      0.00000000</i>
   <i type="int" name="NOMEGA">     0</i>
   <i type="int" name="NOMEGAR">     0</i>
   <i type="int" name="NBANDSGW">    -1</i>
   <i type="int" name="NBANDSO">    -1</i>
   <i type="int" name="NBANDSV">    -1</i>
   <i type="int" name="NELM">   600</i>
   <i type="int" name="NELMHF">     1</i>
   <i type="int" name="DIM">     3</i>
   <i type="int" name="IESPILON">     4</i>
   <i type="int" name="ANTIRES">     0</i>
   <i name="OMEGAMAX">    -30.00000000</i>
   <i name="OMEGAMIN">    -30.00000000</i>
   <i name="OMEGATL">   -200.00000000</i>
   <i type="int" name="OMEGAGRID">     0</i>
   <i name="CSHIFT">     -0.10000000</i>
   <i type="logical" name="LSELFENERGY"> F  </i>
   <i type="logical" name="LSPECTRAL"> F  </i>
   <i type="logical" name="LSPECTRALGW"> F  </i>
   <i type="logical" name="LSINGLES"> F  </i>
   <i type="logical" name="LFERMIGW"> F  </i>
   <i type="logical" name="ODDONLYGW"> F  </i>
   <i type="logical" name="EVENONLYGW"> F  </i>
   <i type="int" name="NKREDLFX">     1</i>
   <i type="int" name="NKREDLFY">     1</i>
   <i type="int" name="NKREDLFZ">     1</i>
   <i type="int" name="MAXMEM">  2800</i>
   <i type="int" name="TELESCOPE">     0</i>
   <i type="int" name="NTAUPAR">    -1</i>
   <i type="int" name="NOMEGAPAR">    -1</i>
   <i name="DAMP_NEWTON">      0.80000001</i>
   <i name="LAMBDA">      1.00000000</i>
  </separator>
  <separator name="External order field" >
   <i name="OFIELD_KAPPA">      0.00000000</i>
   <v name="OFIELD_K">      0.00000000      0.00000000      0.00000000</v>
   <i name="OFIELD_Q6_NEAR">      0.00000000</i>
   <i name="OFIELD_Q6_FAR">      0.00000000</i>
   <i name="OFIELD_A">      0.00000000</i>
  </separator>
 </parameters>
 <atominfo>
  <atoms>     325 </atoms>
  <types>       5 </types>
  <array name="atoms" >
   <dimension dim="1">ion</dimension>
   <field type="string">element</field>
   <field type="int">atomtype</field>
   <set>
    <rc><c>H </c><c>   1</c></rc>
    <rc><c>H </c><c>   1</c></rc>
    <rc><c>H </c><c>   1</c></rc>
    <rc><c>H </c><c>   1</c></rc>
    <rc><c>H </c><c>   1</c></rc>
    <rc><c>H </c><c>   1</c></rc>
    <rc><c>H </c><c>   1</c></rc>
    <rc><c>H </c><c>   1</c></rc>
    <rc><c>H </c><c>   1</c></rc>
    <rc><c>H </c><c>   1</c></rc>
    <rc><c>H </c><c>   1</c></rc>
    <rc><c>H </c><c>   1</c></rc>
    <rc><c>H </c><c>   1</c></rc>
    <rc><c>H </c><c>   1</c></rc>
    <rc><c>H </c><c>   1</c></rc>
    <rc><c>H </c><c>   1</c></rc>
    <rc><c>H </c><c>   1</c></rc>
    <rc><c>H </c><c>   1</c></rc>
    <rc><c>H </c><c>   1</c></rc>
    <rc><c>H </c><c>   1</c></rc>
    <rc><c>H </c><c>   1</c></rc>
    <rc><c>H </c><c>   1</c></rc>
    <rc><c>H </c><c>   1</c></rc>
    <rc><c>H </c><c>   1</c></rc>
    <rc><c>H </c><c>   1</c></rc>
    <rc><c>H </c><c>   1</c></rc>
    <rc><c>H </c><c>   1</c></rc>
    <rc><c>H </c><c>   1</c></rc>
    <rc><c>H </c><c>   1</c></rc>
    <rc><c>H </c><c>   1</c></rc>
    <rc><c>H </c><c>   1</c></rc>
    <rc><c>H </c><c>   1</c></rc>
    <rc><c>H </c><c>   1</c></rc>
    <rc><c>H </c><c>   1</c></rc>
    <rc><c>H </c><c>   1</c></rc>
    <rc><c>H </c><c>   1</c></rc>
    <rc><c>H </c><c>   1</c></rc>
    <rc><c>H </c><c>   1</c></rc>
    <rc><c>H </c><c>   1</c></rc>
    <rc><c>H </c><c>   1</c></rc>
    <rc><c>H </c><c>   1</c></rc>
    <rc><c>H </c><c>   1</c></rc>
    <rc><c>H </c><c>   1</c></rc>
    <rc><c>H </c><c>   1</c></rc>
    <rc><c>H </c><c>   1</c></rc>
    <rc><c>H </c><c>   1</c></rc>
    <rc><c>H </c><c>   1</c></rc>
    <rc><c>H </c><c>   1</c></rc>
    <rc><c>H </c><c>   1</c></rc>
    <rc><c>H </c><c>   1</c></rc>
    <rc><c>H </c><c>   1</c></rc>
    <rc><c>H </c><c>   1</c></rc>
    <rc><c>H </c><c>   1</c></rc>
    <rc><c>H </c><c>   1</c></rc>
    <rc><c>H </c><c>   1</c></rc>
    <rc><c>H </c><c>   1</c></rc>
    <rc><c>H </c><c>   1</c></rc>
    <rc><c>H </c><c>   1</c></rc>
    <rc><c>H </c><c>   1</c></rc>
    <rc><c>H </c><c>   1</c></rc>
    <rc><c>H </c><c>   1</c></rc>
    <rc><c>H </c><c>   1</c></rc>
    <rc><c>H </c><c>   1</c></rc>
    <rc><c>H </c><c>   1</c></rc>
    <rc><c>H </c><c>   1</c></rc>
    <rc><c>H </c><c>   1</c></rc>
    <rc><c>H </c><c>   1</c></rc>
    <rc><c>H </c><c>   1</c></rc>
    <rc><c>H </c><c>   1</c></rc>
    <rc><c>H </c><c>   1</c></rc>
    <rc><c>H </c><c>   1</c></rc>
    <rc><c>H </c><c>   1</c></rc>
    <rc><c>H </c><c>   1</c></rc>
    <rc><c>H </c><c>   1</c></rc>
    <rc><c>H </c><c>   1</c></rc>
    <rc><c>H </c><c>   1</c></rc>
    <rc><c>H </c><c>   1</c></rc>
    <rc><c>H </c><c>   1</c></rc>
    <rc><c>H </c><c>   1</c></rc>
    <rc><c>H </c><c>   1</c></rc>
    <rc><c>H </c><c>   1</c></rc>
    <rc><c>H </c><c>   1</c></rc>
    <rc><c>H </c><c>   1</c></rc>
    <rc><c>H </c><c>   1</c></rc>
    <rc><c>H </c><c>   1</c></rc>
    <rc><c>H </c><c>   1</c></rc>
    <rc><c>H </c><c>   1</c></rc>
    <rc><c>H </c><c>   1</c></rc>
    <rc><c>H </c><c>   1</c></rc>
    <rc><c>H </c><c>   1</c></rc>
    <rc><c>H </c><c>   1</c></rc>
    <rc><c>H </c><c>   1</c></rc>
    <rc><c>H </c><c>   1</c></rc>
    <rc><c>H </c><c>   1</c></rc>
    <rc><c>H </c><c>   1</c></rc>
    <rc><c>H </c><c>   1</c></rc>
    <rc><c>H </c><c>   1</c></rc>
    <rc><c>H </c><c>   1</c></rc>
    <rc><c>H </c><c>   1</c></rc>
    <rc><c>H </c><c>   1</c></rc>
    <rc><c>H </c><c>   1</c></rc>
    <rc><c>H </c><c>   1</c></rc>
    <rc><c>H </c><c>   1</c></rc>
    <rc><c>H </c><c>   1</c></rc>
    <rc><c>H </c><c>   1</c></rc>
    <rc><c>H </c><c>   1</c></rc>
    <rc><c>H </c><c>   1</c></rc>
    <rc><c>H </c><c>   1</c></rc>
    <rc><c>H </c><c>   1</c></rc>
    <rc><c>H </c><c>   1</c></rc>
    <rc><c>H </c><c>   1</c></rc>
    <rc><c>H </c><c>   1</c></rc>
    <rc><c>H </c><c>   1</c></rc>
    <rc><c>H </c><c>   1</c></rc>
    <rc><c>H </c><c>   1</c></rc>
    <rc><c>H </c><c>   1</c></rc>
    <rc><c>H </c><c>   1</c></rc>
    <rc><c>H </c><c>   1</c></rc>
    <rc><c>H </c><c>   1</c></rc>
    <rc><c>H </c><c>   1</c></rc>
    <rc><c>H </c><c>   1</c></rc>
    <rc><c>H </c><c>   1</c></rc>
    <rc><c>H </c><c>   1</c></rc>
    <rc><c>H </c><c>   1</c></rc>
    <rc><c>H </c><c>   1</c></rc>
    <rc><c>H </c><c>   1</c></rc>
    <rc><c>H </c><c>   1</c></rc>
    <rc><c>H </c><c>   1</c></rc>
    <rc><c>H </c><c>   1</c></rc>
    <rc><c>H </c><c>   1</c></rc>
    <rc><c>H </c><c>   1</c></rc>
    <rc><c>H </c><c>   1</c></rc>
    <rc><c>H </c><c>   1</c></rc>
    <rc><c>H </c><c>   1</c></rc>
    <rc><c>H </c><c>   1</c></rc>
    <rc><c>H </c><c>   1</c></rc>
    <rc><c>H </c><c>   1</c></rc>
    <rc><c>H </c><c>   1</c></rc>
    <rc><c>H </c><c>   1</c></rc>
    <rc><c>H </c><c>   1</c></rc>
    <rc><c>H </c><c>   1</c></rc>
    <rc><c>H </c><c>   1</c></rc>
    <rc><c>H </c><c>   1</c></rc>
    <rc><c>C </c><c>   2</c></rc>
    <rc><c>C </c><c>   2</c></rc>
    <rc><c>C </c><c>   2</c></rc>
    <rc><c>C </c><c>   2</c></rc>
    <rc><c>C </c><c>   2</c></rc>
    <rc><c>C </c><c>   2</c></rc>
    <rc><c>C </c><c>   2</c></rc>
    <rc><c>C </c><c>   2</c></rc>
    <rc><c>C </c><c>   2</c></rc>
    <rc><c>C </c><c>   2</c></rc>
    <rc><c>C </c><c>   2</c></rc>
    <rc><c>C </c><c>   2</c></rc>
    <rc><c>C </c><c>   2</c></rc>
    <rc><c>C </c><c>   2</c></rc>
    <rc><c>C </c><c>   2</c></rc>
    <rc><c>C </c><c>   2</c></rc>
    <rc><c>C </c><c>   2</c></rc>
    <rc><c>C </c><c>   2</c></rc>
    <rc><c>C </c><c>   2</c></rc>
    <rc><c>C </c><c>   2</c></rc>
    <rc><c>C </c><c>   2</c></rc>
    <rc><c>C </c><c>   2</c></rc>
    <rc><c>C </c><c>   2</c></rc>
    <rc><c>C </c><c>   2</c></rc>
    <rc><c>C </c><c>   2</c></rc>
    <rc><c>C </c><c>   2</c></rc>
    <rc><c>C </c><c>   2</c></rc>
    <rc><c>C </c><c>   2</c></rc>
    <rc><c>C </c><c>   2</c></rc>
    <rc><c>C </c><c>   2</c></rc>
    <rc><c>C </c><c>   2</c></rc>
    <rc><c>C </c><c>   2</c></rc>
    <rc><c>C </c><c>   2</c></rc>
    <rc><c>C </c><c>   2</c></rc>
    <rc><c>C </c><c>   2</c></rc>
    <rc><c>C </c><c>   2</c></rc>
    <rc><c>C </c><c>   2</c></rc>
    <rc><c>C </c><c>   2</c></rc>
    <rc><c>C </c><c>   2</c></rc>
    <rc><c>N </c><c>   3</c></rc>
    <rc><c>N </c><c>   3</c></rc>
    <rc><c>N </c><c>   3</c></rc>
    <rc><c>N </c><c>   3</c></rc>
    <rc><c>N </c><c>   3</c></rc>
    <rc><c>N </c><c>   3</c></rc>
    <rc><c>N </c><c>   3</c></rc>
    <rc><c>N </c><c>   3</c></rc>
    <rc><c>N </c><c>   3</c></rc>
    <rc><c>N </c><c>   3</c></rc>
    <rc><c>N </c><c>   3</c></rc>
    <rc><c>N </c><c>   3</c></rc>
    <rc><c>N </c><c>   3</c></rc>
    <rc><c>N </c><c>   3</c></rc>
    <rc><c>N </c><c>   3</c></rc>
    <rc><c>N </c><c>   3</c></rc>
    <rc><c>N </c><c>   3</c></rc>
    <rc><c>N </c><c>   3</c></rc>
    <rc><c>N </c><c>   3</c></rc>
    <rc><c>N </c><c>   3</c></rc>
    <rc><c>N </c><c>   3</c></rc>
    <rc><c>N </c><c>   3</c></rc>
    <rc><c>N </c><c>   3</c></rc>
    <rc><c>N </c><c>   3</c></rc>
    <rc><c>N </c><c>   3</c></rc>
    <rc><c>N </c><c>   3</c></rc>
    <rc><c>N </c><c>   3</c></rc>
    <rc><c>N </c><c>   3</c></rc>
    <rc><c>N </c><c>   3</c></rc>
    <rc><c>N </c><c>   3</c></rc>
    <rc><c>N </c><c>   3</c></rc>
    <rc><c>N </c><c>   3</c></rc>
    <rc><c>N </c><c>   3</c></rc>
    <rc><c>N </c><c>   3</c></rc>
    <rc><c>N </c><c>   3</c></rc>
    <rc><c>N </c><c>   3</c></rc>
    <rc><c>N </c><c>   3</c></rc>
    <rc><c>N </c><c>   3</c></rc>
    <rc><c>N </c><c>   3</c></rc>
    <rc><c>N </c><c>   3</c></rc>
    <rc><c>N </c><c>   3</c></rc>
    <rc><c>N </c><c>   3</c></rc>
    <rc><c>N </c><c>   3</c></rc>
    <rc><c>N </c><c>   3</c></rc>
    <rc><c>N </c><c>   3</c></rc>
    <rc><c>N </c><c>   3</c></rc>
    <rc><c>N </c><c>   3</c></rc>
    <rc><c>I </c><c>   4</c></rc>
    <rc><c>I </c><c>   4</c></rc>
    <rc><c>I </c><c>   4</c></rc>
    <rc><c>I </c><c>   4</c></rc>
    <rc><c>I </c><c>   4</c></rc>
    <rc><c>I </c><c>   4</c></rc>
    <rc><c>I </c><c>   4</c></rc>
    <rc><c>I </c><c>   4</c></rc>
    <rc><c>I </c><c>   4</c></rc>
    <rc><c>I </c><c>   4</c></rc>
    <rc><c>I </c><c>   4</c></rc>
    <rc><c>I </c><c>   4</c></rc>
    <rc><c>I </c><c>   4</c></rc>
    <rc><c>I </c><c>   4</c></rc>
    <rc><c>I </c><c>   4</c></rc>
    <rc><c>I </c><c>   4</c></rc>
    <rc><c>I </c><c>   4</c></rc>
    <rc><c>I </c><c>   4</c></rc>
    <rc><c>I </c><c>   4</c></rc>
    <rc><c>I </c><c>   4</c></rc>
    <rc><c>I </c><c>   4</c></rc>
    <rc><c>I </c><c>   4</c></rc>
    <rc><c>I </c><c>   4</c></rc>
    <rc><c>I </c><c>   4</c></rc>
    <rc><c>I </c><c>   4</c></rc>
    <rc><c>I </c><c>   4</c></rc>
    <rc><c>I </c><c>   4</c></rc>
    <rc><c>I </c><c>   4</c></rc>
    <rc><c>I </c><c>   4</c></rc>
    <rc><c>I </c><c>   4</c></rc>
    <rc><c>I </c><c>   4</c></rc>
    <rc><c>I </c><c>   4</c></rc>
    <rc><c>I </c><c>   4</c></rc>
    <rc><c>I </c><c>   4</c></rc>
    <rc><c>I </c><c>   4</c></rc>
    <rc><c>I </c><c>   4</c></rc>
    <rc><c>I </c><c>   4</c></rc>
    <rc><c>I </c><c>   4</c></rc>
    <rc><c>I </c><c>   4</c></rc>
    <rc><c>I </c><c>   4</c></rc>
    <rc><c>I </c><c>   4</c></rc>
    <rc><c>I </c><c>   4</c></rc>
    <rc><c>I </c><c>   4</c></rc>
    <rc><c>I </c><c>   4</c></rc>
    <rc><c>I </c><c>   4</c></rc>
    <rc><c>I </c><c>   4</c></rc>
    <rc><c>I </c><c>   4</c></rc>
    <rc><c>I </c><c>   4</c></rc>
    <rc><c>I </c><c>   4</c></rc>
    <rc><c>I </c><c>   4</c></rc>
    <rc><c>I </c><c>   4</c></rc>
    <rc><c>I </c><c>   4</c></rc>
    <rc><c>I </c><c>   4</c></rc>
    <rc><c>I </c><c>   4</c></rc>
    <rc><c>I </c><c>   4</c></rc>
    <rc><c>I </c><c>   4</c></rc>
    <rc><c>I </c><c>   4</c></rc>
    <rc><c>I </c><c>   4</c></rc>
    <rc><c>I </c><c>   4</c></rc>
    <rc><c>I </c><c>   4</c></rc>
    <rc><c>I </c><c>   4</c></rc>
    <rc><c>I </c><c>   4</c></rc>
    <rc><c>I </c><c>   4</c></rc>
    <rc><c>I </c><c>   4</c></rc>
    <rc><c>I </c><c>   4</c></rc>
    <rc><c>I </c><c>   4</c></rc>
    <rc><c>I </c><c>   4</c></rc>
    <rc><c>I </c><c>   4</c></rc>
    <rc><c>I </c><c>   4</c></rc>
    <rc><c>I </c><c>   4</c></rc>
    <rc><c>I </c><c>   4</c></rc>
    <rc><c>I </c><c>   4</c></rc>
    <rc><c>Pb</c><c>   5</c></rc>
    <rc><c>Pb</c><c>   5</c></rc>
    <rc><c>Pb</c><c>   5</c></rc>
    <rc><c>Pb</c><c>   5</c></rc>
    <rc><c>Pb</c><c>   5</c></rc>
    <rc><c>Pb</c><c>   5</c></rc>
    <rc><c>Pb</c><c>   5</c></rc>
    <rc><c>Pb</c><c>   5</c></rc>
    <rc><c>Pb</c><c>   5</c></rc>
    <rc><c>Pb</c><c>   5</c></rc>
    <rc><c>Pb</c><c>   5</c></rc>
    <rc><c>Pb</c><c>   5</c></rc>
    <rc><c>Pb</c><c>   5</c></rc>
    <rc><c>Pb</c><c>   5</c></rc>
    <rc><c>Pb</c><c>   5</c></rc>
    <rc><c>Pb</c><c>   5</c></rc>
    <rc><c>Pb</c><c>   5</c></rc>
    <rc><c>Pb</c><c>   5</c></rc>
    <rc><c>Pb</c><c>   5</c></rc>
    <rc><c>Pb</c><c>   5</c></rc>
    <rc><c>Pb</c><c>   5</c></rc>
    <rc><c>Pb</c><c>   5</c></rc>
    <rc><c>Pb</c><c>   5</c></rc>
    <rc><c>Pb</c><c>   5</c></rc>
   </set>
  </array>
  <array name="atomtypes" >
   <dimension dim="1">type</dimension>
   <field type="int">atomspertype</field>
   <field type="string">element</field>
   <field>mass</field>
   <field>valence</field>
   <field type="string">pseudopotential</field>
   <set>
    <rc><c> 143</c><c>H </c><c>      1.00000000</c><c>      1.00000000</c><c>  PAW_PBE H 15Jun2001                   </c></rc>
    <rc><c>  39</c><c>C </c><c>     12.01100000</c><c>      4.00000000</c><c>  PAW_PBE C 08Apr2002                   </c></rc>
    <rc><c>  47</c><c>N </c><c>     14.00100000</c><c>      5.00000000</c><c>  PAW_PBE N 08Apr2002                   </c></rc>
    <rc><c>  72</c><c>I </c><c>    126.90400000</c><c>      7.00000000</c><c>  PAW_PBE I 08Apr2002                   </c></rc>
    <rc><c>  24</c><c>Pb</c><c>    207.20000000</c><c>      4.00000000</c><c>  PAW_PBE Pb 08Apr2002                  </c></rc>
   </set>
  </array>
 </atominfo>
 <structure name="initialpos" >
  <crystal>
   <varray name="basis" >
    <v>      18.06080055       0.00000000       0.00000000 </v>
    <v>      -0.00491865      18.06279945       0.00000000 </v>
    <v>       0.00000000       0.00000000      62.48749924 </v>
   </varray>
   <i name="volume">  20385.21054034 </i>
   <varray name="rec_basis" >
    <v>       0.05536853       0.00001508      -0.00000000 </v>
    <v>       0.00000000       0.05536240       0.00000000 </v>
    <v>       0.00000000      -0.00000000       0.01600320 </v>
   </varray>
  </crystal>
  <varray name="positions" >
   <v>       0.45050837       0.33376965       0.56505241 </v>
   <v>       0.42740694       0.83104909       0.56871696 </v>
   <v>       0.96048831       0.32742810       0.57661020 </v>
   <v>       0.94599917       0.81465821       0.57334881 </v>
   <v>       0.32806761       0.95353625       0.57342933 </v>
   <v>       0.35349046       0.54803836       0.55993762 </v>
   <v>       0.80610522       0.08744026       0.56716746 </v>
   <v>       0.01113122       0.14238309       0.56005587 </v>
   <v>       0.06971146       0.65848566       0.56919496 </v>
   <v>       0.55544393       0.16458390       0.55665705 </v>
   <v>       0.49587468       0.64550413       0.56057379 </v>
   <v>       0.36329541       0.02429679       0.55753003 </v>
   <v>       0.29876980       0.62751918       0.55424574 </v>
   <v>       0.87665167       0.02429593       0.55948214 </v>
   <v>       0.95642661       0.19073769       0.57826471 </v>
   <v>       0.99172773       0.68999475       0.58305625 </v>
   <v>       0.56515422       0.25409203       0.56709670 </v>
   <v>       0.43134729       0.69509691       0.57526215 </v>
   <v>       0.28016105       0.43609538       0.57209612 </v>
   <v>       0.19441513       0.92815627       0.57145292 </v>
   <v>       0.67893771       0.03377387       0.56977937 </v>
   <v>       0.37129779       0.28991630       0.55433829 </v>
   <v>       0.49598240       0.86924179       0.55237244 </v>
   <v>       0.01810725       0.36863184       0.55747539 </v>
   <v>       0.99536377       0.86446481       0.55431424 </v>
   <v>       0.18556598       0.44045433       0.56717735 </v>
   <v>       0.13906837       0.99111576       0.55774016 </v>
   <v>       0.66993973       0.94074407       0.56206213 </v>
   <v>       0.43391784       0.18137221       0.54700253 </v>
   <v>       0.54798874       0.75220375       0.54494939 </v>
   <v>       0.06144785       0.25185576       0.54532251 </v>
   <v>       0.08339089       0.76797875       0.54993232 </v>
   <v>       0.18826444       0.56110980       0.55559788 </v>
   <v>       0.24235348       0.06229264       0.54680016 </v>
   <v>       0.79373406       0.92678667       0.55510175 </v>
   <v>       0.48546645       0.33908321       0.66295077 </v>
   <v>       0.44940442       0.81156046       0.67353584 </v>
   <v>       0.96599586       0.28268223       0.67694564 </v>
   <v>       0.92818429       0.72506299       0.67313000 </v>
   <v>       0.30890773       0.05513625       0.67049776 </v>
   <v>       0.29827185       0.54873835       0.67514151 </v>
   <v>       0.80115029       0.05641354       0.67453030 </v>
   <v>       0.75660018       0.59826022       0.65833511 </v>
   <v>       0.08515927       0.16210182       0.64478247 </v>
   <v>       0.11394299       0.71827051       0.65031501 </v>
   <v>       0.57454120       0.16371072       0.65041122 </v>
   <v>       0.56309476       0.66256355       0.65078080 </v>
   <v>       0.17868269       0.41310187       0.64829880 </v>
   <v>       0.17486722       0.92095831       0.64955161 </v>
   <v>       0.70265174       0.40412206       0.66129584 </v>
   <v>       0.67366283       0.92339633       0.65003437 </v>
   <v>       0.06281736       0.17963225       0.67163818 </v>
   <v>       0.05798809       0.67465517       0.66913127 </v>
   <v>       0.59570214       0.25278693       0.65914893 </v>
   <v>       0.53113434       0.69487204       0.67557311 </v>
   <v>       0.19957061       0.44430112       0.67398838 </v>
   <v>       0.20755037       0.95388203       0.67389217 </v>
   <v>       0.66677632       0.49293878       0.66486040 </v>
   <v>       0.69725419       0.96004422       0.67507045 </v>
   <v>       0.39856625       0.29950592       0.65795606 </v>
   <v>       0.43571503       0.84476757       0.64774583 </v>
   <v>       0.93711026       0.32602661       0.65333172 </v>
   <v>       0.90349750       0.79598894       0.65570787 </v>
   <v>       0.33227429       0.07765058       0.64422572 </v>
   <v>       0.33054729       0.57621739       0.65008114 </v>
   <v>       0.83613493       0.07646355       0.64918490 </v>
   <v>       0.84380348       0.57242636       0.65003901 </v>
   <v>       0.00945434       0.25314207       0.63148006 </v>
   <v>       0.02126143       0.79968309       0.63951475 </v>
   <v>       0.44788973       0.18503921       0.64865000 </v>
   <v>       0.50621047       0.75359185       0.63149032 </v>
   <v>       0.24973519       0.99534750       0.62930299 </v>
   <v>       0.25942039       0.49257480       0.63159099 </v>
   <v>       0.75969981       0.99276258       0.63193590 </v>
   <v>       0.81837787       0.44614096       0.65057367 </v>
   <v>       0.44874502       0.30128397       0.76888902 </v>
   <v>       0.44874501       0.80128391       0.76888902 </v>
   <v>       0.94874497       0.30128397       0.76888902 </v>
   <v>       0.94874501       0.80128391       0.76888902 </v>
   <v>       0.30127600       0.05129450       0.76887296 </v>
   <v>       0.30127601       0.55129450       0.76887296 </v>
   <v>       0.80127594       0.05129450       0.76887296 </v>
   <v>       0.80127598       0.55129450       0.76887296 </v>
   <v>       0.07877100       0.17118050       0.74344197 </v>
   <v>       0.07877101       0.67118045       0.74344197 </v>
   <v>       0.57877100       0.17118050       0.74344197 </v>
   <v>       0.57877099       0.67118045       0.74344197 </v>
   <v>       0.17119950       0.42117448       0.74342103 </v>
   <v>       0.17119950       0.92117451       0.74342103 </v>
   <v>       0.67119951       0.42117448       0.74342103 </v>
   <v>       0.67119950       0.92117451       0.74342103 </v>
   <v>       0.05125600       0.19871499       0.76888902 </v>
   <v>       0.05125600       0.69871493       0.76888902 </v>
   <v>       0.55125603       0.19871499       0.76888902 </v>
   <v>       0.55125602       0.69871493       0.76888902 </v>
   <v>       0.19872349       0.44870397       0.76887205 </v>
   <v>       0.19872349       0.94870397       0.76887205 </v>
   <v>       0.69872352       0.44870397       0.76887205 </v>
   <v>       0.69872351       0.94870397       0.76887205 </v>
   <v>       0.42123152       0.32881747       0.74344197 </v>
   <v>       0.42123151       0.82881744       0.74344197 </v>
   <v>       0.92123147       0.32881747       0.74344197 </v>
   <v>       0.92123151       0.82881744       0.74344197 </v>
   <v>       0.32880050       0.07882500       0.74342103 </v>
   <v>       0.32880049       0.57882496       0.74342103 </v>
   <v>       0.82880048       0.07882500       0.74342103 </v>
   <v>       0.82880052       0.57882496       0.74342103 </v>
   <v>       0.00000350       0.25000148       0.72582199 </v>
   <v>       0.00000350       0.75000145       0.72582199 </v>
   <v>       0.50000351       0.25000148       0.72582199 </v>
   <v>       0.50000350       0.75000145       0.72582199 </v>
   <v>       0.25000050       0.00000000       0.72580398 </v>
   <v>       0.25000052       0.50000000       0.72580398 </v>
   <v>       0.75000050       0.00000000       0.72580398 </v>
   <v>       0.75000049       0.50000000       0.72580398 </v>
   <v>       0.77630545       0.55709686       0.51960893 </v>
   <v>       0.72028607       0.47821034       0.52502182 </v>
   <v>       0.86881283       0.50107169       0.53927693 </v>
   <v>       0.85818764       0.48107297       0.56683902 </v>
   <v>       0.74442443       0.64188892       0.56021599 </v>
   <v>       0.81021763       0.59567762       0.57647339 </v>
   <v>       0.66612733       0.54823799       0.56922768 </v>
   <v>       0.67933575       0.45472829       0.56051323 </v>
   <v>       0.61727174       0.55751681       0.53693283 </v>
   <v>       0.67282068       0.63772159       0.53519958 </v>
   <v>       0.60633630       0.64581252       0.50380383 </v>
   <v>       0.68691154       0.60213172       0.49453733 </v>
   <v>       0.78512790       0.39086179       0.53038660 </v>
   <v>       0.77927638       0.37095420       0.55805241 </v>
   <v>       0.86576700       0.36802977       0.54489115 </v>
   <v>       0.86307167       0.69541174       0.55379607 </v>
   <v>       0.84315172       0.64723521       0.53004877 </v>
   <v>       0.90754188       0.60975011       0.54901734 </v>
   <v>       0.76740559       0.52888309       0.59750275 </v>
   <v>       0.77230781       0.43421483       0.58930976 </v>
   <v>       0.68976337       0.46956725       0.60018999 </v>
   <v>       0.53628319       0.52997716       0.50396402 </v>
   <v>       0.57573895       0.54745901       0.47851749 </v>
   <v>       0.69868656       0.47934021       0.46952015 </v>
   <v>       0.55778029       0.41457239       0.52154786 </v>
   <v>       0.76375335       0.35892649       0.47149952 </v>
   <v>       0.62264977       0.29380520       0.52398865 </v>
   <v>       0.72738080       0.26587743       0.49919958 </v>
   <v>       0.01884976       0.25497859       0.55771085 </v>
   <v>       0.03593514       0.76123416       0.56079173 </v>
   <v>       0.46454146       0.22761142       0.55419336 </v>
   <v>       0.49887530       0.75659953       0.55510175 </v>
   <v>       0.24041321       0.53362765       0.55950632 </v>
   <v>       0.25028682       0.01267581       0.55653490 </v>
   <v>       0.77387241       0.98103808       0.56023455 </v>
   <v>       0.01115527       0.24390316       0.64877863 </v>
   <v>       0.00937584       0.75945668       0.65217555 </v>
   <v>       0.48505165       0.23019875       0.65352994 </v>
   <v>       0.49966303       0.75354729       0.64904541 </v>
   <v>       0.25496457       0.49453106       0.64900975 </v>
   <v>       0.25325892       0.99900750       0.64673525 </v>
   <v>       0.77518754       0.48571590       0.65519342 </v>
   <v>       0.75510790       0.99911972       0.64930296 </v>
   <v>       0.49998898       0.24999498       0.74327702 </v>
   <v>       0.49998903       0.74999496       0.74327702 </v>
   <v>       0.99998898       0.24999498       0.74327702 </v>
   <v>       0.99998903       0.74999496       0.74327702 </v>
   <v>       0.25000050       0.00000100       0.74325596 </v>
   <v>       0.25000052       0.50000100       0.74325596 </v>
   <v>       0.75000050       0.00000100       0.74325596 </v>
   <v>       0.75000049       0.50000100       0.74325596 </v>
   <v>       0.62453815       0.45597332       0.49544168 </v>
   <v>       0.68273809       0.43902227       0.48143440 </v>
   <v>       0.60346838       0.40208830       0.51058781 </v>
   <v>       0.71904517       0.37074233       0.48262107 </v>
   <v>       0.63998466       0.33397393       0.51191327 </v>
   <v>       0.69826885       0.31850887       0.49790473 </v>
   <v>       0.73182372       0.53531300       0.52991648 </v>
   <v>       0.83093532       0.47763648       0.55118367 </v>
   <v>       0.79253621       0.60502867       0.55989238 </v>
   <v>       0.70640439       0.50284152       0.56796058 </v>
   <v>       0.66319412       0.58324487       0.52811771 </v>
   <v>       0.63786757       0.59386011       0.50479970 </v>
   <v>       0.81290372       0.39800611       0.54582310 </v>
   <v>       0.85528303       0.63971830       0.54716291 </v>
   <v>       0.73679024       0.48306144       0.58987573 </v>
   <v>       0.58899690       0.53185349       0.49516548 </v>
   <v>       0.99489107       0.19280747       0.56613124 </v>
   <v>       0.03243242       0.69976032       0.57193794 </v>
   <v>       0.53481844       0.21655152       0.55857663 </v>
   <v>       0.47210470       0.69575989       0.56370686 </v>
   <v>       0.42753742       0.28971942       0.55742723 </v>
   <v>       0.47022232       0.82281735       0.55812677 </v>
   <v>       0.99521222       0.32079264       0.56350571 </v>
   <v>       0.98640019       0.81454279       0.56170439 </v>
   <v>       0.23662925       0.46331336       0.56503678 </v>
   <v>       0.19147695       0.97423994       0.56186604 </v>
   <v>       0.70218242       0.98707723       0.56344430 </v>
   <v>       0.31795220       0.99534834       0.56251443 </v>
   <v>       0.30175325       0.57215751       0.55791780 </v>
   <v>       0.82236373       0.03384407       0.56342214 </v>
   <v>       0.05488038       0.19200640       0.65563993 </v>
   <v>       0.06205770       0.71305457       0.65710793 </v>
   <v>       0.55599527       0.21506922       0.65466958 </v>
   <v>       0.53303518       0.69998719       0.65941338 </v>
   <v>       0.20824494       0.44829088       0.65805758 </v>
   <v>       0.20926642       0.95587541       0.65769557 </v>
   <v>       0.70970202       0.46017527       0.66018631 </v>
   <v>       0.70594848       0.95840696       0.65903172 </v>
   <v>       0.45516975       0.29476308       0.65827235 </v>
   <v>       0.45983231       0.80665085       0.65752256 </v>
   <v>       0.96877456       0.28650473       0.66063274 </v>
   <v>       0.94370795       0.76142899       0.66125329 </v>
   <v>       0.30150863       0.04658924       0.65463747 </v>
   <v>       0.29707466       0.54215670       0.65900052 </v>
   <v>       0.80000069       0.04725730       0.65856196 </v>
   <v>       0.79319008       0.55656804       0.65514843 </v>
   <v>       0.04586250       0.20411950       0.75272599 </v>
   <v>       0.04586250       0.70411946       0.75272599 </v>
   <v>       0.54586251       0.20411950       0.75272599 </v>
   <v>       0.54586250       0.70411946       0.75272599 </v>
   <v>       0.20411900       0.45410100       0.75270499 </v>
   <v>       0.20411899       0.95410095       0.75270499 </v>
   <v>       0.70411898       0.45410100       0.75270499 </v>
   <v>       0.70411896       0.95410095       0.75270499 </v>
   <v>       0.45414002       0.29588849       0.75272697 </v>
   <v>       0.45414001       0.79588852       0.75272697 </v>
   <v>       0.95414002       0.29588849       0.75272697 </v>
[...]
   <v>       0.55544393       0.16458390       0.55665705 </v>
   <v>       0.49587468       0.64550413       0.56057379 </v>
   <v>       0.36329541       0.02429679       0.55753003 </v>
   <v>       0.29876980       0.62751918       0.55424574 </v>
   <v>       0.87665167       0.02429593       0.55948214 </v>
   <v>       0.95642661       0.19073769       0.57826471 </v>
   <v>       0.99172773       0.68999475       0.58305625 </v>
   <v>       0.56515422       0.25409203       0.56709670 </v>
   <v>       0.43134729       0.69509691       0.57526215 </v>
   <v>       0.28016105       0.43609538       0.57209612 </v>
   <v>       0.19441513       0.92815627       0.57145292 </v>
   <v>       0.67893771       0.03377387       0.56977937 </v>
   <v>       0.37129779       0.28991630       0.55433829 </v>
   <v>       0.49598240       0.86924179       0.55237244 </v>
   <v>       0.01810725       0.36863184       0.55747539 </v>
   <v>       0.99536377       0.86446481       0.55431424 </v>
   <v>       0.18556598       0.44045433       0.56717735 </v>
   <v>       0.13906837       0.99111576       0.55774016 </v>
   <v>       0.66993973       0.94074407       0.56206213 </v>
   <v>       0.43391784       0.18137221       0.54700253 </v>
   <v>       0.54798874       0.75220375       0.54494939 </v>
   <v>       0.06144785       0.25185576       0.54532251 </v>
   <v>       0.08339089       0.76797875       0.54993232 </v>
   <v>       0.18826444       0.56110980       0.55559788 </v>
   <v>       0.24235348       0.06229264       0.54680016 </v>
   <v>       0.79373406       0.92678667       0.55510175 </v>
   <v>       0.48546645       0.33908321       0.66295077 </v>
   <v>       0.44940442       0.81156046       0.67353584 </v>
   <v>       0.96599586       0.28268223       0.67694564 </v>
   <v>       0.92818429       0.72506299       0.67313000 </v>
   <v>       0.30890773       0.05513625       0.67049776 </v>
   <v>       0.29827185       0.54873835       0.67514151 </v>
   <v>       0.80115029       0.05641354       0.67453030 </v>
   <v>       0.75660018       0.59826022       0.65833511 </v>
   <v>       0.08515927       0.16210182       0.64478247 </v>
   <v>       0.11394299       0.71827051       0.65031501 </v>
   <v>       0.57454120       0.16371072       0.65041122 </v>
   <v>       0.56309476       0.66256355       0.65078080 </v>
   <v>       0.17868269       0.41310187       0.64829880 </v>
   <v>       0.17486722       0.92095831       0.64955161 </v>
   <v>       0.70265174       0.40412206       0.66129584 </v>
   <v>       0.67366283       0.92339633       0.65003437 </v>
   <v>       0.06281736       0.17963225       0.67163818 </v>
   <v>       0.05798809       0.67465517       0.66913127 </v>
   <v>       0.59570214       0.25278693       0.65914893 </v>
   <v>       0.53113434       0.69487204       0.67557311 </v>
   <v>       0.19957061       0.44430112       0.67398838 </v>
   <v>       0.20755037       0.95388203       0.67389217 </v>
   <v>       0.66677632       0.49293878       0.66486040 </v>
   <v>       0.69725419       0.96004422       0.67507045 </v>
   <v>       0.39856625       0.29950592       0.65795606 </v>
   <v>       0.43571503       0.84476757       0.64774583 </v>
   <v>       0.93711026       0.32602661       0.65333172 </v>
   <v>       0.90349750       0.79598894       0.65570787 </v>
   <v>       0.33227429       0.07765058       0.64422572 </v>
   <v>       0.33054729       0.57621739       0.65008114 </v>
   <v>       0.83613493       0.07646355       0.64918490 </v>
   <v>       0.84380348       0.57242636       0.65003901 </v>
   <v>       0.00945434       0.25314207       0.63148006 </v>
   <v>       0.02126143       0.79968309       0.63951475 </v>
   <v>       0.44788973       0.18503921       0.64865000 </v>
   <v>       0.50621047       0.75359185       0.63149032 </v>
   <v>       0.24973519       0.99534750       0.62930299 </v>
   <v>       0.25942039       0.49257480       0.63159099 </v>
   <v>       0.75969981       0.99276258       0.63193590 </v>
   <v>       0.81837787       0.44614096       0.65057367 </v>
   <v>       0.44874502       0.30128397       0.76888902 </v>
   <v>       0.44874501       0.80128391       0.76888902 </v>
   <v>       0.94874497       0.30128397       0.76888902 </v>
   <v>       0.94874501       0.80128391       0.76888902 </v>
   <v>       0.30127600       0.05129450       0.76887296 </v>
   <v>       0.30127601       0.55129450       0.76887296 </v>
   <v>       0.80127594       0.05129450       0.76887296 </v>
   <v>       0.80127598       0.55129450       0.76887296 </v>
   <v>       0.07877100       0.17118050       0.74344197 </v>
   <v>       0.07877101       0.67118045       0.74344197 </v>
   <v>       0.57877100       0.17118050       0.74344197 </v>
   <v>       0.57877099       0.67118045       0.74344197 </v>
   <v>       0.17119950       0.42117448       0.74342103 </v>
   <v>       0.17119950       0.92117451       0.74342103 </v>
   <v>       0.67119951       0.42117448       0.74342103 </v>
   <v>       0.67119950       0.92117451       0.74342103 </v>
   <v>       0.05125600       0.19871499       0.76888902 </v>
   <v>       0.05125600       0.69871493       0.76888902 </v>
   <v>       0.55125603       0.19871499       0.76888902 </v>
   <v>       0.55125602       0.69871493       0.76888902 </v>
   <v>       0.19872349       0.44870397       0.76887205 </v>
   <v>       0.19872349       0.94870397       0.76887205 </v>
   <v>       0.69872352       0.44870397       0.76887205 </v>
   <v>       0.69872351       0.94870397       0.76887205 </v>
   <v>       0.42123152       0.32881747       0.74344197 </v>
   <v>       0.42123151       0.82881744       0.74344197 </v>
   <v>       0.92123147       0.32881747       0.74344197 </v>
   <v>       0.92123151       0.82881744       0.74344197 </v>
   <v>       0.32880050       0.07882500       0.74342103 </v>
   <v>       0.32880049       0.57882496       0.74342103 </v>
   <v>       0.82880048       0.07882500       0.74342103 </v>
   <v>       0.82880052       0.57882496       0.74342103 </v>
   <v>       0.00000350       0.25000148       0.72582199 </v>
   <v>       0.00000350       0.75000145       0.72582199 </v>
   <v>       0.50000351       0.25000148       0.72582199 </v>
   <v>       0.50000350       0.75000145       0.72582199 </v>
   <v>       0.25000050       0.00000000       0.72580398 </v>
   <v>       0.25000052       0.50000000       0.72580398 </v>
   <v>       0.75000050       0.00000000       0.72580398 </v>
   <v>       0.75000049       0.50000000       0.72580398 </v>
   <v>       0.77630545       0.55709686       0.51960893 </v>
   <v>       0.72028607       0.47821034       0.52502182 </v>
   <v>       0.86881283       0.50107169       0.53927693 </v>
   <v>       0.85818764       0.48107297       0.56683902 </v>
   <v>       0.74442443       0.64188892       0.56021599 </v>
   <v>       0.81021763       0.59567762       0.57647339 </v>
   <v>       0.66612733       0.54823799       0.56922768 </v>
   <v>       0.67933575       0.45472829       0.56051323 </v>
   <v>       0.61727174       0.55751681       0.53693283 </v>
   <v>       0.67282068       0.63772159       0.53519958 </v>
   <v>       0.60633630       0.64581252       0.50380383 </v>
   <v>       0.68691154       0.60213172       0.49453733 </v>
   <v>       0.78512790       0.39086179       0.53038660 </v>
   <v>       0.77927638       0.37095420       0.55805241 </v>
   <v>       0.86576700       0.36802977       0.54489115 </v>
   <v>       0.86307167       0.69541174       0.55379607 </v>
   <v>       0.84315172       0.64723521       0.53004877 </v>
   <v>       0.90754188       0.60975011       0.54901734 </v>
   <v>       0.76740559       0.52888309       0.59750275 </v>
   <v>       0.77230781       0.43421483       0.58930976 </v>
   <v>       0.68976337       0.46956725       0.60018999 </v>
   <v>       0.53628319       0.52997716       0.50396402 </v>
   <v>       0.57573895       0.54745901       0.47851749 </v>
   <v>       0.69868656       0.47934021       0.46952015 </v>
   <v>       0.55778029       0.41457239       0.52154786 </v>
   <v>       0.76375335       0.35892649       0.47149952 </v>
   <v>       0.62264977       0.29380520       0.52398865 </v>
   <v>       0.72738080       0.26587743       0.49919958 </v>
   <v>       0.01884976       0.25497859       0.55771085 </v>
   <v>       0.03593514       0.76123416       0.56079173 </v>
   <v>       0.46454146       0.22761142       0.55419336 </v>
   <v>       0.49887530       0.75659953       0.55510175 </v>
   <v>       0.24041321       0.53362765       0.55950632 </v>
   <v>       0.25028682       0.01267581       0.55653490 </v>
   <v>       0.77387241       0.98103808       0.56023455 </v>
   <v>       0.01115527       0.24390316       0.64877863 </v>
   <v>       0.00937584       0.75945668       0.65217555 </v>
   <v>       0.48505165       0.23019875       0.65352994 </v>
   <v>       0.49966303       0.75354729       0.64904541 </v>
   <v>       0.25496457       0.49453106       0.64900975 </v>
   <v>       0.25325892       0.99900750       0.64673525 </v>
   <v>       0.77518754       0.48571590       0.65519342 </v>
   <v>       0.75510790       0.99911972       0.64930296 </v>
   <v>       0.49998898       0.24999498       0.74327702 </v>
   <v>       0.49998903       0.74999496       0.74327702 </v>
   <v>       0.99998898       0.24999498       0.74327702 </v>
   <v>       0.99998903       0.74999496       0.74327702 </v>
   <v>       0.25000050       0.00000100       0.74325596 </v>
   <v>       0.25000052       0.50000100       0.74325596 </v>
   <v>       0.75000050       0.00000100       0.74325596 </v>
   <v>       0.75000049       0.50000100       0.74325596 </v>
   <v>       0.62453815       0.45597332       0.49544168 </v>
   <v>       0.68273809       0.43902227       0.48143440 </v>
   <v>       0.60346838       0.40208830       0.51058781 </v>
   <v>       0.71904517       0.37074233       0.48262107 </v>
   <v>       0.63998466       0.33397393       0.51191327 </v>
   <v>       0.69826885       0.31850887       0.49790473 </v>
   <v>       0.73182372       0.53531300       0.52991648 </v>
   <v>       0.83093532       0.47763648       0.55118367 </v>
   <v>       0.79253621       0.60502867       0.55989238 </v>
   <v>       0.70640439       0.50284152       0.56796058 </v>
   <v>       0.66319412       0.58324487       0.52811771 </v>
   <v>       0.63786757       0.59386011       0.50479970 </v>
   <v>       0.81290372       0.39800611       0.54582310 </v>
   <v>       0.85528303       0.63971830       0.54716291 </v>
   <v>       0.73679024       0.48306144       0.58987573 </v>
   <v>       0.58899690       0.53185349       0.49516548 </v>
   <v>       0.99489107       0.19280747       0.56613124 </v>
   <v>       0.03243242       0.69976032       0.57193794 </v>
   <v>       0.53481844       0.21655152       0.55857663 </v>
   <v>       0.47210470       0.69575989       0.56370686 </v>
   <v>       0.42753742       0.28971942       0.55742723 </v>
   <v>       0.47022232       0.82281735       0.55812677 </v>
   <v>       0.99521222       0.32079264       0.56350571 </v>
   <v>       0.98640019       0.81454279       0.56170439 </v>
   <v>       0.23662925       0.46331336       0.56503678 </v>
   <v>       0.19147695       0.97423994       0.56186604 </v>
   <v>       0.70218242       0.98707723       0.56344430 </v>
   <v>       0.31795220       0.99534834       0.56251443 </v>
   <v>       0.30175325       0.57215751       0.55791780 </v>
   <v>       0.82236373       0.03384407       0.56342214 </v>
   <v>       0.05488038       0.19200640       0.65563993 </v>
   <v>       0.06205770       0.71305457       0.65710793 </v>
   <v>       0.55599527       0.21506922       0.65466958 </v>
   <v>       0.53303518       0.69998719       0.65941338 </v>
   <v>       0.20824494       0.44829088       0.65805758 </v>
   <v>       0.20926642       0.95587541       0.65769557 </v>
   <v>       0.70970202       0.46017527       0.66018631 </v>
   <v>       0.70594848       0.95840696       0.65903172 </v>
   <v>       0.45516975       0.29476308       0.65827235 </v>
   <v>       0.45983231       0.80665085       0.65752256 </v>
   <v>       0.96877456       0.28650473       0.66063274 </v>
   <v>       0.94370795       0.76142899       0.66125329 </v>
   <v>       0.30150863       0.04658924       0.65463747 </v>
   <v>       0.29707466       0.54215670       0.65900052 </v>
   <v>       0.80000069       0.04725730       0.65856196 </v>
   <v>       0.79319008       0.55656804       0.65514843 </v>
   <v>       0.04586250       0.20411950       0.75272599 </v>
   <v>       0.04586250       0.70411946       0.75272599 </v>
   <v>       0.54586251       0.20411950       0.75272599 </v>
   <v>       0.54586250       0.70411946       0.75272599 </v>
   <v>       0.20411900       0.45410100       0.75270499 </v>
   <v>       0.20411899       0.95410095       0.75270499 </v>
   <v>       0.70411898       0.45410100       0.75270499 </v>
   <v>       0.70411896       0.95410095       0.75270499 </v>
   <v>       0.45414002       0.29588849       0.75272697 </v>
   <v>       0.45414001       0.79588852       0.75272697 </v>
   <v>       0.95414002       0.29588849       0.75272697 </v>
   <v>       0.95414006       0.79588852       0.75272697 </v>
   <v>       0.29588249       0.04590050       0.75270499 </v>
   <v>       0.29588248       0.54590053       0.75270499 </v>
   <v>       0.79588244       0.04590050       0.75270499 </v>
   <v>       0.79588248       0.54590053       0.75270499 </v>
   <v>       0.76512755       0.53044817       0.55215725 </v>
   <v>       0.51092036       0.01707073       0.55148952 </v>
   <v>       0.47909298       0.49719005       0.55499070 </v>
   <v>       0.00714990       0.00487508       0.54870368 </v>
   <v>       0.03891344       0.50541715       0.55336575 </v>
   <v>       0.23533620       0.24249940       0.55212502 </v>
   <v>       0.25653425       0.76528016       0.55342514 </v>
   <v>       0.73669210       0.20218247       0.55491281 </v>
   <v>       0.70226554       0.79232150       0.55406138 </v>
   <v>       0.00010903       0.98354924       0.65394653 </v>
   <v>       0.99570456       0.50403491       0.65503385 </v>
   <v>       0.50054388       0.01243448       0.65409292 </v>
   <v>       0.51183568       0.48987483       0.65539781 </v>
   <v>       0.26102582       0.24631752       0.65415885 </v>
   <v>       0.26095610       0.75343124       0.65454748 </v>
   <v>       0.75082619       0.26270511       0.65446794 </v>
   <v>       0.74360814       0.75145429       0.65468881 </v>
   <v>       0.13568543       0.11167373       0.60726740 </v>
   <v>       0.15199938       0.60323662       0.60855775 </v>
   <v>       0.64854998       0.10481762       0.61043179 </v>
   <v>       0.61626670       0.62915004       0.61008363 </v>
   <v>       0.36065908       0.38556935       0.60537847 </v>
   <v>       0.37353812       0.88062978       0.60649417 </v>
   <v>       0.89095908       0.36486776       0.61012631 </v>
   <v>       0.87170043       0.87602482       0.60519252 </v>
   <v>       0.12451938       0.36843829       0.60919771 </v>
   <v>       0.12251306       0.86528238       0.60744108 </v>
   <v>       0.59119200       0.33681138       0.60151527 </v>
   <v>       0.61763512       0.87157323       0.61231363 </v>
   <v>       0.38512958       0.13366751       0.60397896 </v>
   <v>       0.38608431       0.62931525       0.61098292 </v>
   <v>       0.88653275       0.13249289       0.61123029 </v>
   <v>       0.89795716       0.64260865       0.61114860 </v>
   <v>       0.00000000       0.00000000       0.75492797 </v>
   <v>       0.00000000       0.50000000       0.75492797 </v>
   <v>       0.50000000       0.00000000       0.75492797 </v>
   <v>       0.49999999       0.50000000       0.75492797 </v>
   <v>       0.25000050       0.25000000       0.75493902 </v>
   <v>       0.25000051       0.74999997       0.75493902 </v>
   <v>       0.75000047       0.25000000       0.75493902 </v>
   <v>       0.75000046       0.74999997       0.75493902 </v>
   <v>       0.13579050       0.11421000       0.70478299 </v>
   <v>       0.13579050       0.61420998       0.70478299 </v>
   <v>       0.63579045       0.11421000       0.70478299 </v>
   <v>       0.63579049       0.61420998       0.70478299 </v>
   <v>       0.36420952       0.38578999       0.70478299 </v>
   <v>       0.36420950       0.88578996       0.70478299 </v>
   <v>       0.86420954       0.38578999       0.70478299 </v>
   <v>       0.86420953       0.88578996       0.70478299 </v>
   <v>       0.11421799       0.36421899       0.70478098 </v>
   <v>       0.11421799       0.86421899       0.70478098 </v>
   <v>       0.61421800       0.36421899       0.70478098 </v>
   <v>       0.61421799       0.86421899       0.70478098 </v>
   <v>       0.38578201       0.13578149       0.70478202 </v>
   <v>       0.38578200       0.63578149       0.70478202 </v>
   <v>       0.88578199       0.13578149       0.70478202 </v>
   <v>       0.88578203       0.63578149       0.70478202 </v>
   <v>       0.13466700       0.11533200       0.80125603 </v>
   <v>       0.13466699       0.61533199       0.80125603 </v>
   <v>       0.63466699       0.11533200       0.80125603 </v>
   <v>       0.63466698       0.61533199       0.80125603 </v>
   <v>       0.36533300       0.38466799       0.80125603 </v>
   <v>       0.36533299       0.88466796       0.80125603 </v>
   <v>       0.86533295       0.38466799       0.80125603 </v>
   <v>       0.86533294       0.88466796       0.80125603 </v>
   <v>       0.11532850       0.36533700       0.80126500 </v>
   <v>       0.11532850       0.86533698       0.80126500 </v>
   <v>       0.61532850       0.36533700       0.80126500 </v>
   <v>       0.61532849       0.86533698       0.80126500 </v>
   <v>       0.38467151       0.13466300       0.80126500 </v>
   <v>       0.38467150       0.63466297       0.80126500 </v>
   <v>       0.88467149       0.13466300       0.80126500 </v>
   <v>       0.88467153       0.63466297       0.80126500 </v>
   <v>       0.00002324       0.99756310       0.60501078 </v>
   <v>       0.00682664       0.50208139       0.60509338 </v>
   <v>       0.50316781       0.00762671       0.60323809 </v>
   <v>       0.49754870       0.49229169       0.60483380 </v>
   <v>       0.24731662       0.24619637       0.60239869 </v>
   <v>       0.25181184       0.74479824       0.60372323 </v>
   <v>       0.74264051       0.24655408       0.60290013 </v>
   <v>       0.73846754       0.75508809       0.60332252 </v>
   <v>       0.00000050       0.00000050       0.70482896 </v>
   <v>       0.00000050       0.50000048       0.70482896 </v>
   <v>       0.50000048       0.00000050       0.70482896 </v>
   <v>       0.50000046       0.50000048       0.70482896 </v>
   <v>       0.24999999       0.24999947       0.70482499 </v>
   <v>       0.25000001       0.74999950       0.70482499 </v>
   <v>       0.74999999       0.24999947       0.70482499 </v>
   <v>       0.74999998       0.74999950       0.70482499 </v>
   <v>       0.00000000       0.00000000       0.80731797 </v>
   <v>       0.00000000       0.50000000       0.80731797 </v>
   <v>       0.50000000       0.00000000       0.80731797 </v>
   <v>       0.49999999       0.50000000       0.80731797 </v>
   <v>       0.24999999       0.25000000       0.80731797 </v>
   <v>       0.25000001       0.74999997       0.80731797 </v>
   <v>       0.74999999       0.25000000       0.80731797 </v>
   <v>       0.74999998       0.74999997       0.80731797 </v>
  </varray>
 </structure>
</modeling>
