 vasp.6.2.1 16May21 (build Nov 15 2021 14:57:28) complex                         
 executed on             LinuxPGI date 2023.07.30  18:18:55
 running on    4 total cores
 distrk:  each k-point on    4 cores,    1 groups
 distr:  one band on NCORE=   1 cores,    4 groups


--------------------------------------------------------------------------------------------------------


 INCAR:
   SYSTEM = PSC
   ISTART = 1
   ICHARG = 1
   PREC = Normal
   ENCUT = 500
   GGA_COMPAT = F
   NELM = 600
   ISYM = 0
   LREAL = Auto
   ISMEAR = 0
   SIGMA = 0.05
   AMIN = 0.01
   BMIX = 0.01
   LVTOT = T
   LWAVE = F
   LDIPOL = T
   IDIPOL = 3
   LVDW = T
   IVDW = 12

 POTCAR:    PAW_PBE H 15Jun2001                   
 POTCAR:    PAW_PBE C 08Apr2002                   
 POTCAR:    PAW_PBE N 08Apr2002                   
 POTCAR:    PAW_PBE I 08Apr2002                   
 POTCAR:    PAW_PBE Pb 08Apr2002                  
 WARNING: For LVTOT=.TRUE., VASP.5.x writes the TOTAL local potential to the
     file LOCPOT. If you want only the Hartree contributions, use LVHAR=.TRUE.
     instead. 

 POTCAR:    PAW_PBE H 15Jun2001                   
   SHA256 =  030f79b5d3ab3cf0e668861823c8fb652ff669f3e15e46930bd03bfd63a607b6 H/POTCAR              
   COPYR  = (c) Copyright 15Jun2001 Georg Kresse                                                    
   COPYR  = This file is part of the software VASP. Any use, copying, and all other rights are regul
   COPYR  = If you do not have a valid VASP license, you may not use, copy or distribute this file. 
   VRHFIN =H: ultrasoft test                                                                        
   LEXCH  = PE                                                                                      
   EATOM  =    12.4884 eV,    0.9179 Ry                                                             
                                                                                                    
   TITEL  = PAW_PBE H 15Jun2001                                                                     
   LULTRA =        F    use ultrasoft PP ?                                                          
   IUNSCR =        0    unscreen: 0-lin 1-nonlin 2-no                                               
   RPACOR =    0.000    partial core radius                                                         
   POMASS =    1.000; ZVAL   =    1.000    mass and valenz                                          
   RCORE  =    1.100    outmost cutoff radius                                                       
   RWIGS  =    0.700; RWIGS  =    0.370    wigner-seitz radius (au A)                               
   ENMAX  =  250.000; ENMIN  =  200.000 eV                                                          
   RCLOC  =    0.701    cutoff for local pot                                                        
   LCOR   =        T    correct aug charges                                                         
   LPAW   =        T    paw PP                                                                      
   EAUG   =  400.000                                                                                
   RMAX   =    1.123    core radius for proj-oper                                                   
   RAUG   =    1.200    factor for augmentation sphere                                              
   RDEP   =    1.112    radius for radial grids                                                     
   RDEPT  =    0.926    core radius for aug-charge                                                  
                                                                                                    
   Atomic configuration                                                                             
    2 entries                                                                                       
     n  l   j            E        occ.                                                              
     1  0  0.50        -6.4927   1.0000                                                             
     2  1  0.50        -3.4015   0.0000                                                             
   Description                                                                                      
     l       E           TYP  RCUT    TYP  RCUT                                                     
     0     -6.4927494     23  1.100                                                                 
     0      6.8029130     23  1.100                                                                 
     1     -4.0817478     23  1.100                                                                 
  local pseudopotential read in
  atomic valenz-charges read in
  non local Contribution for L=            0  read in
    real space projection operators read in
  non local Contribution for L=            0  read in
    real space projection operators read in
  non local Contribution for L=            1  read in
    real space projection operators read in
    PAW grid and wavefunctions read in
 
   number of l-projection  operators is LMAX  =            3
   number of lm-projection operators is LMMAX =            5
 
 POTCAR:    PAW_PBE C 08Apr2002                   
   SHA256 =  253f7b50bb8d59471dbedb8285d89021f4a42ed1a2c5d38a03a736e69125dd95 C/POTCAR              
   COPYR  = (c) Copyright 08Apr2002 Georg Kresse                                                    
   COPYR  = This file is part of the software VASP. Any use, copying, and all other rights are regul
   COPYR  = If you do not have a valid VASP license, you may not use, copy or distribute this file. 
   VRHFIN =C: s2p2                                                                                  
   LEXCH  = PE                                                                                      
   EATOM  =   147.1560 eV,   10.8157 Ry                                                             
                                                                                                    
   TITEL  = PAW_PBE C 08Apr2002                                                                     
   LULTRA =        F    use ultrasoft PP ?                                                          
   IUNSCR =        1    unscreen: 0-lin 1-nonlin 2-no                                               
   RPACOR =    1.200    partial core radius                                                         
   POMASS =   12.011; ZVAL   =    4.000    mass and valenz                                          
   RCORE  =    1.500    outmost cutoff radius                                                       
   RWIGS  =    1.630; RWIGS  =    0.863    wigner-seitz radius (au A)                               
   ENMAX  =  400.000; ENMIN  =  300.000 eV                                                          
   ICORE  =        2    local potential                                                             
   LCOR   =        T    correct aug charges                                                         
   LPAW   =        T    paw PP                                                                      
   EAUG   =  644.873                                                                                
   DEXC   =    0.000                                                                                
   RMAX   =    1.529    core radius for proj-oper                                                   
   RAUG   =    1.300    factor for augmentation sphere                                              
   RDEP   =    1.501    radius for radial grids                                                     
   RDEPT  =    1.300    core radius for aug-charge                                                  
                                                                                                    
   Atomic configuration                                                                             
    4 entries                                                                                       
     n  l   j            E        occ.                                                              
     1  0  0.50      -273.3789   2.0000                                                             
     2  0  0.50       -13.7508   2.0000                                                             
     2  1  0.50        -5.2854   2.0000                                                             
     3  2  1.50        -5.4423   0.0000                                                             
   Description                                                                                      
     l       E           TYP  RCUT    TYP  RCUT                                                     
     0    -13.7508458     23  1.200                                                                 
     0     -8.2022199     23  1.200                                                                 
     1     -5.2854383     23  1.500                                                                 
     1     34.0145650     23  1.500                                                                 
     2     -5.4423304      7  1.500                                                                 
  local pseudopotential read in
  partial core-charges read in
  partial kinetic energy density read in
  atomic valenz-charges read in
  non local Contribution for L=            0  read in
    real space projection operators read in
  non local Contribution for L=            0  read in
    real space projection operators read in
  non local Contribution for L=            1  read in
    real space projection operators read in
  non local Contribution for L=            1  read in
    real space projection operators read in
    PAW grid and wavefunctions read in
 
   number of l-projection  operators is LMAX  =            4
   number of lm-projection operators is LMMAX =            8
 
 POTCAR:    PAW_PBE N 08Apr2002                   
   SHA256 =  e053789ff3a61a86a1b75d8a110fcc91f86041011e7b0817c7c99e4e8a6349d7 N/POTCAR              
   COPYR  = (c) Copyright 08Apr2002 Georg Kresse                                                    
   COPYR  = This file is part of the software VASP. Any use, copying, and all other rights are regul
   COPYR  = If you do not have a valid VASP license, you may not use, copy or distribute this file. 
   VRHFIN =N: s2p3                                                                                  
   LEXCH  = PE                                                                                      
   EATOM  =   264.5486 eV,   19.4438 Ry                                                             
                                                                                                    
   TITEL  = PAW_PBE N 08Apr2002                                                                     
   LULTRA =        F    use ultrasoft PP ?                                                          
   IUNSCR =        1    unscreen: 0-lin 1-nonlin 2-no                                               
   RPACOR =    1.200    partial core radius                                                         
   POMASS =   14.001; ZVAL   =    5.000    mass and valenz                                          
   RCORE  =    1.500    outmost cutoff radius                                                       
   RWIGS  =    1.400; RWIGS  =    0.741    wigner-seitz radius (au A)                               
   ENMAX  =  400.000; ENMIN  =  300.000 eV                                                          
   ICORE  =        2    local potential                                                             
   LCOR   =        T    correct aug charges                                                         
   LPAW   =        T    paw PP                                                                      
   EAUG   =  627.112                                                                                
   DEXC   =    0.000                                                                                
   RMAX   =    1.529    core radius for proj-oper                                                   
   RAUG   =    1.300    factor for augmentation sphere                                              
   RDEP   =    1.514    radius for radial grids                                                     
   RDEPT  =    1.338    core radius for aug-charge                                                  
                                                                                                    
   Atomic configuration                                                                             
    4 entries                                                                                       
     n  l   j            E        occ.                                                              
     1  0  0.50      -384.7179   2.0000                                                             
     2  0  0.50       -18.5828   2.0000                                                             
     2  1  0.50        -7.0898   3.0000                                                             
     3  2  1.50        -6.8029   0.0000                                                             
   Description                                                                                      
     l       E           TYP  RCUT    TYP  RCUT                                                     
     0    -18.5828119     23  1.200                                                                 
     0    -13.5018863     23  1.200                                                                 
     1     -7.0897853     23  1.500                                                                 
     1      9.5240782     23  1.500                                                                 
     2     -6.8029130      7  1.500                                                                 
  local pseudopotential read in
  partial core-charges read in
  partial kinetic energy density read in
  atomic valenz-charges read in
  non local Contribution for L=            0  read in
    real space projection operators read in
  non local Contribution for L=            0  read in
    real space projection operators read in
  non local Contribution for L=            1  read in
    real space projection operators read in
  non local Contribution for L=            1  read in
    real space projection operators read in
    PAW grid and wavefunctions read in
 
   number of l-projection  operators is LMAX  =            4
   number of lm-projection operators is LMMAX =            8
 
 POTCAR:    PAW_PBE I 08Apr2002                   
   SHA256 =  e40f3f59b681c1fc3e3091736183c4589116986673d2b852a5012aec72758799 I/POTCAR              
   COPYR  = (c) Copyright 08Apr2002 Georg Kresse                                                    
   COPYR  = This file is part of the software VASP. Any use, copying, and all other rights are regul
   COPYR  = If you do not have a valid VASP license, you may not use, copy or distribute this file. 
   VRHFIN =I : s2p5                                                                                 
   LEXCH  = PE                                                                                      
   EATOM  =   315.8678 eV,   23.2156 Ry                                                             
                                                                                                    
   TITEL  = PAW_PBE I 08Apr2002                                                                     
   LULTRA =        F    use ultrasoft PP ?                                                          
   IUNSCR =        1    unscreen: 0-lin 1-nonlin 2-no                                               
   RPACOR =    2.200    partial core radius                                                         
   POMASS =  126.904; ZVAL   =    7.000    mass and valenz                                          
   RCORE  =    2.300    outmost cutoff radius                                                       
   RWIGS  =    2.810; RWIGS  =    1.487    wigner-seitz radius (au A)                               
   ENMAX  =  175.647; ENMIN  =  131.735 eV                                                          
   ICORE  =        3    local potential                                                             
   LCOR   =        T    correct aug charges                                                         
   LPAW   =        T    paw PP                                                                      
   EAUG   =  370.139                                                                                
   DEXC   =    0.000                                                                                
   RMAX   =    2.359    core radius for proj-oper                                                   
   RAUG   =    1.300    factor for augmentation sphere                                              
   RDEP   =    2.392    radius for radial grids                                                     
   RDEPT  =    2.170    core radius for aug-charge                                                  
                                                                                                    
   Atomic configuration                                                                             
   13 entries                                                                                       
     n  l   j            E        occ.                                                              
     1  0  0.50    -32976.3739   2.0000                                                             
     2  0  0.50     -5094.5933   2.0000                                                             
     2  1  1.50     -4572.0131   6.0000                                                             
     3  0  0.50     -1028.2813   2.0000                                                             
     3  1  1.50      -859.0250   6.0000                                                             
     3  2  2.50      -605.7620  10.0000                                                             
     4  0  0.50      -180.5540   2.0000                                                             
     4  1  1.50      -127.5306   6.0000                                                             
     4  2  2.50       -50.2720  10.0000                                                             
     5  0  0.50       -17.4058   2.0000                                                             
     5  1  0.50        -7.0851   5.0000                                                             
     5  2  1.50        -7.0750   0.0000                                                             
     4  3  2.50        -7.0750   0.0000                                                             
   Description                                                                                      
     l       E           TYP  RCUT    TYP  RCUT                                                     
     0    -17.4058016     23  2.300                                                                 
     0    -18.7663842     23  2.300                                                                 
     1     -7.0850686     23  2.300                                                                 
     1     -4.2150896     23  2.300                                                                 
     2     -7.0750295     23  2.300                                                                 
     3     -1.3605826     23  2.300                                                                 
  local pseudopotential read in
  partial core-charges read in
  partial kinetic energy density read in
  atomic valenz-charges read in
  non local Contribution for L=            0  read in
    real space projection operators read in
  non local Contribution for L=            0  read in
    real space projection operators read in
  non local Contribution for L=            1  read in
    real space projection operators read in
  non local Contribution for L=            1  read in
    real space projection operators read in
  non local Contribution for L=            2  read in
    real space projection operators read in
    PAW grid and wavefunctions read in
 
   number of l-projection  operators is LMAX  =            5
   number of lm-projection operators is LMMAX =           13
 
 POTCAR:    PAW_PBE Pb 08Apr2002                  
   SHA256 =  797118a27cf1bcd06b9881c67a26cdde129e3cd1a551dd4a281f9681ce847303 Pb/POTCAR             
   COPYR  = (c) Copyright 08Apr2002 Georg Kresse                                                    
   COPYR  = This file is part of the software VASP. Any use, copying, and all other rights are regul
   COPYR  = If you do not have a valid VASP license, you may not use, copy or distribute this file. 
   VRHFIN =Pb:                                                                                      
   LEXCH  = PE                                                                                      
   EATOM  =    96.9868 eV,    7.1283 Ry                                                             
                                                                                                    
   TITEL  = PAW_PBE Pb 08Apr2002                                                                    
   LULTRA =        F    use ultrasoft PP ?                                                          
   IUNSCR =        1    unscreen: 0-lin 1-nonlin 2-no                                               
   RPACOR =    2.200    partial core radius                                                         
   POMASS =  207.200; ZVAL   =    4.000    mass and valenz                                          
   RCORE  =    3.100    outmost cutoff radius                                                       
   RWIGS  =    3.260; RWIGS  =    1.725    wigner-seitz radius (au A)                               
   ENMAX  =   97.973; ENMIN  =   73.480 eV                                                          
   ICORE  =        3    local potential                                                             
   LCOR   =        T    correct aug charges                                                         
   LPAW   =        T    paw PP                                                                      
   EAUG   =  234.873                                                                                
   DEXC   =    0.000                                                                                
   RMAX   =    3.158    core radius for proj-oper                                                   
   RAUG   =    1.300    factor for augmentation sphere                                              
   RDEP   =    3.202    radius for radial grids                                                     
   RDEPT  =    2.659    core radius for aug-charge                                                  
                                                                                                    
   Atomic configuration                                                                             
   17 entries                                                                                       
     n  l   j            E        occ.                                                              
     1  0  0.50    -88091.8466   2.0000                                                             
     2  0  0.50    -15753.4197   2.0000                                                             
     2  1  1.50    -13508.1797   6.0000                                                             
     3  0  0.50     -3781.7194   2.0000                                                             
     3  1  1.50     -3138.2529   6.0000                                                             
     3  2  2.50     -2483.2977  10.0000                                                             
     4  0  0.50      -856.2895   2.0000                                                             
     4  1  1.50      -645.4943   6.0000                                                             
     4  2  2.50      -401.8768  10.0000                                                             
     4  3  3.50      -132.9059  14.0000                                                             
     5  0  0.50      -144.0950   2.0000                                                             
     5  1  1.50       -85.7879   6.0000                                                             
     5  2  2.50       -21.1769  10.0000                                                             
     6  0  0.50       -12.0372   2.0000                                                             
     6  1  1.50        -3.4971   2.0000                                                             
     6  2  2.50        -1.3606   0.0000                                                             
     5  3  2.50        -2.7212   0.0000                                                             
   Description                                                                                      
     l       E           TYP  RCUT    TYP  RCUT                                                     
     0    -12.0371566     23  3.100                                                                 
     0    -13.3977392     23  3.100                                                                 
     1     -3.4971341     23  3.100                                                                 
     1     -5.4423304     23  3.100                                                                 
     2     -1.3605826     23  3.100                                                                 
     3     -1.3605826     23  3.100                                                                 
  local pseudopotential read in
  partial core-charges read in
  partial kinetic energy density read in
  atomic valenz-charges read in
  non local Contribution for L=            0  read in
    real space projection operators read in
  non local Contribution for L=            0  read in
    real space projection operators read in
  non local Contribution for L=            1  read in
    real space projection operators read in
  non local Contribution for L=            1  read in
    real space projection operators read in
  non local Contribution for L=            2  read in
    real space projection operators read in
    PAW grid and wavefunctions read in
 
   number of l-projection  operators is LMAX  =            5
   number of lm-projection operators is LMMAX =           13
 
 Optimization of the real space projectors (new method)

 maximal supplied QI-value         = 34.20
 optimisation between [QCUT,QGAM] = [ 11.29, 22.57] = [ 35.68,142.71] Ry 
 Optimized for a Real-space Cutoff    1.16 Angstroem

   l    n(q)    QCUT    max X(q) W(low)/X(q) W(high)/X(q)  e(spline) 
   0      8    11.287    19.460    0.40E-03    0.73E-03    0.16E-06
   0      8    11.287    12.209    0.38E-03    0.70E-03    0.15E-06
   1      7    11.287     4.655    0.22E-03    0.25E-04    0.22E-06
 Optimization of the real space projectors (new method)

 maximal supplied QI-value         = 25.13
 optimisation between [QCUT,QGAM] = [ 11.31, 22.87] = [ 35.82,146.48] Ry 
 Optimized for a Real-space Cutoff    1.00 Angstroem

   l    n(q)    QCUT    max X(q) W(low)/X(q) W(high)/X(q)  e(spline) 
   0      7    11.310   115.676    0.43E-03    0.13E-02    0.19E-06
   0      7    11.310    87.132    0.43E-03    0.13E-02    0.18E-06
   1      6    11.310     4.429    0.42E-03    0.74E-03    0.11E-06
   1      6    11.310     2.733    0.34E-03    0.55E-03    0.92E-07
 Optimization of the real space projectors (new method)

 maximal supplied QI-value         = 25.13
 optimisation between [QCUT,QGAM] = [ 11.31, 22.87] = [ 35.82,146.48] Ry 
 Optimized for a Real-space Cutoff    1.27 Angstroem

   l    n(q)    QCUT    max X(q) W(low)/X(q) W(high)/X(q)  e(spline) 
   0      9    11.310    79.467    0.75E-04    0.16E-03    0.36E-06
   0      9    11.310    66.151    0.74E-04    0.16E-03    0.36E-06
   1      8    11.310    17.416    0.35E-03    0.12E-03    0.95E-06
   1      8    11.310    12.382    0.37E-03    0.13E-03    0.98E-06
 Optimization of the real space projectors (new method)

 maximal supplied QI-value         = 16.25
 optimisation between [QCUT,QGAM] = [ 11.38, 22.75] = [ 36.24,144.96] Ry 
 Optimized for a Real-space Cutoff    1.31 Angstroem

   l    n(q)    QCUT    max X(q) W(low)/X(q) W(high)/X(q)  e(spline) 
   0      9    11.376   194.483    0.24E-03    0.23E-03    0.67E-07
   0      9    11.376   190.334    0.23E-03    0.22E-03    0.65E-07
   1      8    11.376   116.687    0.25E-03    0.63E-04    0.16E-06
   1      8    11.376    88.696    0.25E-03    0.61E-04    0.16E-06
   2      8    11.376     4.877    0.17E-03    0.14E-03    0.29E-07
 Optimization of the real space projectors (new method)

 maximal supplied QI-value         = 12.09
 optimisation between [QCUT,QGAM] = [ 11.37, 22.86] = [ 36.19,146.31] Ry 
 Optimized for a Real-space Cutoff    1.66 Angstroem

   l    n(q)    QCUT    max X(q) W(low)/X(q) W(high)/X(q)  e(spline) 
   0     11    11.369   135.111    0.12E-03    0.69E-04    0.19E-05
   0     11    11.369   146.850    0.11E-03    0.65E-04    0.18E-05
   1     11    11.369   148.016    0.17E-03    0.32E-03    0.89E-06
   1     11    11.369   122.989    0.17E-03    0.32E-03    0.91E-06
   2     10    11.369     8.916    0.12E-03    0.45E-04    0.33E-06
  PAW_PBE H 15Jun2001                   :
 energy of atom  1       EATOM=  -12.4884
 kinetic energy error for atom=    0.0020 (will be added to EATOM!!)
  PAW_PBE C 08Apr2002                   :
 energy of atom  2       EATOM= -147.1560
 kinetic energy error for atom=    0.0076 (will be added to EATOM!!)
  PAW_PBE N 08Apr2002                   :
 energy of atom  3       EATOM= -264.5486
 kinetic energy error for atom=    0.0138 (will be added to EATOM!!)
  PAW_PBE I 08Apr2002                   :
 energy of atom  4       EATOM= -315.8678
 kinetic energy error for atom=    0.0009 (will be added to EATOM!!)
  PAW_PBE Pb 08Apr2002                  :
 energy of atom  5       EATOM=  -96.9868
 kinetic energy error for atom=    0.0000 (will be added to EATOM!!)
 
 
 POSCAR:  H  C  N  I Pb
  positions in cartesian coordinates
  No initial velocities read in
 exchange correlation table for  LEXCH =        8
   RHO(1)=    0.500       N(1)  =     2000
   RHO(2)=  100.500       N(2)  =     4000
 


--------------------------------------------------------------------------------------------------------


 ion  position               nearest neighbor table
   1  0.449  0.310  0.580- 187 1.00
   2  0.448  0.843  0.576- 188 1.00
   3  0.932  0.259  0.583- 189 1.03
   4  0.957  0.807  0.585- 190 1.06
   5  0.298  0.053  0.581- 194 1.02
   6  0.308  0.560  0.581- 195 1.03
   7  0.783  0.071  0.582- 196 1.02
   8  0.108  0.217  0.557- 183 1.00
   9  0.091  0.681  0.561- 184 1.01
  10  0.574  0.177  0.557- 185 1.02
  11  0.512  0.655  0.567- 186 1.03
  12  0.359  0.026  0.561- 194 1.03
  13  0.289  0.613  0.559- 195 1.01
  14  0.855  0.052  0.565- 196 1.01
  15  0.067  0.217  0.581- 183 1.01
  16  0.037  0.691  0.583- 184 1.02
  17  0.564  0.245  0.577- 185 1.03
  18  0.486  0.717  0.587- 186 1.02
  19  0.247  0.433  0.582- 191 1.02
  20  0.168  0.000  0.578- 192 1.03
  21  0.674  0.987  0.580- 193 1.02
  22  0.378  0.285  0.562- 187 1.02
  23  0.463  0.866  0.549- 188 1.03
  24  0.889  0.271  0.559- 189 1.03
  25  0.967  0.868  0.564- 190 1.03
  26  0.193  0.411  0.560- 191 1.02
  27  0.149  0.949  0.555- 192 1.00
  28  0.681  0.912  0.562- 193 1.02
  29  0.452  0.200  0.545- 146 1.09
  30  0.505  0.747  0.541- 147 1.07
  31  1.000  0.249  0.539- 144 1.09
  32  0.051  0.791  0.546- 145 1.09
  33  0.214  0.523  0.544- 148 1.07
  34  0.270  0.959  0.543- 149 1.08
  35  0.797  0.950  0.550- 150 1.08
  36  0.458  0.308  0.677- 205 1.00
  37  0.432  0.815  0.671- 206 1.00
  38  0.963  0.281  0.680- 207 1.02
  39  0.936  0.793  0.674- 208 1.02
  40  0.306  0.056  0.673- 209 1.00
  41  0.297  0.549  0.676- 210 1.00
  42  0.798  0.051  0.677- 211 0.99
  43  0.840  0.524  0.670- 212 1.00
  44  0.086  0.176  0.645- 197 1.04
  45  0.096  0.689  0.655- 198 1.04
  46  0.570  0.163  0.651- 199 1.04
  47  0.574  0.678  0.658- 200 1.03
  48  0.180  0.413  0.649- 201 1.02
  49  0.173  0.921  0.653- 202 1.04
  50  0.654  0.462  0.657- 203 1.01
  51  0.669  0.927  0.649- 204 1.05
  52  0.066  0.187  0.672- 197 1.01
  53  0.042  0.696  0.677- 198 1.02
  54  0.556  0.205  0.676- 199 1.02
  55  0.529  0.718  0.680- 200 1.00
  56  0.207  0.439  0.674- 201 0.99
  57  0.204  0.955  0.677- 202 1.00
  58  0.723  0.451  0.676- 203 1.00
  59  0.691  0.955  0.675- 204 1.00
  60  0.416  0.325  0.652- 205 1.02
  61  0.422  0.834  0.644- 206 1.03
  62  0.924  0.323  0.657- 207 1.03
  63  0.930  0.837  0.650- 208 1.01
  64  0.332  0.078  0.647- 209 1.03
  65  0.321  0.585  0.652- 210 1.00
  66  0.837  0.074  0.653- 211 1.02
  67  0.844  0.572  0.645- 212 1.02
  68  1.000  0.259  0.634- 151 1.10
  69  0.032  0.778  0.636- 152 1.11
  70  0.483  0.235  0.634- 153 1.10
  71  0.510  0.750  0.634- 154 1.10
  72  0.251  0.995  0.632- 156 1.10
  73  0.251  0.504  0.633- 155 1.10
  74  0.760  0.000  0.633- 158 1.09
  75  0.728  0.540  0.636- 157 1.10
  76  0.449  0.301  0.769- 221 1.02
  77  0.449  0.801  0.769- 222 1.02
  78  0.949  0.301  0.769- 223 1.02
  79  0.949  0.801  0.769- 224 1.02
  80  0.301  0.051  0.769- 225 1.02
  81  0.301  0.551  0.769- 226 1.02
  82  0.801  0.051  0.769- 227 1.02
  83  0.801  0.551  0.769- 228 1.02
  84  0.079  0.171  0.743- 213 1.02
  85  0.079  0.671  0.743- 214 1.02
  86  0.579  0.171  0.743- 215 1.02
  87  0.579  0.671  0.743- 216 1.02
  88  0.171  0.421  0.743- 217 1.02
  89  0.171  0.921  0.743- 218 1.02
  90  0.671  0.421  0.743- 219 1.02
  91  0.671  0.921  0.743- 220 1.02
  92  0.051  0.199  0.769- 213 1.02
  93  0.051  0.699  0.769- 214 1.02
  94  0.551  0.199  0.769- 215 1.02
  95  0.551  0.699  0.769- 216 1.02
  96  0.199  0.449  0.769- 217 1.02
  97  0.199  0.949  0.769- 218 1.02
  98  0.699  0.449  0.769- 219 1.02
  99  0.699  0.949  0.769- 220 1.02
 100  0.421  0.329  0.743- 221 1.02
 101  0.421  0.829  0.743- 222 1.02
 102  0.921  0.329  0.743- 223 1.02
 103  0.921  0.829  0.743- 224 1.02
 104  0.329  0.079  0.743- 225 1.02
 105  0.329  0.579  0.743- 226 1.02
 106  0.829  0.079  0.743- 227 1.02
 107  0.829  0.579  0.743- 228 1.02
 108  0.000  0.250  0.726- 161 1.09
 109  0.000  0.750  0.726- 162 1.09
 110  0.500  0.250  0.726- 159 1.09
 111  0.500  0.750  0.726- 160 1.09
 112  0.250  0.000  0.726- 163 1.09
 113  0.250  0.500  0.726- 164 1.09
 114  0.750  0.000  0.726- 165 1.09
 115  0.750  0.500  0.726- 166 1.09
 116  0.717  0.442  0.543- 173 1.09
 117  0.736  0.501  0.521- 173 1.11
 118  0.651  0.543  0.561- 174 1.10
 119  0.694  0.632  0.561- 174 1.08
 120  0.839  0.504  0.575- 175 1.10
 121  0.772  0.569  0.584- 175 1.10
 122  0.865  0.557  0.536- 176 1.09
 123  0.796  0.619  0.529- 176 1.08
 124  0.865  0.476  0.522- 177 1.10
 125  0.867  0.437  0.548- 177 1.11
 126  0.881  0.341  0.521- 178 1.11
 127  0.795  0.328  0.534- 178 1.10
 128  0.628  0.546  0.524- 179 1.09
 129  0.690  0.622  0.519- 179 1.08
 130  0.607  0.635  0.533- 179 1.10
 131  0.752  0.449  0.599- 180 1.10
 132  0.740  0.405  0.574- 180 1.10
 133  0.671  0.470  0.583- 180 1.11
 134  0.831  0.682  0.568- 181 1.09
 135  0.881  0.694  0.544- 181 1.09
 136  0.913  0.629  0.563- 181 1.09
 137  0.825  0.395  0.489- 182 1.09
 138  0.791  0.306  0.494- 182 1.09
 139  0.665  0.316  0.521- 168 1.09
 140  0.739  0.472  0.474- 169 1.08
 141  0.541  0.371  0.520- 170 1.09
 142  0.614  0.528  0.473- 171 1.08
 143  0.513  0.476  0.496- 172 1.07
 144  0.999  0.245  0.557-  31 1.09 183 1.31 189 1.32
 145  0.029  0.774  0.561-  32 1.09 184 1.31 190 1.32
 146  0.475  0.230  0.558-  29 1.09 187 1.30 185 1.31
 147  0.491  0.760  0.557-  30 1.07 186 1.31 188 1.32
 148  0.240  0.513  0.559-  33 1.07 195 1.30 191 1.31
 149  0.254  0.986  0.557-  34 1.08 192 1.30 194 1.31
 150  0.769  0.982  0.562-  35 1.08 196 1.30 193 1.32
 151  0.005  0.250  0.651-  68 1.10 197 1.30 207 1.31
 152  0.013  0.764  0.652-  69 1.11 198 1.30 208 1.30
 153  0.493  0.244  0.651-  70 1.10 199 1.29 205 1.32
 154  0.499  0.756  0.651-  71 1.10 200 1.30 206 1.33
 155  0.251  0.499  0.650-  73 1.10 201 1.30 210 1.33
 156  0.252  0.999  0.650-  72 1.10 202 1.29 209 1.33
 157  0.749  0.517  0.651-  75 1.10 203 1.30 212 1.32
 158  0.753  0.000  0.651-  74 1.09 204 1.29 211 1.33
 159  0.500  0.250  0.743- 110 1.09 221 1.31 215 1.31
 160  0.500  0.750  0.743- 111 1.09 222 1.31 216 1.31
 161  1.000  0.250  0.743- 108 1.09 223 1.31 213 1.31
 162  1.000  0.750  0.743- 109 1.09 224 1.31 214 1.31
 163  0.250  0.000  0.743- 112 1.09 225 1.31 218 1.31
 164  0.250  0.500  0.743- 113 1.09 226 1.31 217 1.31
 165  0.750  0.000  0.743- 114 1.09 227 1.31 220 1.31
 166  0.750  0.500  0.743- 115 1.09 228 1.31 219 1.31
 167  0.712  0.392  0.498- 168 1.38 169 1.39 182 1.51
 168  0.656  0.362  0.511- 139 1.09 167 1.38 170 1.40
 169  0.696  0.451  0.484- 140 1.08 171 1.39 167 1.39
 170  0.584  0.392  0.510- 141 1.09 172 1.40 168 1.40
 171  0.626  0.481  0.484- 142 1.08 169 1.39 172 1.42
 172  0.568  0.453  0.496- 143 1.07 170 1.40 171 1.42
 173  0.758  0.481  0.537- 116 1.09 117 1.11 229 1.49 177 1.55
 174  0.687  0.581  0.552- 119 1.08 118 1.10 229 1.51 179 1.51
 175  0.780  0.520  0.574- 121 1.10 120 1.10 180 1.51 229 1.52
 176  0.823  0.595  0.543- 123 1.08 122 1.09 181 1.52 229 1.53
 177  0.833  0.441  0.533- 124 1.10 125 1.11 178 1.53 173 1.55
 178  0.825  0.364  0.523- 127 1.10 126 1.11 177 1.53 182 1.55
 179  0.652  0.596  0.531- 129 1.08 128 1.09 130 1.10 174 1.51
 180  0.732  0.458  0.583- 131 1.10 132 1.10 133 1.11 175 1.51
 181  0.863  0.653  0.556- 136 1.09 134 1.09 135 1.09 176 1.52
 182  0.790  0.363  0.500- 137 1.09 138 1.09 167 1.51 178 1.55
 183  0.062  0.224  0.565-   8 1.00  15 1.01 144 1.31
 184  0.053  0.712  0.569-   9 1.01  16 1.02 145 1.31
 185  0.541  0.214  0.565-  10 1.02  17 1.03 146 1.31
 186  0.501  0.709  0.572-  18 1.02  11 1.03 147 1.31
 187  0.433  0.281  0.567-   1 1.00  22 1.02 146 1.30
 188  0.466  0.827  0.561-   2 1.00  23 1.03 147 1.32
 189  0.937  0.260  0.567-  24 1.03   3 1.03 144 1.32
 190  0.978  0.816  0.570-  25 1.03   4 1.06 145 1.32
 191  0.227  0.449  0.568-  19 1.02  26 1.02 148 1.31
 192  0.187  0.978  0.564-  27 1.00  20 1.03 149 1.30
 193  0.702  0.961  0.568-  21 1.02  28 1.02 150 1.32
 194  0.305  0.025  0.567-   5 1.02  12 1.03 149 1.31
 195  0.282  0.564  0.567-  13 1.01   6 1.03 148 1.30
 196  0.805  0.037  0.570-  14 1.01   7 1.02 150 1.30
 197  0.055  0.202  0.657-  52 1.01  44 1.04 151 1.30
 198  0.051  0.714  0.662-  53 1.02  45 1.04 152 1.30
 199  0.542  0.202  0.660-  54 1.02  46 1.04 153 1.29
 200  0.536  0.714  0.665-  55 1.00  47 1.03 154 1.30
 201  0.211  0.447  0.659-  56 0.99  48 1.02 155 1.30
 202  0.208  0.957  0.661-  57 1.00  49 1.04 156 1.29
 203  0.707  0.473  0.662-  58 1.00  50 1.01 157 1.30
 204  0.702  0.959  0.659-  59 1.00  51 1.05 158 1.29
 205  0.453  0.296  0.661-  36 1.00  60 1.02 153 1.32
 206  0.447  0.805  0.656-  37 1.00  61 1.03 154 1.33
 207  0.961  0.287  0.664-  38 1.02  62 1.03 151 1.31
 208  0.956  0.800  0.659-  63 1.01  39 1.02 152 1.30
 209  0.300  0.047  0.658-  40 1.00  64 1.03 156 1.33
 210  0.293  0.548  0.660-  41 1.00  65 1.00 155 1.33
 211  0.799  0.045  0.661-  42 0.99  66 1.02 158 1.33
 212  0.817  0.538  0.656-  43 1.00  67 1.02 157 1.32
 213  0.046  0.204  0.753-  92 1.02  84 1.02 161 1.31
 214  0.046  0.704  0.753-  93 1.02  85 1.02 162 1.31
 215  0.546  0.204  0.753-  94 1.02  86 1.02 159 1.31
 216  0.546  0.704  0.753-  95 1.02  87 1.02 160 1.31
 217  0.204  0.454  0.753-  96 1.02  88 1.02 164 1.31
 218  0.204  0.954  0.753-  97 1.02  89 1.02 163 1.31
 219  0.704  0.454  0.753-  98 1.02  90 1.02 166 1.31
 220  0.704  0.954  0.753-  99 1.02  91 1.02 165 1.31
 221  0.454  0.296  0.753-  76 1.02 100 1.02 159 1.31
 222  0.454  0.796  0.753-  77 1.02 101 1.02 160 1.31
 223  0.954  0.296  0.753-  78 1.02 102 1.02 161 1.31
 224  0.954  0.796  0.753-  79 1.02 103 1.02 162 1.31
 225  0.296  0.046  0.753-  80 1.02 104 1.02 163 1.31
 226  0.296  0.546  0.753-  81 1.02 105 1.02 164 1.31
 227  0.796  0.046  0.753-  82 1.02 106 1.02 165 1.31
 228  0.796  0.546  0.753-  83 1.02 107 1.02 166 1.31
 229  0.762  0.545  0.552- 173 1.49 174 1.51 175 1.52 176 1.53
 230  0.495  0.018  0.551- 304 3.27
 231  0.482  0.517  0.556- 305 3.11
 232  0.991  0.003  0.552- 302 3.27
 233  0.033  0.503  0.554- 303 3.17
 234  0.248  0.245  0.551- 306 3.31
 235  0.258  0.755  0.553- 307 3.15
 236  0.743  0.215  0.559- 308 3.11
 237  0.713  0.787  0.547- 309 3.59
 238  0.004  0.001  0.655- 302 3.12 310 3.14
 239  0.012  0.491  0.656- 311 3.09 303 3.21
 240  0.497  0.003  0.654- 312 3.16 304 3.19
 241  0.505  0.490  0.656- 313 3.08 305 3.15
 242  0.253  0.247  0.655- 314 3.13 306 3.17
 243  0.250  0.755  0.655- 315 3.13 307 3.22
 244  0.741  0.254  0.656- 316 3.05 308 3.08
 245  0.753  0.756  0.653- 309 3.15 317 3.23
 246  0.144  0.108  0.608- 306 3.26 302 3.29
 247  0.146  0.613  0.611- 307 3.19 303 3.21
 248  0.646  0.105  0.611- 304 3.16 308 3.26
 249  0.619  0.632  0.616- 305 3.26 309 3.27
 250  0.354  0.393  0.610- 306 3.18 305 3.28
 251  0.368  0.888  0.609- 307 3.26 304 3.29
 252  0.883  0.371  0.614- 308 3.27 303 3.35
 253  0.861  0.889  0.611- 302 3.20 309 3.23
 254  0.111  0.355  0.609- 306 3.16 303 3.31
 255  0.120  0.875  0.609- 307 3.21 302 3.29
 256  0.588  0.343  0.607- 308 3.24 305 3.30
 257  0.610  0.865  0.610- 309 3.10 304 3.27
 258  0.388  0.136  0.609- 304 3.12 306 3.26
 259  0.383  0.632  0.613- 305 3.18 307 3.33
 260  0.884  0.141  0.613- 302 3.19 308 3.30
 261  0.915  0.652  0.617- 303 3.24 309 3.78
 262  0.000  0.000  0.755- 310 3.13 318 3.27
 263  0.000  0.500  0.755- 311 3.13 319 3.27
 264  0.500  0.000  0.755- 312 3.13 320 3.27
 265  0.500  0.500  0.755- 313 3.13 321 3.27
 266  0.250  0.250  0.755- 314 3.13 322 3.27
 267  0.250  0.750  0.755- 315 3.13 323 3.27
 268  0.750  0.250  0.755- 316 3.13 324 3.27
 269  0.750  0.750  0.755- 317 3.13 325 3.27
 270  0.136  0.114  0.705- 310 3.20 314 3.20
 271  0.136  0.614  0.705- 311 3.20 315 3.20
 272  0.636  0.114  0.705- 312 3.20 316 3.20
 273  0.636  0.614  0.705- 313 3.20 317 3.20
 274  0.364  0.386  0.705- 313 3.20 314 3.20
 275  0.364  0.886  0.705- 312 3.20 315 3.20
 276  0.864  0.386  0.705- 311 3.20 316 3.20
 277  0.864  0.886  0.705- 310 3.20 317 3.20
 278  0.114  0.364  0.705- 314 3.21 311 3.21
 279  0.114  0.864  0.705- 315 3.21 310 3.21
 280  0.614  0.364  0.705- 316 3.21 313 3.21
 281  0.614  0.864  0.705- 317 3.21 312 3.21
 282  0.386  0.136  0.705- 314 3.21 312 3.21
 283  0.386  0.636  0.705- 315 3.21 313 3.21
 284  0.886  0.136  0.705- 316 3.21 310 3.21
 285  0.886  0.636  0.705- 317 3.21 311 3.21
 286  0.135  0.115  0.801- 318 3.22 322 3.22
 287  0.135  0.615  0.801- 319 3.22 323 3.22
 288  0.635  0.115  0.801- 320 3.22 324 3.22
 289  0.635  0.615  0.801- 321 3.22 325 3.22
 290  0.365  0.385  0.801- 321 3.22 322 3.22
 291  0.365  0.885  0.801- 320 3.22 323 3.22
 292  0.865  0.385  0.801- 319 3.22 324 3.22
 293  0.865  0.885  0.801- 318 3.22 325 3.22
 294  0.115  0.365  0.801- 319 3.23 322 3.23
 295  0.115  0.865  0.801- 318 3.23 323 3.23
 296  0.615  0.365  0.801- 321 3.23 324 3.23
 297  0.615  0.865  0.801- 320 3.23 325 3.23
 298  0.385  0.135  0.801- 320 3.23 322 3.23
 299  0.385  0.635  0.801- 321 3.23 323 3.23
 300  0.885  0.135  0.801- 318 3.23 324 3.23
 301  0.885  0.635  0.801- 319 3.23 325 3.23
 302  0.993  0.005  0.605- 238 3.12 260 3.19 253 3.20 232 3.27 255 3.29 246 3.29
 303  0.007  0.504  0.604- 233 3.17 239 3.21 247 3.21 261 3.24 254 3.31 252 3.35
 304  0.503  0.009  0.603- 258 3.12 248 3.16 240 3.19 230 3.27 257 3.27 251 3.29
 305  0.499  0.502  0.605- 231 3.11 241 3.15 259 3.18 249 3.26 250 3.28 256 3.30
 306  0.251  0.252  0.604- 254 3.16 242 3.17 250 3.18 258 3.26 246 3.26 234 3.31
 307  0.249  0.754  0.603- 235 3.15 247 3.19 255 3.21 243 3.22 251 3.26 259 3.33
 308  0.745  0.256  0.607- 244 3.08 236 3.11 256 3.24 248 3.26 252 3.27 260 3.30
 309  0.742  0.758  0.603- 257 3.10 245 3.15 253 3.23 249 3.27 237 3.59 261 3.78
 310  0.000  0.000  0.705- 262 3.13 238 3.14 270 3.20 277 3.20 279 3.21 284 3.21
 311  0.000  0.500  0.705- 239 3.09 263 3.13 271 3.20 276 3.20 278 3.21 285 3.21
 312  0.500  0.000  0.705- 264 3.13 240 3.16 272 3.20 275 3.20 281 3.21 282 3.21
 313  0.500  0.500  0.705- 241 3.08 265 3.13 273 3.20 274 3.20 280 3.21 283 3.21
 314  0.250  0.250  0.705- 266 3.13 242 3.13 270 3.20 274 3.20 282 3.21 278 3.21
 315  0.250  0.750  0.705- 243 3.13 267 3.13 271 3.20 275 3.20 283 3.21 279 3.21
 316  0.750  0.250  0.705- 244 3.05 268 3.13 272 3.20 276 3.20 284 3.21 280 3.21
 317  0.750  0.750  0.705- 269 3.13 273 3.20 277 3.20 285 3.21 281 3.21 245 3.23
 318  0.000  0.000  0.807- 286 3.22 293 3.22 300 3.23 295 3.23 262 3.27
 319  0.000  0.500  0.807- 287 3.22 292 3.22 301 3.23 294 3.23 263 3.27
 320  0.500  0.000  0.807- 288 3.22 291 3.22 298 3.23 297 3.23 264 3.27
 321  0.500  0.500  0.807- 289 3.22 290 3.22 299 3.23 296 3.23 265 3.27
 322  0.250  0.250  0.807- 290 3.22 286 3.22 294 3.23 298 3.23 266 3.27
 323  0.250  0.750  0.807- 291 3.22 287 3.22 299 3.23 295 3.23 267 3.27
 324  0.750  0.250  0.807- 292 3.22 288 3.22 296 3.23 300 3.23 268 3.27
 325  0.750  0.750  0.807- 293 3.22 289 3.22 297 3.23 301 3.23 269 3.27
 

IMPORTANT INFORMATION: All symmetrisations will be switched off!
NOSYMM: (Re-)initialisation of all symmetry stuff for point group C_1.


----------------------------------------------------------------------------------------

                                     Primitive cell                                     

  volume of cell :   20385.2105

  direct lattice vectors                    reciprocal lattice vectors
    18.060800552  0.000000000  0.000000000     0.055368531  0.000015077 -0.000000000
    -0.004918649 18.062799454  0.000000000     0.000000000  0.055362404  0.000000000
     0.000000000  0.000000000 62.487499237     0.000000000 -0.000000000  0.016003201

  length of vectors
    18.060800552 18.062800123 62.487499237     0.055368533  0.055362404  0.016003201

  position of ions in fractional coordinates (direct lattice)
     0.448857220  0.310378054  0.579565994
     0.448214966  0.842779529  0.575749984
     0.931717300  0.258628808  0.583121942
     0.957353864  0.806634538  0.585390645
     0.297788776  0.052869692  0.581058296
     0.308000243  0.559599842  0.581381054
     0.782982790  0.071469023  0.581662177
     0.108102641  0.217351709  0.556569878
     0.091006231  0.681154620  0.560832083
     0.574477513  0.177259232  0.557129804
     0.511886932  0.655184697  0.567082479
     0.358946465  0.025971317  0.561250746
     0.289192434  0.613002026  0.559129655
     0.855147085  0.051734129  0.564530332
     0.066785476  0.216670513  0.581263049
     0.036746430  0.691482062  0.583316377
     0.564421935  0.245359478  0.577004263
     0.486077526  0.716905370  0.587297398
     0.246897648  0.433010380  0.582149884
     0.167946141  0.000244043  0.577966675
     0.673782073  0.986641397  0.580397947
     0.378385240  0.284696037  0.562079708
     0.463268047  0.865869231  0.549048232
     0.889045764  0.270501982  0.558555932
     0.967109451  0.867609444  0.563540266
     0.192920501  0.410947224  0.560400173
     0.149384358  0.949191401  0.555344108
     0.681492038  0.912430443  0.562459972
     0.451661247  0.200056541  0.544662528
     0.505325234  0.747431577  0.540969345
     0.999963494  0.249079762  0.539053618
     0.051483945  0.791307365  0.545592279
     0.213553628  0.523145932  0.543646089
     0.269923907  0.958773689  0.542641128
     0.796888323  0.949643637  0.550184140
     0.457782464  0.308315591  0.676560674
     0.431794893  0.815374459  0.671494964
     0.963003778  0.281315928  0.680293294
     0.935715954  0.792695786  0.674316268
     0.306045097  0.056110092  0.673369851
     0.296917799  0.549190564  0.676359096
     0.798014659  0.050601114  0.676955101
     0.839704207  0.523833781  0.669649502
     0.086134329  0.175698783  0.645073481
     0.096022428  0.689100199  0.654595160
     0.569999897  0.162592281  0.651267835
     0.573534878  0.677543416  0.658470875
     0.180181717  0.413195983  0.649103217
     0.173226957  0.920699170  0.652530600
     0.654435412  0.462169443  0.657213299
     0.668999994  0.926806083  0.648941259
     0.065680145  0.187074761  0.672111359
     0.042381123  0.696039929  0.677384570
     0.556088677  0.204788746  0.676129863
     0.528925662  0.717722098  0.680484372
     0.206584423  0.439208831  0.674473526
     0.203563465  0.955257999  0.676672818
     0.722787985  0.451382503  0.675780062
     0.691007968  0.954863811  0.674619307
     0.415946626  0.324948398  0.652124085
     0.421627191  0.833857879  0.644247388
     0.923510223  0.323266659  0.657350411
     0.929906890  0.837338989  0.649815640
     0.331586352  0.078193002  0.647393219
     0.321320545  0.585193898  0.651954251
     0.836912952  0.074375160  0.652592685
     0.844455105  0.571936712  0.645301676
     0.999638569  0.259205174  0.633961028
     0.031979819  0.778397429  0.635677375
     0.483472760  0.235210941  0.634280184
     0.509851223  0.749898813  0.634056507
     0.250648643  0.995363565  0.632207992
     0.250834189  0.504106447  0.632598695
     0.760095420  0.000348235  0.633133226
     0.727988131  0.539990194  0.635800752
     0.448745018  0.301283966  0.768889017
     0.448745007  0.801283913  0.768889017
     0.948744965  0.301283966  0.768889017
     0.948745007  0.801283913  0.768889017
     0.301275995  0.051294496  0.768872961
     0.301276011  0.551294499  0.768872961
     0.801275943  0.051294496  0.768872961
     0.801275984  0.551294499  0.768872961
     0.078771004  0.171180501  0.743441971
     0.078771006  0.671180448  0.743441971
     0.578771004  0.171180501  0.743441971
     0.578770992  0.671180448  0.743441971
     0.171199499  0.421174482  0.743421032
     0.171199501  0.921174508  0.743421032
     0.671199512  0.421174482  0.743421032
     0.671199501  0.921174508  0.743421032
     0.051256000  0.198714991  0.768889017
     0.051256002  0.698714925  0.768889017
     0.551256027  0.198714991  0.768889017
     0.551256016  0.698714925  0.768889017
     0.198723491  0.448703970  0.768872046
     0.198723493  0.948703970  0.768872046
     0.698723518  0.448703970  0.768872046
     0.698723507  0.948703970  0.768872046
     0.421231519  0.328817467  0.743441971
     0.421231508  0.828817440  0.743441971
     0.921231466  0.328817467  0.743441971
     0.921231508  0.828817440  0.743441971
     0.328800503  0.078824997  0.743421032
     0.328800492  0.578824964  0.743421032
     0.828800477  0.078824997  0.743421032
     0.828800519  0.578824964  0.743421032
     0.000003500  0.250001478  0.725821992
     0.000003500  0.750001452  0.725821992
     0.500003506  0.250001478  0.725821992
     0.500003495  0.750001452  0.725821992
     0.250000502  0.000000000  0.725803983
     0.250000517  0.500000000  0.725803983
     0.750000502  0.000000000  0.725803983
     0.750000490  0.500000000  0.725803983
     0.716605824  0.441782903  0.542803086
     0.735682116  0.501140906  0.521437729
     0.651061069  0.543462911  0.561160029
     0.693914628  0.632055766  0.561190065
     0.838926806  0.503765004  0.574774142
     0.771610526  0.568537120  0.584451858
     0.864848222  0.557459054  0.536438410
     0.796125120  0.618632373  0.528674589
     0.864753547  0.475642994  0.521510864
     0.866682024  0.437201594  0.547580104
     0.881116467  0.341078545  0.521196287
     0.794680413  0.327986167  0.534085278
     0.628275658  0.546391652  0.523533119
     0.690174433  0.621726846  0.519419320
     0.606537452  0.634846547  0.533070671
     0.751535218  0.449174239  0.598982169
     0.740219181  0.404872241  0.574057384
     0.671479402  0.470149076  0.583043801
     0.831398764  0.682146056  0.568059786
     0.880914798  0.694107797  0.544195821
     0.912745124  0.629464455  0.562840053
     0.825422642  0.395280640  0.489485018
     0.790591606  0.306013716  0.494092111
     0.665262357  0.316171097  0.521487849
     0.739302676  0.472366738  0.474443100
     0.540540478  0.370816930  0.520019782
     0.614487895  0.527520908  0.473141997
     0.513310956  0.475707883  0.496320126
     0.999460784  0.244740187  0.556522566
     0.028748957  0.773861895  0.560965655
     0.474611500  0.230435362  0.558215837
     0.491228146  0.760156668  0.557107217
     0.240169841  0.512690403  0.558717219
     0.254134611  0.986383098  0.557210448
     0.768726522  0.981708208  0.562304057
     0.004727713  0.249592006  0.651327905
     0.013063735  0.763707947  0.652023174
     0.492974469  0.243843603  0.651436387
     0.498605701  0.755510734  0.651354217
     0.250563079  0.499489235  0.650130400
     0.251667325  0.998738880  0.649714057
     0.749321327  0.516658626  0.650791238
     0.752764150  0.000446767  0.650514999
     0.499988984  0.249994984  0.743277021
     0.499989025  0.749994958  0.743277021
     0.999988984  0.249994984  0.743277021
     0.999989025  0.749994958  0.743277021
     0.250000502  0.000001000  0.743255960
     0.250000517  0.500001003  0.743255960
     0.750000502  0.000001000  0.743255960
     0.750000491  0.500001003  0.743255960
     0.712036788  0.391571866  0.497956043
     0.656169084  0.362412618  0.510550328
     0.695908031  0.450637685  0.484441010
     0.584437513  0.392223812  0.509689194
     0.625567937  0.481217798  0.483508420
     0.567794633  0.452739351  0.496482756
     0.758174643  0.480822290  0.536858416
     0.686677258  0.581411999  0.552125874
     0.780097995  0.519623850  0.574384049
     0.822656503  0.595087448  0.542577944
     0.833153573  0.441102235  0.532798339
     0.824559955  0.364129890  0.522837606
     0.652295908  0.595917639  0.530555519
     0.731755705  0.457542780  0.582576544
     0.862905712  0.652759329  0.555820583
     0.790110250  0.362827688  0.500044931
     0.062111302  0.224408874  0.565340492
     0.053453522  0.711830772  0.568965301
     0.541425806  0.214241726  0.564958091
     0.500761741  0.708656310  0.571696133
     0.432673090  0.281191932  0.566704107
     0.465782154  0.827377172  0.561274310
     0.937035395  0.259546749  0.566748916
     0.978092627  0.816178251  0.569842247
     0.226920338  0.448572767  0.567632760
     0.186500358  0.977804946  0.563878285
     0.702044375  0.961031217  0.568427108
     0.305406859  0.024887631  0.567061661
     0.281585437  0.564386323  0.566884990
     0.805010389  0.037411574  0.570249433
     0.055060383  0.201790206  0.656855012
     0.051215965  0.713840833  0.662077492
     0.542402045  0.202051727  0.660316275
     0.535734889  0.714422928  0.664700392
     0.210590368  0.447367026  0.658783559
     0.208182776  0.956919926  0.660763325
     0.707083294  0.472642237  0.661743746
     0.702498743  0.959071432  0.659031534
     0.453398337  0.295877561  0.661025402
     0.447240068  0.805021727  0.656431099
     0.960904803  0.286815363  0.664002621
     0.955603497  0.799683034  0.659187815
     0.299589532  0.047428414  0.657700762
     0.292600854  0.548157735  0.660481347
     0.798651468  0.044774795  0.661130098
     0.816726521  0.538333719  0.655764706
     0.045862501  0.204119496  0.752725994
     0.045862500  0.704119456  0.752725994
     0.545862507  0.204119496  0.752725994
     0.545862496  0.704119456  0.752725994
     0.204119002  0.454101003  0.752704994
     0.204118991  0.954100951  0.752704994
     0.704118976  0.454101003  0.752704994
     0.704118964  0.954100951  0.752704994
     0.454140018  0.295888490  0.752726971
     0.454140007  0.795888516  0.752726971
     0.954140018  0.295888490  0.752726971
     0.954140060  0.795888516  0.752726971
     0.295882492  0.045900498  0.752704994
     0.295882481  0.545900528  0.752704994
     0.795882439  0.045900498  0.752704994
     0.795882481  0.545900528  0.752704994
     0.761721015  0.545122184  0.551751837
     0.494519680  0.018423861  0.550998207
     0.482126622  0.517449007  0.555889993
     0.990738423  0.003270291  0.552473783
     0.033324348  0.503397532  0.554204903
     0.248447062  0.244838972  0.550992835
     0.257590153  0.755247590  0.552739217
     0.743201629  0.215047974  0.558575162
     0.712825773  0.787279428  0.546742595
     0.004177523  0.000945262  0.654545407
     0.011728341  0.491211506  0.655521432
     0.496975964  0.002994929  0.654200855
     0.504952206  0.490053018  0.655571491
     0.253175523  0.247102673  0.654690028
     0.249597368  0.754792685  0.654737706
     0.741090067  0.253628786  0.656114324
     0.752978992  0.755784279  0.653131367
     0.143592839  0.107842317  0.607518240
     0.145915999  0.613029744  0.611320392
     0.645896616  0.105458019  0.610951727
     0.619293922  0.631856983  0.615520634
     0.354238564  0.393235627  0.609991818
     0.368251221  0.887538253  0.608918910
     0.882739414  0.371049372  0.613872477
     0.861041147  0.888843940  0.610694656
     0.111181076  0.354823477  0.609124152
     0.120452957  0.875178258  0.608713059
     0.587810155  0.342686182  0.606934566
     0.609854416  0.864616447  0.610262197
     0.387966778  0.135851446  0.609078549
     0.382737419  0.631873878  0.613188746
     0.884410508  0.140977152  0.613435866
     0.915289346  0.651719954  0.617090772
     0.000000000  0.000000000  0.754927972
     0.000000000  0.500000000  0.754927972
     0.500000000  0.000000000  0.754927972
     0.499999989  0.500000000  0.754927972
     0.250000496  0.250000000  0.754939022
     0.250000511  0.749999974  0.754939022
     0.750000470  0.250000000  0.754939022
     0.750000458  0.749999974  0.754939022
     0.135790500  0.114209997  0.704782994
     0.135790502  0.614209984  0.704782994
     0.635790447  0.114209997  0.704782994
     0.635790488  0.614209984  0.704782994
     0.364209516  0.385789989  0.704782994
     0.364209505  0.885789963  0.704782994
     0.864209542  0.385789989  0.704782994
     0.864209531  0.885789963  0.704782994
     0.114217990  0.364218986  0.704780979
     0.114217992  0.864218986  0.704780979
     0.614218004  0.364218986  0.704780979
     0.614217992  0.864218986  0.704780979
     0.385782012  0.135781489  0.704782017
     0.385782001  0.635781489  0.704782017
     0.885781985  0.135781489  0.704782017
     0.885782027  0.635781489  0.704782017
     0.134667000  0.115332001  0.801256025
     0.134666989  0.615331988  0.801256025
     0.634666987  0.115332001  0.801256025
     0.634666976  0.615331988  0.801256025
     0.365333002  0.384667985  0.801256025
     0.365332990  0.884667959  0.801256025
     0.865332949  0.384667985  0.801256025
     0.865332938  0.884667959  0.801256025
     0.115328503  0.365337004  0.801264999
     0.115328505  0.865336978  0.801264999
     0.615328503  0.365337004  0.801264999
     0.615328492  0.865336978  0.801264999
     0.384671513  0.134662996  0.801264999
     0.384671501  0.634662970  0.801264999
     0.884671486  0.134662996  0.801264999
     0.884671528  0.634662970  0.801264999
     0.993173855  0.005047292  0.604741439
     0.007119777  0.504391185  0.604338282
     0.502783072  0.008560408  0.603180397
     0.498785149  0.502368822  0.605275298
     0.251305010  0.251949054  0.603927189
     0.248894282  0.753704102  0.603136809
     0.744628414  0.256080711  0.606916801
     0.742015896  0.757828870  0.602873695
     0.000000500  0.000000500  0.704828963
     0.000000500  0.500000475  0.704828963
     0.500000475  0.000000500  0.704828963
     0.500000464  0.500000475  0.704828963
     0.249999994  0.249999472  0.704824995
     0.250000010  0.749999498  0.704824995
     0.749999994  0.249999472  0.704824995
     0.749999983  0.749999498  0.704824995
     0.000000000  0.000000000  0.807317968
     0.000000000  0.500000000  0.807317968
     0.500000000  0.000000000  0.807317968
     0.499999989  0.500000000  0.807317968
     0.249999994  0.250000000  0.807317968
     0.250000010  0.749999974  0.807317968
     0.749999994  0.250000000  0.807317968
     0.749999983  0.749999974  0.807317968

  ion indices of the primitive-cell ions
   primitive index   ion index
                 1           1
                 2           2
                 3           3
                 4           4
                 5           5
                 6           6
                 7           7
                 8           8
                 9           9
                10          10
                11          11
                12          12
                13          13
                14          14
                15          15
                16          16
                17          17
                18          18
                19          19
                20          20
                21          21
                22          22
                23          23
                24          24
                25          25
                26          26
                27          27
                28          28
                29          29
                30          30
                31          31
                32          32
                33          33
                34          34
                35          35
                36          36
                37          37
                38          38
                39          39
                40          40
                41          41
                42          42
                43          43
                44          44
                45          45
                46          46
                47          47
                48          48
                49          49
                50          50
                51          51
                52          52
                53          53
                54          54
                55          55
                56          56
                57          57
                58          58
                59          59
                60          60
                61          61
                62          62
                63          63
                64          64
                65          65
                66          66
                67          67
                68          68
                69          69
                70          70
                71          71
                72          72
                73          73
                74          74
                75          75
                76          76
                77          77
                78          78
                79          79
                80          80
                81          81
                82          82
                83          83
                84          84
                85          85
                86          86
                87          87
                88          88
                89          89
                90          90
                91          91
                92          92
                93          93
                94          94
                95          95
                96          96
                97          97
                98          98
                99          99
               100         100
               101         101
               102         102
               103         103
               104         104
               105         105
               106         106
               107         107
               108         108
               109         109
               110         110
               111         111
               112         112
               113         113
               114         114
               115         115
               116         116
               117         117
               118         118
               119         119
               120         120
               121         121
               122         122
               123         123
               124         124
               125         125
               126         126
               127         127
               128         128
               129         129
               130         130
               131         131
               132         132
               133         133
               134         134
               135         135
               136         136
               137         137
               138         138
               139         139
               140         140
               141         141
               142         142
               143         143
               144         144
               145         145
               146         146
               147         147
               148         148
               149         149
               150         150
               151         151
               152         152
               153         153
               154         154
               155         155
               156         156
               157         157
               158         158
               159         159
               160         160
               161         161
               162         162
               163         163
               164         164
               165         165
               166         166
               167         167
               168         168
               169         169
               170         170
               171         171
               172         172
               173         173
               174         174
               175         175
               176         176
               177         177
               178         178
               179         179
               180         180
               181         181
               182         182
               183         183
               184         184
               185         185
               186         186
               187         187
               188         188
               189         189
               190         190
               191         191
               192         192
               193         193
               194         194
               195         195
               196         196
               197         197
               198         198
               199         199
               200         200
               201         201
               202         202
               203         203
               204         204
               205         205
               206         206
               207         207
               208         208
               209         209
               210         210
               211         211
               212         212
               213         213
               214         214
               215         215
               216         216
               217         217
               218         218
               219         219
               220         220
               221         221
               222         222
               223         223
               224         224
               225         225
               226         226
               227         227
               228         228
               229         229
               230         230
               231         231
               232         232
               233         233
               234         234
               235         235
               236         236
               237         237
               238         238
               239         239
               240         240
               241         241
               242         242
               243         243
               244         244
               245         245
               246         246
               247         247
               248         248
               249         249
               250         250
               251         251
               252         252
               253         253
               254         254
               255         255
               256         256
               257         257
               258         258
               259         259
               260         260
               261         261
               262         262
               263         263
               264         264
               265         265
               266         266
               267         267
               268         268
               269         269
               270         270
               271         271
               272         272
               273         273
               274         274
               275         275
               276         276
               277         277
               278         278
               279         279
               280         280
               281         281
               282         282
               283         283
               284         284
               285         285
               286         286
               287         287
               288         288
               289         289
               290         290
               291         291
               292         292
               293         293
               294         294
               295         295
               296         296
               297         297
               298         298
               299         299
               300         300
               301         301
               302         302
               303         303
               304         304
               305         305
               306         306
               307         307
               308         308
               309         309
               310         310
               311         311
               312         312
               313         313
               314         314
               315         315
               316         316
               317         317
               318         318
               319         319
               320         320
               321         321
               322         322
               323         323
               324         324
               325         325

----------------------------------------------------------------------------------------

 
 
 KPOINTS: Automatic Mesh                          

Automatic generation of k-mesh.
 Grid dimensions read from file:
 generate k-points for:    3    3    1

 Generating k-lattice:

  Cartesian coordinates                     Fractional coordinates (reciprocal lattice)
     0.018456177  0.000005026 -0.000000000     0.333333333  0.000000000  0.000000000
     0.000000000  0.018454135  0.000000000     0.000000000  0.333333333  0.000000000
     0.000000000 -0.000000000  0.016003201     0.000000000  0.000000000  1.000000000

  Length of vectors
     0.018456178  0.018454135  0.016003201

  Shift w.r.t. Gamma in fractional coordinates (k-lattice)
     0.000000000  0.000000000  0.000000000

 
 Subroutine IBZKPT returns following result:
 ===========================================
 
 Found      5 irreducible k-points:
 
 Following reciprocal coordinates:
            Coordinates               Weight
  0.000000  0.000000  0.000000      1.000000
  0.333333  0.000000  0.000000      2.000000
  0.000000  0.333333  0.000000      2.000000
  0.333333  0.333333  0.000000      2.000000
 -0.333333  0.333333  0.000000      2.000000
 
 Following cartesian coordinates:
            Coordinates               Weight
  0.000000  0.000000  0.000000      1.000000
  0.018456  0.000005  0.000000      2.000000
  0.000000  0.018454  0.000000      2.000000
  0.018456  0.018459  0.000000      2.000000
 -0.018456  0.018449  0.000000      2.000000
 


--------------------------------------------------------------------------------------------------------




 Dimension of arrays:
   k-points           NKPTS =      5   k-points in BZ     NKDIM =      5   number of bands    NBANDS=    732
   number of dos      NEDOS =    301   number of ions     NIONS =    325
   non local maximal  LDIM  =      5   non local SUM 2l+1 LMDIM =     13
   total plane-waves  NPLWV = ******
   max r-space proj   IRMAX =   3336   max aug-charges    IRDMAX=  19845
   dimension x,y,z NGX =   100 NGY =  100 NGZ =  350
   dimension x,y,z NGXF=   200 NGYF=  200 NGZF=  700
   support grid    NGXF=   200 NGYF=  200 NGZF=  700
   ions per type =             143  39  47  72  24
   NGX,Y,Z   is equivalent  to a cutoff of   9.20,  9.20,  9.31 a.u.
   NGXF,Y,Z  is equivalent  to a cutoff of  18.41, 18.41, 18.62 a.u.

 SYSTEM =  PSC                                     
 POSCAR =   H  C  N  I Pb                          

 Startparameter for this run:
   NWRITE =      2    write-flag & timer
   PREC   = normal    normal or accurate (medium, high low for compatibility)
   ISTART =      0    job   : 0-new  1-cont  2-samecut
   ICHARG =      1    charge: 1-file 2-atom 10-const
   ISPIN  =      1    spin polarized calculation?
   LNONCOLLINEAR =      F non collinear calculations
   LSORBIT =      F    spin-orbit coupling
   INIWAV =      1    electr: 0-lowe 1-rand  2-diag
   LASPH  =      F    aspherical Exc in radial PAW
 Electronic Relaxation 1
   ENCUT  =  500.0 eV  36.75 Ry    6.06 a.u.  32.93 32.93113.93*2*pi/ulx,y,z
   ENINI  =  500.0     initial cutoff
   ENAUG  =  644.9 eV  augmentation charge cutoff
   NELM   =    600;   NELMIN=  2; NELMDL=  0     # of ELM steps 
   EDIFF  = 0.1E-03   stopping-criterion for ELM
   LREAL  =      T    real-space projection
   NLSPLINE    = F    spline interpolate recip. space projectors
   LCOMPAT=      F    compatible to vasp.4.4
   GGA_COMPAT  = F    GGA compatible to vasp.4.4-vasp.4.6
   LMAXPAW     = -100 max onsite density
   LMAXMIX     =    2 max onsite mixed and CHGCAR
   VOSKOWN=      0    Vosko Wilk Nusair interpolation
   ROPT   =   -0.00050  -0.00050  -0.00050  -0.00050
   ROPT   =   -0.00050
 Ionic relaxation
   EDIFFG = 0.1E-02   stopping-criterion for IOM
   NSW    =      0    number of steps for IOM
   NBLOCK =      1;   KBLOCK =      1    inner block; outer block 
   IBRION =     -1    ionic relax: 0-MD 1-quasi-New 2-CG
   NFREE  =      0    steps in history (QN), initial steepest desc. (CG)
   ISIF   =      2    stress and relaxation
   IWAVPR =     10    prediction:  0-non 1-charg 2-wave 3-comb
   ISYM   =      0    0-nonsym 1-usesym 2-fastsym
   LCORR  =      T    Harris-Foulkes like correction to forces

   POTIM  = 0.5000    time-step for ionic-motion
   TEIN   =    0.0    initial temperature
   TEBEG  =    0.0;   TEEND  =   0.0 temperature during run
   SMASS  =  -3.00    Nose mass-parameter (am)
   estimated Nose-frequenzy (Omega)   =  0.10E-29 period in steps = 0.13E+47 mass=  -0.745E-26a.u.
   SCALEE = 1.0000    scale energy and forces
   NPACO  =    256;   APACO  = 16.0  distance and # of slots for P.C.
   PSTRESS=    0.0 pullay stress

  Mass of Ions in am
   POMASS =   1.00 12.01 14.00126.90207.20
  Ionic Valenz
   ZVAL   =   1.00  4.00  5.00  7.00  4.00
  Atomic Wigner-Seitz radii
   RWIGS  =  -1.00 -1.00 -1.00 -1.00 -1.00
  virtual crystal weights 
   VCA    =   1.00  1.00  1.00  1.00  1.00
   NELECT =    1134.0000    total number of electrons
   NUPDOWN=      -1.0000    fix difference up-down

 DOS related values:
   EMIN   =  10.00;   EMAX   =-10.00  energy-range for DOS
   EFERMI =   0.00
   ISMEAR =     0;   SIGMA  =   0.05  broadening in eV -4-tet -1-fermi 0-gaus

 Electronic relaxation 2 (details)
   IALGO  =     38    algorithm
   LDIAG  =      T    sub-space diagonalisation (order eigenvalues)
   LSUBROT=      F    optimize rotation matrix (better conditioning)
   TURBO    =      0    0=normal 1=particle mesh
   IRESTART =      0    0=no restart 2=restart with 2 vectors
   NREBOOT  =      0    no. of reboots
   NMIN     =      0    reboot dimension
   EREF     =   0.00    reference energy to select bands
   IMIX   =      4    mixing-type and parameters
     AMIX     =   0.40;   BMIX     =  0.01
     AMIX_MAG =   1.60;   BMIX_MAG =  0.01
     AMIN     =   0.01
     WC   =   100.;   INIMIX=   1;  MIXPRE=   1;  MAXMIX= -45

 Intra band minimization:
   WEIMIN = 0.0000     energy-eigenvalue tresh-hold
   EBREAK =  0.34E-07  absolut break condition
   DEPER  =   0.30     relativ break condition  

   TIME   =   0.40     timestep for ELM

  volume/ion in A,a.u.               =      62.72       423.28
  Fermi-wavevector in a.u.,A,eV,Ry     =   0.624944  1.180972  5.313816  0.390554
  Thomas-Fermi vector in A             =   1.685677
 
 Write flags
   LWAVE        =      F    write WAVECAR
   LDOWNSAMPLE  =      F    k-point downsampling of WAVECAR
   LCHARG       =      T    write CHGCAR
   LVTOT        =      T    write LOCPOT, total local potential
   LVHAR        =      F    write LOCPOT, Hartree potential only
   LELF         =      F    write electronic localiz. function (ELF)
   LORBIT       =      0    0 simple, 1 ext, 2 COOP (PROOUT), +10 PAW based schemes


 Dipole corrections
   LMONO  =      F    monopole corrections only (constant potential shift)
   LDIPOL =      T    correct potential (dipole corrections)
   IDIPOL =      3    1-x, 2-y, 3-z, 4-all directions 
   EPSILON=  1.0000000 bulk dielectric constant

 Exchange correlation treatment:
   GGA     =    --    GGA type
   LEXCH   =     8    internal setting for exchange type
   VOSKOWN=      0    Vosko Wilk Nusair interpolation
   LHFCALC =     F    Hartree Fock is set to
   LHFONE  =     F    Hartree Fock one center treatment
   AEXX    =    0.0000 exact exchange contribution

 Linear response parameters
   LEPSILON=     F    determine dielectric tensor
   LRPA    =     F    only Hartree local field effects (RPA)
   LNABLA  =     F    use nabla operator in PAW spheres
   LVEL    =     F    velocity operator in full k-point grid
   LINTERFAST=   F  fast interpolation
   KINTER  =     0    interpolate to denser k-point grid
   CSHIFT  =0.1000    complex shift for real part using Kramers Kronig
   OMEGAMAX=  -1.0    maximum frequency
   DEG_THRESHOLD= 0.2000000E-02 threshold for treating states as degnerate
   RTIME   =   -0.100 relaxation time in fs
  (WPLASMAI=    0.000 imaginary part of plasma frequency in eV, 0.658/RTIME)
   DFIELD  = 0.0000000 0.0000000 0.0000000 field for delta impulse in time
 
 Orbital magnetization related:
   ORBITALMAG=     F  switch on orbital magnetization
   LCHIMAG   =     F  perturbation theory with respect to B field
   DQ        =  0.001000  dq finite difference perturbation B field
   LLRAUG    =     F  two centre corrections for induced B field



--------------------------------------------------------------------------------------------------------


 Static calculation
 charge density and potential will be updated during run
 non-spin polarized calculation
 Variant of blocked Davidson
 Davidson routine will perform the subspace rotation
 perform sub-space diagonalisation
    after iterative eigenvector-optimisation
 modified Broyden-mixing scheme, WC =      100.0
 initial mixing is a Kerker type mixing with AMIX =  0.4000 and BMIX =      0.0100
 Hartree-type preconditioning will be used
 using additional bands           165
 real space projection scheme for non local part
[...]
     13.54561      0.00000     45.35368        -0.000557     -0.003463      0.014292
     13.54315      9.03140     45.35368        -0.002952      0.007861      0.012093
     12.94030      7.97984     33.91841        -0.028378      0.064754      0.157441
     13.28454      9.05201     32.58334         0.289903     -0.052837      0.449295
     11.75601      9.81646     35.06549        -0.056084      0.140097      0.017296
     12.52954     11.41670     35.06736        -0.002411      0.427290      0.204894
     15.14921      9.09941     35.91620        -0.110849      0.115040     -0.037883
     13.93311     10.26937     36.52094         0.211470      0.118621      0.049031
     15.61711     10.06927     33.52069         0.045414      0.052497      0.158779
     14.37561     11.17423     33.03555        -0.219595      0.471511     -0.369446
     15.61580      8.59144     32.58791         0.167061     -0.196773      0.054951
     15.65082      7.89708     34.21691        -0.145288     -0.012102     -0.182789
     15.91199      6.16083     32.56825        -0.146933     -0.008706      0.066825
     14.35095      5.92435     33.37365        -0.100702     -0.037945     -0.204274
     11.34447      9.86936     32.71428        -0.048456     -0.203406     -0.112431
     12.46204     11.23013     32.45721         0.263025      0.284769     -0.366589
     10.95143     11.46711     33.31025         0.032801      0.061460     -0.011050
     13.57112      8.11334     37.42890        -0.237413     -0.156195      0.116093
     13.36696      7.31313     35.87141        -0.037251      0.091998      0.048348
     12.12514      8.49221     36.43295         0.591395     -0.076023      0.000531
     15.01237     12.32147     35.49664        -0.197408     -0.036762     -0.026830
     15.90661     12.53753     34.00544         0.028329      0.292531     -0.048414
     16.48181     11.36989     35.17047         0.161720     -0.222315      0.329054
     14.90585      7.13987     30.58669         0.308855      0.147611     -0.269742
     14.27721      5.52746     30.87458         0.163210     -0.347806     -0.044229
     12.01362      5.71094     32.58647         0.244207     -0.019584     -0.013840
     13.35007      8.53227     29.64676         0.406951      0.278168     -0.302949
      9.76077      6.69799     32.49474         0.112429     -0.102410      0.002790
     11.09555      9.52850     29.56546        -0.052342      0.382847     -0.339049
      9.26847      8.59262     31.01380        -0.658846      0.359332     -0.039908
     18.04986      4.42069     34.77570        -0.361658      0.061008     -0.001866
      0.51542     13.97811     35.05334        -0.307336      0.339068     -0.029170
      8.57073      4.16231     34.88151         0.216131     -0.434758     -0.340742
      8.86823     13.73056     34.81224        -0.351498      0.652305      1.248500
      4.33514      9.26062     34.91284        -0.076115     -0.278468      0.244186
      4.58502     17.81684     34.81869         0.603789      0.265261      0.295402
     13.87899     17.73240     35.13697        -0.533912     -0.280006      0.295601
      0.08416      4.50833     40.69985        -0.135847      0.190356     -1.154032
      0.23219     13.79470     40.74330         0.109049      0.520614     -1.309423
      8.90231      4.40450     40.70663        -0.815289      0.835965     -0.540464
      9.00150     13.64664     40.70150        -1.011286      1.010165     -0.788076
      4.52291      9.02217     40.62502         0.779733      0.800357     -0.240863
      4.54040     18.04002     40.59901         1.513249      1.486151     -0.324367
     13.53080      9.33230     40.66632         0.691688      0.860540     -0.947490
     13.59552      0.00807     40.64906         1.415576      1.241371     -0.083270
      9.02897      4.51561     46.44552         0.012732      0.004131      0.040754
      9.02651     13.54701     46.44552         0.019452     -0.005103      0.060979
     18.05937      4.51561     46.44552         0.010722      0.006479      0.052968
     18.05691     13.54701     46.44552         0.026422     -0.008929      0.037087
      4.51521      0.00002     46.44421        -0.003143     -0.004050      0.061465
      4.51275      9.03142     46.44421        -0.002327     -0.000359      0.054781
     13.54561      0.00002     46.44421         0.005427      0.005746      0.053656
     13.54315      9.03142     46.44421        -0.010915     -0.008225      0.041293
     12.85803      7.07288     31.11603         0.638372     -0.165203      0.358546
     11.84916      6.54619     31.90301        -1.218951     -0.191380      0.286813
     12.56644      8.13978     30.27151        -0.208640      0.008803     -0.101830
     10.55348      7.08466     31.84920        -0.168585      0.263814      0.031518
     11.29589      8.69214     30.21323        -0.961044     -0.329825      0.554992
     10.25260      8.17774     31.02397         1.599510     -0.506481     -0.318711
     13.69088      8.68500     33.54694         0.224472     -0.895954     -0.883542
     12.39908     10.50193     34.50097        -0.152198     -0.165089      0.115834
     14.08664      9.38586     35.89182        -0.160235      0.199308     -0.174907
     14.85491     10.74895     33.90434        -0.070831     -0.077368      0.019511
     15.04525      7.96754     33.29324        -0.442296      0.249632     -0.138671
     14.89042      6.57721     32.67081         0.059421      0.082996     -0.254772
     11.77806     10.76394     33.15309        -0.348616      0.117099      0.277694
     13.21384      8.26450     36.40375        -0.180911     -0.031149      0.060802
     15.58156     11.79066     34.73184        -0.226198     -0.122673     -0.029784
     14.26824      6.55368     31.24656        -0.081738      0.072769      0.425211
      1.12068      4.05345     35.32671        -1.153225      0.156816      0.141043
      0.96191     12.85766     35.55322         0.073698     -0.181201     -0.094967
      9.77753      3.86981     35.30282         0.192344      0.091696     -0.199678
      9.04067     12.80032     35.72386        -0.073552      0.132111     -0.194250
      7.81304      5.07911     35.41192        -0.361269      0.086901     -0.237667
      8.40833     14.94475     35.07263         0.612743     -0.572510     -1.999777
     16.92233      4.68814     35.41472         0.334556      0.023658     -0.286411
     17.66112     14.74246     35.60802        -0.266326     -0.351145      1.000072
      4.09616      8.10248     35.46995        -0.385234     -0.595810     -0.219524
      3.36354     17.66189     35.23534        -0.265637      0.272110      0.540732
     12.67476     17.35891     35.51959         0.326531      0.157905     -0.275702
      5.51577      0.44954     35.43427         0.224045      0.039197     -0.147194
      5.08288     10.19440     35.42323         0.447578     -0.051607      0.500228
     14.53895      0.67576     35.63346        -0.380455      0.676457      0.557691
      0.99344      3.64490     41.04523         0.634172     -0.571010     -0.709380
      0.92149     12.89396     41.37157         1.022478     -1.018837      0.230444
      9.79522      3.64962     41.26151         0.903136     -0.903701      0.079116
      9.67229     12.90448     41.53547         0.571397     -0.507799     -1.042645
      3.80123      8.08070     41.16574        -0.133552     -0.073036     -1.147464
      3.75524     17.28465     41.28945        -1.437844     -1.449307     -1.136223
     12.76817      8.53724     41.35071        -0.101114     -0.089384     -0.030859
     12.68297     17.32351     41.18123        -1.387056     -1.314020     -1.433701
      8.18728      5.34438     41.30582         0.200758     -0.633001     -1.310714
      8.07355     14.54095     41.01874         0.855123     -0.733483     -1.204466
     17.35330      5.18069     41.49186        -0.298435      0.208082      0.201579
     17.25503     14.44451     41.19100        -0.079227     -0.124819      0.623065
      5.41059      0.85669     41.09808        -0.571450     -0.578345     -1.376757
      5.28191      9.90126     41.27183        -1.111619     -1.304000     -0.855862
     14.42406      0.80876     41.31237        -0.398724     -0.528671     -1.558623
     14.74809      9.72381     40.97710        -1.006306     -0.141659     -0.561729
      0.82731      3.68697     47.03596         0.019457     -0.024265     -0.096491
      0.82485     12.71837     47.03596         0.012461     -0.012987     -0.086646
      9.85771      3.68697     47.03596         0.017886     -0.025315     -0.091661
      9.85525     12.71837     47.03596         0.014953     -0.010428     -0.090382
      3.68432      8.20234     47.03465        -0.007515     -0.010563     -0.076102
      3.68186     17.23373     47.03465        -0.008382     -0.005051     -0.075595
     12.71472      8.20234     47.03465        -0.004839     -0.006903     -0.072275
     12.71226     17.23373     47.03465        -0.013756     -0.015237     -0.077404
      8.20068      5.34457     47.03603        -0.022968      0.016855     -0.093857
      8.19822     14.37597     47.03603        -0.021430      0.023016     -0.097729
     17.23108      5.34457     47.03603        -0.020410      0.017999     -0.109497
     17.22862     14.37597     47.03603        -0.028828      0.025427     -0.083621
      5.34365      0.82909     47.03465         0.010016      0.009891     -0.070876
      5.34119      9.86049     47.03465         0.010914      0.011329     -0.076408
     14.37405      0.82909     47.03465         0.008636      0.005060     -0.078135
     14.37159      9.86049     47.03465         0.015000      0.019040     -0.067533
     13.75461      9.84643     34.47759         0.864411     -0.210934      0.071696
      8.93133      0.33279     34.43050         0.020816     -0.006487      0.053930
      8.70505      9.34658     34.73618         0.024104     -0.051291      0.028948
     17.89351      0.05907     34.52271         0.005845      0.022235      0.009844
      0.59939      9.09277     34.63088        -0.115949      0.059858      0.002764
      4.48595      4.42248     34.43016         0.010578      0.027443      0.125451
      4.64857     13.64189     34.53929        -0.069324      0.041857     -0.054440
     13.42176      3.88437     34.90396        -0.058995      0.077157     -0.182831
     12.87033     14.22047     34.16458        -0.063847     -0.021112      0.329130
      0.07544      0.01707     40.90091         0.029069      0.007665      0.033044
      0.20941      8.87265     40.96189         0.035310      0.033156      0.012414
      8.97577      0.05410     40.87938         0.064839     -0.009365      0.022901
      9.11743      8.85173     40.96502         0.015595      0.018020     -0.003734
      4.57134      4.46337     40.90994         0.001511     -0.017571     -0.099514
      4.50422     13.63367     40.91292         0.006153      0.007779     -0.004309
     13.38343      4.58125     40.99894         0.013820      0.037216      0.056432
     13.59569     13.65158     40.81255        -0.031487     -0.041594      0.044081
      2.59287      1.94793     37.96230        -0.054455      0.056234     -0.008781
      2.63234     11.07303     38.19988        -0.075015     -0.050800     -0.035523
     11.66489      1.90487     38.17685        -0.020348      0.021457     -0.034093
     11.18184     11.41311     38.46235         0.117113     -0.115002     -0.263893
      6.39590      7.10294     38.11686         0.096698      0.026084     -0.011107
      6.64655     16.03143     38.04982        -0.010841     -0.023042     -0.099706
     15.94116      6.70219     38.35936        -0.015943      0.052993     -0.122138
     15.54672     16.05501     38.16078         0.063566     -0.022933     -0.065512
      2.00627      6.40911     38.06264         0.140437     -0.010656     -0.017531
      2.17117     15.80817     38.03696         0.006510     -0.075681      0.031987
     10.61464      6.18987     37.92582        -0.031407     -0.007513      0.002795
     11.01021     15.61739     38.13376         0.059326     -0.072492      0.013455
      7.00632      2.45386     38.05980        -0.079195      0.050788     -0.012737
      6.90944     11.41341     38.31663        -0.048563      0.122941     -0.009537
     15.97247      2.54644     38.33207         0.099114     -0.044253     -0.019573
     16.52765     11.77189     38.56046        -0.217673     -0.028001     -0.454541
      0.00000      0.00000     47.17356        -0.000467      0.002899      0.388717
     -0.00246      9.03140     47.17356        -0.000416     -0.003649      0.499939
      9.03040      0.00000     47.17356         0.000223     -0.001309      0.392774
      9.02794      9.03140     47.17356        -0.001907      0.000315      0.485358
      4.51398      4.51570     47.17425         0.000518     -0.003312      0.404997
      4.51152     13.54710     47.17425         0.002627      0.002587      0.449250
     13.54438      4.51570     47.17425         0.002806     -0.001654      0.508589
     13.54192     13.54710     47.17425        -0.000158      0.002618      0.299184
      2.45192      2.06295     44.04013         0.007518     -0.009768     -0.022443
      2.44946     11.09435     44.04013         0.046163     -0.032667      0.041813
     11.48232      2.06295     44.04013         0.024884     -0.045790      0.014354
     11.47986     11.09435     44.04013         0.028918      0.014101      0.031145
      6.57602      6.96845     44.04013        -0.066668      0.044305      0.034660
      6.57356     15.99985     44.04013         0.002633      0.024708     -0.002599
     15.60642      6.96845     44.04013        -0.081548      0.079103     -0.019023
     15.60396     15.99985     44.04013        -0.026419      0.019278      0.007399
      2.06108      6.57881     44.04000         0.044076     -0.062815      0.028322
      2.05862     15.61021     44.04000        -0.006187      0.032902      0.025683
     11.09148      6.57881     44.04000        -0.022888     -0.031994      0.014386
     11.08902     15.61021     44.04000        -0.008425      0.018620     -0.020944
      6.96686      2.45259     44.04007         0.003745     -0.008903      0.010635
      6.96440     11.48399     44.04007         0.027615      0.033158      0.005403
     15.99726      2.45259     44.04007         0.062180      0.041659      0.042521
     15.99481     11.48399     44.04007         0.030370      0.036276     -0.067912
      2.43163      2.08322     50.06849         0.006254     -0.014063      0.020435
      2.42917     11.11462     50.06849         0.014244     -0.005182      0.022439
     11.46203      2.08322     50.06849        -0.000190     -0.021819      0.021150
     11.45957     11.11462     50.06849         0.024400      0.005522      0.022055
      6.59631      6.94818     50.06849        -0.016657      0.003496      0.022298
      6.59385     15.97958     50.06849        -0.003776      0.016465      0.020987
     15.62671      6.94818     50.06849        -0.009040      0.009324      0.021052
     15.62425     15.97958     50.06849        -0.015703      0.006616      0.021248
      2.08113      6.59901     50.06905        -0.003256     -0.018016      0.022214
      2.07867     15.63041     50.06905        -0.016307     -0.003024      0.021924
     11.11153      6.59901     50.06905        -0.011301     -0.009039      0.023014
     11.10907     15.63041     50.06905        -0.004654     -0.015142      0.020758
      6.94681      2.43239     50.06905         0.013518      0.005680      0.021854
      6.94435     11.46379     50.06905         0.006659      0.014403      0.022696
     15.97721      2.43239     50.06905         0.020760     -0.001838      0.021111
     15.97475     11.46379     50.06905        -0.005392      0.026374      0.022727
     17.93749      0.09117     37.78878         0.008907      0.037523      0.019296
      0.12611      9.11072     37.76359         0.001612      0.011732      0.083533
      9.08062      0.15462     37.69123        -0.019215     -0.053740      0.029492
      9.00599      9.07419     37.82214        -0.008558     -0.029146     -0.105742
      4.53753      4.55091     37.73790        -0.124413     -0.037869     -0.000019
      4.49152     13.61401     37.68851         0.026637      0.059108      0.081456
     13.44733      4.62553     37.92471         0.022765      0.028309     -0.019134
     13.39767     13.68851     37.67207        -0.070641      0.051500      0.001608
      0.00001      0.00001     44.04300        -0.009743     -0.052247      0.120376
     -0.00245      9.03141     44.04300         0.075925      0.022115      0.072806
      9.03041      0.00001     44.04300        -0.020707      0.025828      0.037484
      9.02795      9.03141     44.04300         0.039900      0.033656      0.216178
      4.51397      4.51569     44.04275         0.011800      0.015918      0.131164
      4.51151     13.54709     44.04275        -0.043831     -0.006737      0.053548
     13.54437      4.51569     44.04275        -0.022352      0.007806      0.236442
     13.54191     13.54709     44.04275        -0.026082     -0.051519      0.002563
      0.00000      0.00000     50.44728         0.002528      0.006585     -0.620340
     -0.00246      9.03140     50.44728         0.001638     -0.007008     -0.650961
      9.03040      0.00000     50.44728        -0.002310      0.008579     -0.621405
      9.02794      9.03140     50.44728        -0.002046     -0.007865     -0.648835
      4.51397      4.51570     50.44728        -0.000136      0.012424     -0.625247
      4.51151     13.54710     50.44728        -0.000057     -0.012446     -0.638506
     13.54437      4.51570     50.44728        -0.001775      0.012881     -0.651887
     13.54191     13.54710     50.44728         0.001494     -0.012967     -0.598537
 -----------------------------------------------------------------------------------
    total drift:                                0.030479     -0.009224      0.175556


--------------------------------------------------------------------------------------------------------



  FREE ENERGIE OF THE ION-ELECTRON SYSTEM (eV)
  ---------------------------------------------------
  free  energy   TOTEN  =     -1573.52965607 eV

  energy  without entropy=    -1573.52965607  energy(sigma->0) =    -1573.52965607
 


--------------------------------------------------------------------------------------------------------


    POTLOK:  cpu time    0.5121: real time    0.5127


--------------------------------------------------------------------------------------------------------


     LOOP+:  cpu time  305.3631: real time  306.0066
 vacuum level on the upper side and lower side of the slab         2.320         1.545
    4ORBIT:  cpu time    0.0000: real time    0.0000

 total amount of memory used by VASP MPI-rank0  8653583. kBytes
=======================================================================

   base      :      30000. kBytes
   nonlr-proj:      53621. kBytes
   fftplans  :     249280. kBytes
   grid      :     701440. kBytes
   one-center:       2636. kBytes
   wavefun   :    7616606. kBytes
 
  
  
 General timing and accounting informations for this job:
 ========================================================
  
                  Total CPU time used (sec):      517.165
                            User time (sec):      418.825
                          System time (sec):       98.340
                         Elapsed time (sec):      520.388
  
                   Maximum memory used (kb):    10307220.
                   Average memory used (kb):          N/A
  
                          Minor page faults:      3685415
                          Major page faults:           12
                 Voluntary context switches:        10935
