<?xml version="1.0" encoding="ISO-8859-1"?>
<modeling>
 <generator>
  <i name="program" type="string">vasp </i>
  <i name="version" type="string">6.2.1  </i>
  <i name="subversion" type="string">16May21 (build Nov 15 2021 14:57:28) complex                          parallel </i>
  <i name="platform" type="string">LinuxPGI </i>
  <i name="date" type="string">2023 07 30 </i>
  <i name="time" type="string">18:18:55 </i>
 </generator>
 <incar>
  <i type="string" name="SYSTEM">PSC</i>
  <i type="int" name="ISTART">     1</i>
  <i type="string" name="PREC">Normal</i>
  <i name="BMIX">      0.01000000</i>
  <i name="AMIN">      0.01000000</i>
  <i type="int" name="ICHARG">     1</i>
  <i type="int" name="NELM">   600</i>
  <i type="int" name="ISYM">     0</i>
  <i name="ENCUT">    500.00000000</i>
  <i type="string" name="LREAL">Auto</i>
  <i type="int" name="ISMEAR">     0</i>
  <i name="SIGMA">      0.05000000</i>
  <i type="logical" name="LWAVE"> F  </i>
  <i type="logical" name="LVTOT"> T  </i>
  <i type="logical" name="GGA_COMPAT"> F  </i>
  <i type="logical" name="LDIPOL"> T  </i>
  <i type="int" name="IDIPOL">     3</i>
  <i type="int" name="IVDW">    12</i>
 </incar>
 <primitive_cell>
  <structure name="primitive_cell" >
   <crystal>
    <varray name="basis" >
     <v>      18.06080055       0.00000000       0.00000000 </v>
     <v>      -0.00491865      18.06279945       0.00000000 </v>
     <v>       0.00000000       0.00000000      62.48749924 </v>
    </varray>
    <i name="volume">  20385.21054034 </i>
    <varray name="rec_basis" >
     <v>       0.05536853       0.00001508      -0.00000000 </v>
     <v>       0.00000000       0.05536240       0.00000000 </v>
     <v>       0.00000000      -0.00000000       0.01600320 </v>
    </varray>
   </crystal>
   <varray name="positions" >
    <v>       0.44885722       0.31037805       0.57956599 </v>
    <v>       0.44821497       0.84277953       0.57574998 </v>
    <v>       0.93171730       0.25862881       0.58312194 </v>
    <v>       0.95735386       0.80663454       0.58539064 </v>
    <v>       0.29778878       0.05286969       0.58105830 </v>
    <v>       0.30800024       0.55959984       0.58138105 </v>
    <v>       0.78298279       0.07146902       0.58166218 </v>
    <v>       0.10810264       0.21735171       0.55656988 </v>
    <v>       0.09100623       0.68115462       0.56083208 </v>
    <v>       0.57447751       0.17725923       0.55712980 </v>
    <v>       0.51188693       0.65518470       0.56708248 </v>
    <v>       0.35894647       0.02597132       0.56125075 </v>
    <v>       0.28919243       0.61300203       0.55912966 </v>
    <v>       0.85514708       0.05173413       0.56453033 </v>
    <v>       0.06678548       0.21667051       0.58126305 </v>
    <v>       0.03674643       0.69148206       0.58331638 </v>
    <v>       0.56442193       0.24535948       0.57700426 </v>
    <v>       0.48607753       0.71690537       0.58729740 </v>
    <v>       0.24689765       0.43301038       0.58214988 </v>
    <v>       0.16794614       0.00024404       0.57796667 </v>
    <v>       0.67378207       0.98664140       0.58039795 </v>
    <v>       0.37838524       0.28469604       0.56207971 </v>
    <v>       0.46326805       0.86586923       0.54904823 </v>
    <v>       0.88904576       0.27050198       0.55855593 </v>
    <v>       0.96710945       0.86760944       0.56354027 </v>
    <v>       0.19292050       0.41094722       0.56040017 </v>
    <v>       0.14938436       0.94919140       0.55534411 </v>
    <v>       0.68149204       0.91243044       0.56245997 </v>
    <v>       0.45166125       0.20005654       0.54466253 </v>
    <v>       0.50532523       0.74743158       0.54096935 </v>
    <v>       0.99996349       0.24907976       0.53905362 </v>
    <v>       0.05148394       0.79130737       0.54559228 </v>
    <v>       0.21355363       0.52314593       0.54364609 </v>
    <v>       0.26992391       0.95877369       0.54264113 </v>
    <v>       0.79688832       0.94964364       0.55018414 </v>
    <v>       0.45778246       0.30831559       0.67656067 </v>
    <v>       0.43179489       0.81537446       0.67149496 </v>
    <v>       0.96300378       0.28131593       0.68029329 </v>
    <v>       0.93571595       0.79269579       0.67431627 </v>
    <v>       0.30604510       0.05611009       0.67336985 </v>
    <v>       0.29691780       0.54919056       0.67635910 </v>
    <v>       0.79801466       0.05060111       0.67695510 </v>
    <v>       0.83970421       0.52383378       0.66964950 </v>
    <v>       0.08613433       0.17569878       0.64507348 </v>
    <v>       0.09602243       0.68910020       0.65459516 </v>
    <v>       0.56999990       0.16259228       0.65126783 </v>
    <v>       0.57353488       0.67754342       0.65847087 </v>
    <v>       0.18018172       0.41319598       0.64910322 </v>
    <v>       0.17322696       0.92069917       0.65253060 </v>
    <v>       0.65443541       0.46216944       0.65721330 </v>
    <v>       0.66899999       0.92680608       0.64894126 </v>
    <v>       0.06568015       0.18707476       0.67211136 </v>
    <v>       0.04238112       0.69603993       0.67738457 </v>
    <v>       0.55608868       0.20478875       0.67612986 </v>
    <v>       0.52892566       0.71772210       0.68048437 </v>
    <v>       0.20658442       0.43920883       0.67447353 </v>
    <v>       0.20356347       0.95525800       0.67667282 </v>
    <v>       0.72278799       0.45138250       0.67578006 </v>
    <v>       0.69100797       0.95486381       0.67461931 </v>
    <v>       0.41594663       0.32494840       0.65212409 </v>
    <v>       0.42162719       0.83385788       0.64424739 </v>
    <v>       0.92351022       0.32326666       0.65735041 </v>
    <v>       0.92990689       0.83733899       0.64981564 </v>
    <v>       0.33158635       0.07819300       0.64739322 </v>
    <v>       0.32132055       0.58519390       0.65195425 </v>
    <v>       0.83691295       0.07437516       0.65259268 </v>
    <v>       0.84445511       0.57193671       0.64530168 </v>
    <v>       0.99963857       0.25920517       0.63396103 </v>
    <v>       0.03197982       0.77839743       0.63567738 </v>
    <v>       0.48347276       0.23521094       0.63428018 </v>
    <v>       0.50985122       0.74989881       0.63405651 </v>
    <v>       0.25064864       0.99536356       0.63220799 </v>
    <v>       0.25083419       0.50410645       0.63259870 </v>
    <v>       0.76009542       0.00034824       0.63313323 </v>
    <v>       0.72798813       0.53999019       0.63580075 </v>
    <v>       0.44874502       0.30128397       0.76888902 </v>
    <v>       0.44874501       0.80128391       0.76888902 </v>
    <v>       0.94874497       0.30128397       0.76888902 </v>
    <v>       0.94874501       0.80128391       0.76888902 </v>
    <v>       0.30127600       0.05129450       0.76887296 </v>
    <v>       0.30127601       0.55129450       0.76887296 </v>
    <v>       0.80127594       0.05129450       0.76887296 </v>
    <v>       0.80127598       0.55129450       0.76887296 </v>
    <v>       0.07877100       0.17118050       0.74344197 </v>
    <v>       0.07877101       0.67118045       0.74344197 </v>
    <v>       0.57877100       0.17118050       0.74344197 </v>
    <v>       0.57877099       0.67118045       0.74344197 </v>
    <v>       0.17119950       0.42117448       0.74342103 </v>
    <v>       0.17119950       0.92117451       0.74342103 </v>
    <v>       0.67119951       0.42117448       0.74342103 </v>
    <v>       0.67119950       0.92117451       0.74342103 </v>
    <v>       0.05125600       0.19871499       0.76888902 </v>
    <v>       0.05125600       0.69871493       0.76888902 </v>
    <v>       0.55125603       0.19871499       0.76888902 </v>
    <v>       0.55125602       0.69871493       0.76888902 </v>
    <v>       0.19872349       0.44870397       0.76887205 </v>
    <v>       0.19872349       0.94870397       0.76887205 </v>
    <v>       0.69872352       0.44870397       0.76887205 </v>
    <v>       0.69872351       0.94870397       0.76887205 </v>
    <v>       0.42123152       0.32881747       0.74344197 </v>
    <v>       0.42123151       0.82881744       0.74344197 </v>
    <v>       0.92123147       0.32881747       0.74344197 </v>
    <v>       0.92123151       0.82881744       0.74344197 </v>
    <v>       0.32880050       0.07882500       0.74342103 </v>
    <v>       0.32880049       0.57882496       0.74342103 </v>
    <v>       0.82880048       0.07882500       0.74342103 </v>
    <v>       0.82880052       0.57882496       0.74342103 </v>
    <v>       0.00000350       0.25000148       0.72582199 </v>
    <v>       0.00000350       0.75000145       0.72582199 </v>
    <v>       0.50000351       0.25000148       0.72582199 </v>
    <v>       0.50000350       0.75000145       0.72582199 </v>
    <v>       0.25000050       0.00000000       0.72580398 </v>
    <v>       0.25000052       0.50000000       0.72580398 </v>
    <v>       0.75000050       0.00000000       0.72580398 </v>
    <v>       0.75000049       0.50000000       0.72580398 </v>
    <v>       0.71660582       0.44178290       0.54280309 </v>
    <v>       0.73568212       0.50114091       0.52143773 </v>
    <v>       0.65106107       0.54346291       0.56116003 </v>
    <v>       0.69391463       0.63205577       0.56119006 </v>
    <v>       0.83892681       0.50376500       0.57477414 </v>
    <v>       0.77161053       0.56853712       0.58445186 </v>
    <v>       0.86484822       0.55745905       0.53643841 </v>
    <v>       0.79612512       0.61863237       0.52867459 </v>
    <v>       0.86475355       0.47564299       0.52151086 </v>
    <v>       0.86668202       0.43720159       0.54758010 </v>
    <v>       0.88111647       0.34107855       0.52119629 </v>
    <v>       0.79468041       0.32798617       0.53408528 </v>
    <v>       0.62827566       0.54639165       0.52353312 </v>
    <v>       0.69017443       0.62172685       0.51941932 </v>
    <v>       0.60653745       0.63484655       0.53307067 </v>
    <v>       0.75153522       0.44917424       0.59898217 </v>
    <v>       0.74021918       0.40487224       0.57405738 </v>
    <v>       0.67147940       0.47014908       0.58304380 </v>
    <v>       0.83139876       0.68214606       0.56805979 </v>
    <v>       0.88091480       0.69410780       0.54419582 </v>
    <v>       0.91274512       0.62946445       0.56284005 </v>
    <v>       0.82542264       0.39528064       0.48948502 </v>
    <v>       0.79059161       0.30601372       0.49409211 </v>
    <v>       0.66526236       0.31617110       0.52148785 </v>
    <v>       0.73930268       0.47236674       0.47444310 </v>
    <v>       0.54054048       0.37081693       0.52001978 </v>
    <v>       0.61448790       0.52752091       0.47314200 </v>
    <v>       0.51331096       0.47570788       0.49632013 </v>
    <v>       0.99946078       0.24474019       0.55652257 </v>
    <v>       0.02874896       0.77386190       0.56096565 </v>
    <v>       0.47461150       0.23043536       0.55821584 </v>
    <v>       0.49122815       0.76015667       0.55710722 </v>
    <v>       0.24016984       0.51269040       0.55871722 </v>
    <v>       0.25413461       0.98638310       0.55721045 </v>
    <v>       0.76872652       0.98170821       0.56230406 </v>
    <v>       0.00472771       0.24959201       0.65132791 </v>
    <v>       0.01306373       0.76370795       0.65202317 </v>
    <v>       0.49297447       0.24384360       0.65143639 </v>
    <v>       0.49860570       0.75551073       0.65135422 </v>
    <v>       0.25056308       0.49948924       0.65013040 </v>
    <v>       0.25166732       0.99873888       0.64971406 </v>
    <v>       0.74932133       0.51665863       0.65079124 </v>
    <v>       0.75276415       0.00044677       0.65051500 </v>
    <v>       0.49998898       0.24999498       0.74327702 </v>
    <v>       0.49998903       0.74999496       0.74327702 </v>
    <v>       0.99998898       0.24999498       0.74327702 </v>
    <v>       0.99998903       0.74999496       0.74327702 </v>
    <v>       0.25000050       0.00000100       0.74325596 </v>
    <v>       0.25000052       0.50000100       0.74325596 </v>
    <v>       0.75000050       0.00000100       0.74325596 </v>
    <v>       0.75000049       0.50000100       0.74325596 </v>
    <v>       0.71203679       0.39157187       0.49795604 </v>
    <v>       0.65616908       0.36241262       0.51055033 </v>
    <v>       0.69590803       0.45063769       0.48444101 </v>
    <v>       0.58443751       0.39222381       0.50968919 </v>
    <v>       0.62556794       0.48121780       0.48350842 </v>
    <v>       0.56779463       0.45273935       0.49648276 </v>
    <v>       0.75817464       0.48082229       0.53685842 </v>
    <v>       0.68667726       0.58141200       0.55212587 </v>
    <v>       0.78009799       0.51962385       0.57438405 </v>
    <v>       0.82265650       0.59508745       0.54257794 </v>
    <v>       0.83315357       0.44110224       0.53279834 </v>
    <v>       0.82455996       0.36412989       0.52283761 </v>
    <v>       0.65229591       0.59591764       0.53055552 </v>
    <v>       0.73175570       0.45754278       0.58257654 </v>
    <v>       0.86290571       0.65275933       0.55582058 </v>
    <v>       0.79011025       0.36282769       0.50004493 </v>
    <v>       0.06211130       0.22440887       0.56534049 </v>
    <v>       0.05345352       0.71183077       0.56896530 </v>
    <v>       0.54142581       0.21424173       0.56495809 </v>
    <v>       0.50076174       0.70865631       0.57169613 </v>
    <v>       0.43267309       0.28119193       0.56670411 </v>
    <v>       0.46578215       0.82737717       0.56127431 </v>
    <v>       0.93703540       0.25954675       0.56674892 </v>
    <v>       0.97809263       0.81617825       0.56984225 </v>
    <v>       0.22692034       0.44857277       0.56763276 </v>
    <v>       0.18650036       0.97780495       0.56387829 </v>
    <v>       0.70204437       0.96103122       0.56842711 </v>
    <v>       0.30540686       0.02488763       0.56706166 </v>
    <v>       0.28158544       0.56438632       0.56688499 </v>
    <v>       0.80501039       0.03741157       0.57024943 </v>
    <v>       0.05506038       0.20179021       0.65685501 </v>
    <v>       0.05121596       0.71384083       0.66207749 </v>
    <v>       0.54240204       0.20205173       0.66031628 </v>
    <v>       0.53573489       0.71442293       0.66470039 </v>
    <v>       0.21059037       0.44736703       0.65878356 </v>
    <v>       0.20818278       0.95691993       0.66076333 </v>
    <v>       0.70708329       0.47264224       0.66174375 </v>
    <v>       0.70249874       0.95907143       0.65903153 </v>
    <v>       0.45339834       0.29587756       0.66102540 </v>
    <v>       0.44724007       0.80502173       0.65643110 </v>
    <v>       0.96090480       0.28681536       0.66400262 </v>
    <v>       0.95560350       0.79968303       0.65918781 </v>
    <v>       0.29958953       0.04742841       0.65770076 </v>
    <v>       0.29260085       0.54815774       0.66048135 </v>
    <v>       0.79865147       0.04477479       0.66113010 </v>
    <v>       0.81672652       0.53833372       0.65576471 </v>
    <v>       0.04586250       0.20411950       0.75272599 </v>
    <v>       0.04586250       0.70411946       0.75272599 </v>
    <v>       0.54586251       0.20411950       0.75272599 </v>
    <v>       0.54586250       0.70411946       0.75272599 </v>
    <v>       0.20411900       0.45410100       0.75270499 </v>
    <v>       0.20411899       0.95410095       0.75270499 </v>
    <v>       0.70411898       0.45410100       0.75270499 </v>
    <v>       0.70411896       0.95410095       0.75270499 </v>
    <v>       0.45414002       0.29588849       0.75272697 </v>
    <v>       0.45414001       0.79588852       0.75272697 </v>
    <v>       0.95414002       0.29588849       0.75272697 </v>
    <v>       0.95414006       0.79588852       0.75272697 </v>
    <v>       0.29588249       0.04590050       0.75270499 </v>
    <v>       0.29588248       0.54590053       0.75270499 </v>
    <v>       0.79588244       0.04590050       0.75270499 </v>
    <v>       0.79588248       0.54590053       0.75270499 </v>
    <v>       0.76172101       0.54512218       0.55175184 </v>
    <v>       0.49451968       0.01842386       0.55099821 </v>
    <v>       0.48212662       0.51744901       0.55588999 </v>
    <v>       0.99073842       0.00327029       0.55247378 </v>
    <v>       0.03332435       0.50339753       0.55420490 </v>
    <v>       0.24844706       0.24483897       0.55099283 </v>
    <v>       0.25759015       0.75524759       0.55273922 </v>
    <v>       0.74320163       0.21504797       0.55857516 </v>
    <v>       0.71282577       0.78727943       0.54674259 </v>
    <v>       0.00417752       0.00094526       0.65454541 </v>
    <v>       0.01172834       0.49121151       0.65552143 </v>
    <v>       0.49697596       0.00299493       0.65420086 </v>
    <v>       0.50495221       0.49005302       0.65557149 </v>
    <v>       0.25317552       0.24710267       0.65469003 </v>
    <v>       0.24959737       0.75479269       0.65473771 </v>
    <v>       0.74109007       0.25362879       0.65611432 </v>
    <v>       0.75297899       0.75578428       0.65313137 </v>
    <v>       0.14359284       0.10784232       0.60751824 </v>
    <v>       0.14591600       0.61302974       0.61132039 </v>
    <v>       0.64589662       0.10545802       0.61095173 </v>
    <v>       0.61929392       0.63185698       0.61552063 </v>
    <v>       0.35423856       0.39323563       0.60999182 </v>
    <v>       0.36825122       0.88753825       0.60891891 </v>
    <v>       0.88273941       0.37104937       0.61387248 </v>
    <v>       0.86104115       0.88884394       0.61069466 </v>
    <v>       0.11118108       0.35482348       0.60912415 </v>
    <v>       0.12045296       0.87517826       0.60871306 </v>
    <v>       0.58781016       0.34268618       0.60693457 </v>
    <v>       0.60985442       0.86461645       0.61026220 </v>
    <v>       0.38796678       0.13585145       0.60907855 </v>
    <v>       0.38273742       0.63187388       0.61318875 </v>
    <v>       0.88441051       0.14097715       0.61343587 </v>
    <v>       0.91528935       0.65171995       0.61709077 </v>
    <v>       0.00000000       0.00000000       0.75492797 </v>
    <v>       0.00000000       0.50000000       0.75492797 </v>
    <v>       0.50000000       0.00000000       0.75492797 </v>
    <v>       0.49999999       0.50000000       0.75492797 </v>
    <v>       0.25000050       0.25000000       0.75493902 </v>
    <v>       0.25000051       0.74999997       0.75493902 </v>
    <v>       0.75000047       0.25000000       0.75493902 </v>
    <v>       0.75000046       0.74999997       0.75493902 </v>
    <v>       0.13579050       0.11421000       0.70478299 </v>
    <v>       0.13579050       0.61420998       0.70478299 </v>
    <v>       0.63579045       0.11421000       0.70478299 </v>
    <v>       0.63579049       0.61420998       0.70478299 </v>
    <v>       0.36420952       0.38578999       0.70478299 </v>
    <v>       0.36420950       0.88578996       0.70478299 </v>
    <v>       0.86420954       0.38578999       0.70478299 </v>
    <v>       0.86420953       0.88578996       0.70478299 </v>
    <v>       0.11421799       0.36421899       0.70478098 </v>
    <v>       0.11421799       0.86421899       0.70478098 </v>
    <v>       0.61421800       0.36421899       0.70478098 </v>
    <v>       0.61421799       0.86421899       0.70478098 </v>
    <v>       0.38578201       0.13578149       0.70478202 </v>
    <v>       0.38578200       0.63578149       0.70478202 </v>
    <v>       0.88578199       0.13578149       0.70478202 </v>
    <v>       0.88578203       0.63578149       0.70478202 </v>
    <v>       0.13466700       0.11533200       0.80125603 </v>
    <v>       0.13466699       0.61533199       0.80125603 </v>
    <v>       0.63466699       0.11533200       0.80125603 </v>
    <v>       0.63466698       0.61533199       0.80125603 </v>
    <v>       0.36533300       0.38466799       0.80125603 </v>
    <v>       0.36533299       0.88466796       0.80125603 </v>
    <v>       0.86533295       0.38466799       0.80125603 </v>
    <v>       0.86533294       0.88466796       0.80125603 </v>
    <v>       0.11532850       0.36533700       0.80126500 </v>
    <v>       0.11532850       0.86533698       0.80126500 </v>
    <v>       0.61532850       0.36533700       0.80126500 </v>
    <v>       0.61532849       0.86533698       0.80126500 </v>
    <v>       0.38467151       0.13466300       0.80126500 </v>
    <v>       0.38467150       0.63466297       0.80126500 </v>
    <v>       0.88467149       0.13466300       0.80126500 </v>
    <v>       0.88467153       0.63466297       0.80126500 </v>
    <v>       0.99317385       0.00504729       0.60474144 </v>
    <v>       0.00711978       0.50439118       0.60433828 </v>
    <v>       0.50278307       0.00856041       0.60318040 </v>
    <v>       0.49878515       0.50236882       0.60527530 </v>
    <v>       0.25130501       0.25194905       0.60392719 </v>
    <v>       0.24889428       0.75370410       0.60313681 </v>
    <v>       0.74462841       0.25608071       0.60691680 </v>
    <v>       0.74201590       0.75782887       0.60287369 </v>
    <v>       0.00000050       0.00000050       0.70482896 </v>
    <v>       0.00000050       0.50000048       0.70482896 </v>
    <v>       0.50000048       0.00000050       0.70482896 </v>
    <v>       0.50000046       0.50000048       0.70482896 </v>
    <v>       0.24999999       0.24999947       0.70482499 </v>
    <v>       0.25000001       0.74999950       0.70482499 </v>
    <v>       0.74999999       0.24999947       0.70482499 </v>
    <v>       0.74999998       0.74999950       0.70482499 </v>
    <v>       0.00000000       0.00000000       0.80731797 </v>
    <v>       0.00000000       0.50000000       0.80731797 </v>
    <v>       0.50000000       0.00000000       0.80731797 </v>
    <v>       0.49999999       0.50000000       0.80731797 </v>
    <v>       0.24999999       0.25000000       0.80731797 </v>
    <v>       0.25000001       0.74999997       0.80731797 </v>
    <v>       0.74999999       0.25000000       0.80731797 </v>
    <v>       0.74999998       0.74999997       0.80731797 </v>
   </varray>
  </structure>
  <varray name="primitive_index" >
   <v type="int" >        1 </v>
   <v type="int" >        2 </v>
   <v type="int" >        3 </v>
   <v type="int" >        4 </v>
   <v type="int" >        5 </v>
   <v type="int" >        6 </v>
   <v type="int" >        7 </v>
   <v type="int" >        8 </v>
   <v type="int" >        9 </v>
   <v type="int" >       10 </v>
   <v type="int" >       11 </v>
   <v type="int" >       12 </v>
   <v type="int" >       13 </v>
   <v type="int" >       14 </v>
   <v type="int" >       15 </v>
   <v type="int" >       16 </v>
   <v type="int" >       17 </v>
   <v type="int" >       18 </v>
   <v type="int" >       19 </v>
   <v type="int" >       20 </v>
   <v type="int" >       21 </v>
   <v type="int" >       22 </v>
   <v type="int" >       23 </v>
   <v type="int" >       24 </v>
   <v type="int" >       25 </v>
   <v type="int" >       26 </v>
   <v type="int" >       27 </v>
   <v type="int" >       28 </v>
   <v type="int" >       29 </v>
   <v type="int" >       30 </v>
   <v type="int" >       31 </v>
   <v type="int" >       32 </v>
   <v type="int" >       33 </v>
   <v type="int" >       34 </v>
   <v type="int" >       35 </v>
   <v type="int" >       36 </v>
   <v type="int" >       37 </v>
   <v type="int" >       38 </v>
   <v type="int" >       39 </v>
   <v type="int" >       40 </v>
   <v type="int" >       41 </v>
   <v type="int" >       42 </v>
   <v type="int" >       43 </v>
   <v type="int" >       44 </v>
   <v type="int" >       45 </v>
   <v type="int" >       46 </v>
   <v type="int" >       47 </v>
   <v type="int" >       48 </v>
   <v type="int" >       49 </v>
   <v type="int" >       50 </v>
   <v type="int" >       51 </v>
   <v type="int" >       52 </v>
   <v type="int" >       53 </v>
   <v type="int" >       54 </v>
   <v type="int" >       55 </v>
   <v type="int" >       56 </v>
   <v type="int" >       57 </v>
   <v type="int" >       58 </v>
   <v type="int" >       59 </v>
   <v type="int" >       60 </v>
   <v type="int" >       61 </v>
   <v type="int" >       62 </v>
   <v type="int" >       63 </v>
   <v type="int" >       64 </v>
   <v type="int" >       65 </v>
   <v type="int" >       66 </v>
   <v type="int" >       67 </v>
   <v type="int" >       68 </v>
   <v type="int" >       69 </v>
   <v type="int" >       70 </v>
   <v type="int" >       71 </v>
   <v type="int" >       72 </v>
   <v type="int" >       73 </v>
   <v type="int" >       74 </v>
   <v type="int" >       75 </v>
   <v type="int" >       76 </v>
   <v type="int" >       77 </v>
   <v type="int" >       78 </v>
   <v type="int" >       79 </v>
   <v type="int" >       80 </v>
   <v type="int" >       81 </v>
   <v type="int" >       82 </v>
   <v type="int" >       83 </v>
   <v type="int" >       84 </v>
   <v type="int" >       85 </v>
   <v type="int" >       86 </v>
   <v type="int" >       87 </v>
   <v type="int" >       88 </v>
   <v type="int" >       89 </v>
   <v type="int" >       90 </v>
   <v type="int" >       91 </v>
   <v type="int" >       92 </v>
   <v type="int" >       93 </v>
   <v type="int" >       94 </v>
   <v type="int" >       95 </v>
   <v type="int" >       96 </v>
   <v type="int" >       97 </v>
   <v type="int" >       98 </v>
   <v type="int" >       99 </v>
   <v type="int" >      100 </v>
   <v type="int" >      101 </v>
   <v type="int" >      102 </v>
   <v type="int" >      103 </v>
   <v type="int" >      104 </v>
   <v type="int" >      105 </v>
   <v type="int" >      106 </v>
   <v type="int" >      107 </v>
   <v type="int" >      108 </v>
   <v type="int" >      109 </v>
   <v type="int" >      110 </v>
   <v type="int" >      111 </v>
   <v type="int" >      112 </v>
   <v type="int" >      113 </v>
   <v type="int" >      114 </v>
   <v type="int" >      115 </v>
   <v type="int" >      116 </v>
   <v type="int" >      117 </v>
   <v type="int" >      118 </v>
   <v type="int" >      119 </v>
   <v type="int" >      120 </v>
   <v type="int" >      121 </v>
   <v type="int" >      122 </v>
   <v type="int" >      123 </v>
   <v type="int" >      124 </v>
   <v type="int" >      125 </v>
   <v type="int" >      126 </v>
   <v type="int" >      127 </v>
   <v type="int" >      128 </v>
   <v type="int" >      129 </v>
   <v type="int" >      130 </v>
   <v type="int" >      131 </v>
   <v type="int" >      132 </v>
   <v type="int" >      133 </v>
   <v type="int" >      134 </v>
   <v type="int" >      135 </v>
   <v type="int" >      136 </v>
   <v type="int" >      137 </v>
   <v type="int" >      138 </v>
   <v type="int" >      139 </v>
   <v type="int" >      140 </v>
   <v type="int" >      141 </v>
   <v type="int" >      142 </v>
   <v type="int" >      143 </v>
   <v type="int" >      144 </v>
   <v type="int" >      145 </v>
   <v type="int" >      146 </v>
   <v type="int" >      147 </v>
   <v type="int" >      148 </v>
   <v type="int" >      149 </v>
   <v type="int" >      150 </v>
   <v type="int" >      151 </v>
   <v type="int" >      152 </v>
   <v type="int" >      153 </v>
   <v type="int" >      154 </v>
   <v type="int" >      155 </v>
   <v type="int" >      156 </v>
   <v type="int" >      157 </v>
   <v type="int" >      158 </v>
   <v type="int" >      159 </v>
   <v type="int" >      160 </v>
   <v type="int" >      161 </v>
   <v type="int" >      162 </v>
   <v type="int" >      163 </v>
   <v type="int" >      164 </v>
   <v type="int" >      165 </v>
   <v type="int" >      166 </v>
   <v type="int" >      167 </v>
   <v type="int" >      168 </v>
   <v type="int" >      169 </v>
   <v type="int" >      170 </v>
   <v type="int" >      171 </v>
   <v type="int" >      172 </v>
   <v type="int" >      173 </v>
   <v type="int" >      174 </v>
   <v type="int" >      175 </v>
   <v type="int" >      176 </v>
   <v type="int" >      177 </v>
   <v type="int" >      178 </v>
   <v type="int" >      179 </v>
   <v type="int" >      180 </v>
   <v type="int" >      181 </v>
   <v type="int" >      182 </v>
   <v type="int" >      183 </v>
   <v type="int" >      184 </v>
   <v type="int" >      185 </v>
   <v type="int" >      186 </v>
   <v type="int" >      187 </v>
   <v type="int" >      188 </v>
   <v type="int" >      189 </v>
   <v type="int" >      190 </v>
   <v type="int" >      191 </v>
   <v type="int" >      192 </v>
   <v type="int" >      193 </v>
   <v type="int" >      194 </v>
   <v type="int" >      195 </v>
   <v type="int" >      196 </v>
   <v type="int" >      197 </v>
   <v type="int" >      198 </v>
   <v type="int" >      199 </v>
   <v type="int" >      200 </v>
   <v type="int" >      201 </v>
   <v type="int" >      202 </v>
   <v type="int" >      203 </v>
   <v type="int" >      204 </v>
   <v type="int" >      205 </v>
   <v type="int" >      206 </v>
   <v type="int" >      207 </v>
   <v type="int" >      208 </v>
   <v type="int" >      209 </v>
   <v type="int" >      210 </v>
   <v type="int" >      211 </v>
   <v type="int" >      212 </v>
   <v type="int" >      213 </v>
   <v type="int" >      214 </v>
   <v type="int" >      215 </v>
   <v type="int" >      216 </v>
   <v type="int" >      217 </v>
   <v type="int" >      218 </v>
   <v type="int" >      219 </v>
   <v type="int" >      220 </v>
   <v type="int" >      221 </v>
   <v type="int" >      222 </v>
   <v type="int" >      223 </v>
   <v type="int" >      224 </v>
   <v type="int" >      225 </v>
   <v type="int" >      226 </v>
   <v type="int" >      227 </v>
   <v type="int" >      228 </v>
   <v type="int" >      229 </v>
   <v type="int" >      230 </v>
   <v type="int" >      231 </v>
   <v type="int" >      232 </v>
   <v type="int" >      233 </v>
   <v type="int" >      234 </v>
   <v type="int" >      235 </v>
   <v type="int" >      236 </v>
   <v type="int" >      237 </v>
   <v type="int" >      238 </v>
   <v type="int" >      239 </v>
   <v type="int" >      240 </v>
   <v type="int" >      241 </v>
   <v type="int" >      242 </v>
   <v type="int" >      243 </v>
   <v type="int" >      244 </v>
   <v type="int" >      245 </v>
   <v type="int" >      246 </v>
   <v type="int" >      247 </v>
   <v type="int" >      248 </v>
   <v type="int" >      249 </v>
   <v type="int" >      250 </v>
   <v type="int" >      251 </v>
   <v type="int" >      252 </v>
   <v type="int" >      253 </v>
   <v type="int" >      254 </v>
   <v type="int" >      255 </v>
   <v type="int" >      256 </v>
   <v type="int" >      257 </v>
   <v type="int" >      258 </v>
   <v type="int" >      259 </v>
   <v type="int" >      260 </v>
   <v type="int" >      261 </v>
   <v type="int" >      262 </v>
   <v type="int" >      263 </v>
   <v type="int" >      264 </v>
   <v type="int" >      265 </v>
   <v type="int" >      266 </v>
   <v type="int" >      267 </v>
   <v type="int" >      268 </v>
   <v type="int" >      269 </v>
   <v type="int" >      270 </v>
   <v type="int" >      271 </v>
   <v type="int" >      272 </v>
   <v type="int" >      273 </v>
   <v type="int" >      274 </v>
   <v type="int" >      275 </v>
   <v type="int" >      276 </v>
   <v type="int" >      277 </v>
   <v type="int" >      278 </v>
   <v type="int" >      279 </v>
   <v type="int" >      280 </v>
   <v type="int" >      281 </v>
   <v type="int" >      282 </v>
   <v type="int" >      283 </v>
   <v type="int" >      284 </v>
   <v type="int" >      285 </v>
   <v type="int" >      286 </v>
   <v type="int" >      287 </v>
   <v type="int" >      288 </v>
   <v type="int" >      289 </v>
   <v type="int" >      290 </v>
   <v type="int" >      291 </v>
   <v type="int" >      292 </v>
   <v type="int" >      293 </v>
   <v type="int" >      294 </v>
   <v type="int" >      295 </v>
   <v type="int" >      296 </v>
   <v type="int" >      297 </v>
   <v type="int" >      298 </v>
   <v type="int" >      299 </v>
   <v type="int" >      300 </v>
   <v type="int" >      301 </v>
   <v type="int" >      302 </v>
   <v type="int" >      303 </v>
   <v type="int" >      304 </v>
   <v type="int" >      305 </v>
   <v type="int" >      306 </v>
   <v type="int" >      307 </v>
   <v type="int" >      308 </v>
   <v type="int" >      309 </v>
   <v type="int" >      310 </v>
   <v type="int" >      311 </v>
   <v type="int" >      312 </v>
   <v type="int" >      313 </v>
   <v type="int" >      314 </v>
   <v type="int" >      315 </v>
   <v type="int" >      316 </v>
   <v type="int" >      317 </v>
   <v type="int" >      318 </v>
   <v type="int" >      319 </v>
   <v type="int" >      320 </v>
   <v type="int" >      321 </v>
   <v type="int" >      322 </v>
   <v type="int" >      323 </v>
   <v type="int" >      324 </v>
   <v type="int" >      325 </v>
  </varray>
 </primitive_cell>
 <kpoints>
  <generation param="Gamma">
   <v type="int" name="divisions">       3        3        1 </v>
   <v name="usershift">      0.00000000       0.00000000       0.00000000 </v>
   <v name="genvec1">      0.33333333       0.00000000       0.00000000 </v>
   <v name="genvec2">      0.00000000       0.33333333       0.00000000 </v>
   <v name="genvec3">      0.00000000       0.00000000       1.00000000 </v>
   <v name="shift">      0.00000000       0.00000000       0.00000000 </v>
  </generation>
  <varray name="kpointlist" >
   <v>       0.00000000       0.00000000       0.00000000 </v>
   <v>       0.33333333       0.00000000       0.00000000 </v>
   <v>       0.00000000       0.33333333       0.00000000 </v>
   <v>       0.33333333       0.33333333       0.00000000 </v>
   <v>      -0.33333333       0.33333333       0.00000000 </v>
  </varray>
  <varray name="weights" >
   <v>       0.11111111 </v>
   <v>       0.22222222 </v>
   <v>       0.22222222 </v>
   <v>       0.22222222 </v>
   <v>       0.22222222 </v>
  </varray>
 </kpoints>
 <parameters>
  <separator name="general" >
   <i type="string" name="SYSTEM">PSC</i>
   <i type="logical" name="LCOMPAT"> F  </i>
  </separator>
  <separator name="electronic" >
   <i type="string" name="PREC">normal</i>
   <i name="ENMAX">    500.00000000</i>
   <i name="ENAUG">    644.87300000</i>
   <i name="EDIFF">      0.00010000</i>
   <i type="int" name="IALGO">    38</i>
   <i type="int" name="IWAVPR">    10</i>
   <i type="int" name="NBANDS">   732</i>
   <i type="int" name="NBANDSLOW">    -1</i>
   <i type="int" name="NBANDSHIGH">    -1</i>
   <i name="NELECT">   1134.00000000</i>
   <i type="int" name="TURBO">     0</i>
   <i type="int" name="IRESTART">     0</i>
   <i type="int" name="NREBOOT">     0</i>
   <i type="int" name="NMIN">     0</i>
   <i name="EREF">      0.00000000</i>
   <separator name="electronic smearing" >
    <i type="int" name="ISMEAR">     0</i>
    <i name="SIGMA">      0.05000000</i>
    <i name="KSPACING">      0.50000000</i>
    <i type="logical" name="KGAMMA"> T  </i>
    <i type="logical" name="KBLOWUP"> T  </i>
   </separator>
   <separator name="electronic projectors" >
    <i type="logical" name="LREAL"> T  </i>
    <v name="ROPT">     -0.00050000     -0.00050000     -0.00050000     -0.00050000     -0.00050000</v>
    <i type="int" name="LMAXPAW">  -100</i>
    <i type="int" name="LMAXMIX">     2</i>
    <i type="logical" name="NLSPLINE"> F  </i>
   </separator>
   <separator name="electronic startup" >
    <i type="int" name="ISTART">     0</i>
    <i type="int" name="ICHARG">     1</i>
    <i type="int" name="INIWAV">     1</i>
   </separator>
   <separator name="electronic spin" >
    <i type="int" name="ISPIN">     1</i>
    <i type="logical" name="LNONCOLLINEAR"> F  </i>
    <v name="MAGMOM">      1.00000000      1.00000000      1.00000000      1.00000000      1.00000000      1.00000000      1.00000000      1.00000000      1.00000000      1.00000000      1.00000000      1.00000000      1.00000000      1.00000000      1.00000000      1.00000000      1.00000000      1.00000000      1.00000000      1.00000000
      1.00000000      1.00000000      1.00000000      1.00000000      1.00000000      1.00000000      1.00000000      1.00000000      1.00000000      1.00000000      1.00000000      1.00000000      1.00000000      1.00000000      1.00000000      1.00000000      1.00000000      1.00000000      1.00000000      1.00000000
      1.00000000      1.00000000      1.00000000      1.00000000      1.00000000      1.00000000      1.00000000      1.00000000      1.00000000      1.00000000      1.00000000      1.00000000      1.00000000      1.00000000      1.00000000      1.00000000      1.00000000      1.00000000      1.00000000      1.00000000
      1.00000000      1.00000000      1.00000000      1.00000000      1.00000000      1.00000000      1.00000000      1.00000000      1.00000000      1.00000000      1.00000000      1.00000000      1.00000000      1.00000000      1.00000000      1.00000000      1.00000000      1.00000000      1.00000000      1.00000000
      1.00000000      1.00000000      1.00000000      1.00000000      1.00000000      1.00000000      1.00000000      1.00000000      1.00000000      1.00000000      1.00000000      1.00000000      1.00000000      1.00000000      1.00000000      1.00000000      1.00000000      1.00000000      1.00000000      1.00000000
      1.00000000      1.00000000      1.00000000      1.00000000      1.00000000      1.00000000      1.00000000      1.00000000      1.00000000      1.00000000      1.00000000      1.00000000      1.00000000      1.00000000      1.00000000      1.00000000      1.00000000      1.00000000      1.00000000      1.00000000
      1.00000000      1.00000000      1.00000000      1.00000000      1.00000000      1.00000000      1.00000000      1.00000000      1.00000000      1.00000000      1.00000000      1.00000000      1.00000000      1.00000000      1.00000000      1.00000000      1.00000000      1.00000000      1.00000000      1.00000000
      1.00000000      1.00000000      1.00000000      1.00000000      1.00000000      1.00000000      1.00000000      1.00000000      1.00000000      1.00000000      1.00000000      1.00000000      1.00000000      1.00000000      1.00000000      1.00000000      1.00000000      1.00000000      1.00000000      1.00000000
      1.00000000      1.00000000      1.00000000      1.00000000      1.00000000      1.00000000      1.00000000      1.00000000      1.00000000      1.00000000      1.00000000      1.00000000      1.00000000      1.00000000      1.00000000      1.00000000      1.00000000      1.00000000      1.00000000      1.00000000
      1.00000000      1.00000000      1.00000000      1.00000000      1.00000000      1.00000000      1.00000000      1.00000000      1.00000000      1.00000000      1.00000000      1.00000000      1.00000000      1.00000000      1.00000000      1.00000000      1.00000000      1.00000000      1.00000000      1.00000000
      1.00000000      1.00000000      1.00000000      1.00000000      1.00000000      1.00000000      1.00000000      1.00000000      1.00000000      1.00000000      1.00000000      1.00000000      1.00000000      1.00000000      1.00000000      1.00000000      1.00000000      1.00000000      1.00000000      1.00000000
      1.00000000      1.00000000      1.00000000      1.00000000      1.00000000      1.00000000      1.00000000      1.00000000      1.00000000      1.00000000      1.00000000      1.00000000      1.00000000      1.00000000      1.00000000      1.00000000      1.00000000      1.00000000      1.00000000      1.00000000
      1.00000000      1.00000000      1.00000000      1.00000000      1.00000000      1.00000000      1.00000000      1.00000000      1.00000000      1.00000000      1.00000000      1.00000000      1.00000000      1.00000000      1.00000000      1.00000000      1.00000000      1.00000000      1.00000000      1.00000000
      1.00000000      1.00000000      1.00000000      1.00000000      1.00000000      1.00000000      1.00000000      1.00000000      1.00000000      1.00000000      1.00000000      1.00000000      1.00000000      1.00000000      1.00000000      1.00000000      1.00000000      1.00000000      1.00000000      1.00000000
      1.00000000      1.00000000      1.00000000      1.00000000      1.00000000      1.00000000      1.00000000      1.00000000      1.00000000      1.00000000      1.00000000      1.00000000      1.00000000      1.00000000      1.00000000      1.00000000      1.00000000      1.00000000      1.00000000      1.00000000
      1.00000000      1.00000000      1.00000000      1.00000000      1.00000000      1.00000000      1.00000000      1.00000000      1.00000000      1.00000000      1.00000000      1.00000000      1.00000000      1.00000000      1.00000000      1.00000000      1.00000000      1.00000000      1.00000000      1.00000000
      1.00000000      1.00000000      1.00000000      1.00000000      1.00000000</v>
    <i name="NUPDOWN">     -1.00000000</i>
    <i type="logical" name="LSORBIT"> F  </i>
    <v name="SAXIS">      0.00000000      0.00000000      1.00000000</v>
    <i type="logical" name="LSPIRAL"> F  </i>
    <v name="QSPIRAL">      0.00000000      0.00000000      0.00000000</v>
    <i type="logical" name="LZEROZ"> F  </i>
   </separator>
   <separator name="electronic exchange-correlation" >
    <i type="logical" name="LASPH"> F  </i>
    <i type="logical" name="LMETAGGA"> F  </i>
   </separator>
   <separator name="electronic convergence" >
    <i type="int" name="NELM">   600</i>
    <i type="int" name="NELMDL">     0</i>
    <i type="int" name="NELMIN">     2</i>
    <i name="ENINI">    500.00000000</i>
    <separator name="electronic convergence detail" >
     <i type="logical" name="LDIAG"> T  </i>
     <i type="logical" name="LSUBROT"> F  </i>
     <i name="WEIMIN">      0.00000000</i>
     <i name="EBREAK">      0.00000003</i>
     <i name="DEPER">      0.30000000</i>
     <i type="int" name="NRMM">     4</i>
     <i name="TIME">      0.40000000</i>
    </separator>
   </separator>
   <separator name="electronic mixer" >
    <i name="AMIX">      0.40000000</i>
    <i name="BMIX">      0.01000000</i>
    <i name="AMIN">      0.01000000</i>
    <i name="AMIX_MAG">      1.60000000</i>
    <i name="BMIX_MAG">      0.01000000</i>
    <separator name="electronic mixer details" >
     <i type="int" name="IMIX">     4</i>
     <i type="logical" name="MIXFIRST"> F  </i>
     <i type="int" name="MAXMIX">   -45</i>
     <i name="WC">    100.00000000</i>
     <i type="int" name="INIMIX">     1</i>
     <i type="int" name="MIXPRE">     1</i>
     <i type="int" name="MREMOVE">     5</i>
    </separator>
   </separator>
   <separator name="electronic dipolcorrection" >
    <i type="logical" name="LDIPOL"> T  </i>
    <i type="logical" name="LMONO"> F  </i>
    <i type="int" name="IDIPOL">     3</i>
    <i name="EPSILON">      1.00000000</i>
    <v name="DIPOL">   -100.00000000   -100.00000000   -100.00000000</v>
    <i name="EFIELD">      0.00000000</i>
   </separator>
  </separator>
  <separator name="grids" >
   <i type="int" name="NGX">   100</i>
   <i type="int" name="NGY">   100</i>
   <i type="int" name="NGZ">   350</i>
   <i type="int" name="NGXF">   200</i>
   <i type="int" name="NGYF">   200</i>
   <i type="int" name="NGZF">   700</i>
   <i type="logical" name="ADDGRID"> F  </i>
  </separator>
  <separator name="ionic" >
   <i type="int" name="NSW">     0</i>
   <i type="int" name="IBRION">    -1</i>
   <i type="int" name="MDALGO">     0</i>
   <i type="int" name="ISIF">     2</i>
   <i name="PSTRESS">      0.00000000</i>
   <i name="EDIFFG">      0.00100000</i>
   <i type="int" name="NFREE">     0</i>
   <i name="POTIM">      0.50000000</i>
   <i name="SMASS">     -3.00000000</i>
   <i name="SCALEE">      1.00000000</i>
  </separator>
  <separator name="ionic md" >
   <i name="TEBEG">      0.00010000</i>
   <i name="TEEND">      0.00010000</i>
   <i type="int" name="NBLOCK">     1</i>
   <i type="int" name="KBLOCK">     1</i>
   <i type="int" name="NPACO">   256</i>
   <i name="APACO">     16.00000000</i>
  </separator>
  <separator name="symmetry" >
   <i type="int" name="ISYM">     0</i>
   <i name="SYMPREC">      0.00001000</i>
  </separator>
  <separator name="dos" >
   <i type="int" name="LORBIT">     0</i>
   <v name="RWIGS">     -1.00000000     -1.00000000     -1.00000000     -1.00000000     -1.00000000</v>
   <i type="int" name="NEDOS">   301</i>
   <i name="EMIN">     10.00000000</i>
   <i name="EMAX">    -10.00000000</i>
   <i name="EFERMI">      0.00000000</i>
  </separator>
  <separator name="writing" >
   <i type="int" name="NWRITE">     2</i>
   <i type="logical" name="LWAVE"> F  </i>
   <i type="logical" name="LDOWNSAMPLE"> F  </i>
   <i type="logical" name="LCHARG"> T  </i>
   <i type="logical" name="LPARD"> F  </i>
   <i type="logical" name="LVTOT"> T  </i>
   <i type="logical" name="LVHAR"> F  </i>
   <i type="logical" name="LELF"> F  </i>
   <i type="logical" name="LOPTICS"> F  </i>
   <v name="STM">      0.00000000      0.00000000      0.00000000      0.00000000      0.00000000      0.00000000      0.00000000</v>
  </separator>
  <separator name="performance" >
   <i type="int" name="NPAR">     4</i>
   <i type="int" name="NSIM">     4</i>
   <i type="int" name="NBLK">    -1</i>
   <i type="logical" name="LPLANE"> T  </i>
   <i type="logical" name="LSCALAPACK"> T  </i>
   <i type="logical" name="LSCAAWARE"> F  </i>
   <i type="logical" name="LSCALU"> F  </i>
   <i type="logical" name="LASYNC"> F  </i>
   <i type="logical" name="LORBITALREAL"> F  </i>
  </separator>
  <separator name="miscellaneous" >
   <i type="int" name="IDIOT">     3</i>
   <i type="int" name="PHON_NSTRUCT">    -1</i>
   <i type="logical" name="LMUSIC"> F  </i>
   <v name="POMASS">      1.00000000     12.01100000     14.00100000    126.90400000    207.20000000</v>
   <v name="DARWINR">      0.00000000      0.00000000      0.00000000      0.00000000      0.00000000</v>
   <v name="DARWINV">      1.00000000      1.00000000      1.00000000      1.00000000      1.00000000</v>
   <i type="logical" name="LCORR"> T  </i>
  </separator>
  <i type="logical" name="GGA_COMPAT"> F  </i>
  <i type="logical" name="LBERRY"> F  </i>
  <i type="int" name="ICORELEVEL">     0</i>
  <i type="logical" name="LDAU"> F  </i>
  <i type="int" name="I_CONSTRAINED_M">     0</i>
  <separator name="electronic exchange-correlation" >
   <i type="string" name="GGA">--</i>
   <i type="int" name="VOSKOWN">     0</i>
   <i type="logical" name="LHFCALC"> F  </i>
   <i type="string" name="PRECFOCK"></i>
   <i type="logical" name="LSYMGRAD"> F  </i>
   <i type="logical" name="LHFONE"> F  </i>
   <i type="logical" name="LRHFCALC"> F  </i>
   <i type="logical" name="LTHOMAS"> F  </i>
   <i type="logical" name="LMODELHF"> F  </i>
   <i type="logical" name="LFOCKACE"> F  </i>
   <i name="ENCUT4O">     -1.00000000</i>
   <i type="int" name="EXXOEP">     0</i>
   <i type="int" name="FOURORBIT">     0</i>
   <i name="AEXX">      0.00000000</i>
   <i name="HFALPHA">      0.00000000</i>
   <i name="MCALPHA">      0.00000000</i>
   <i name="ALDAX">      1.00000000</i>
   <i name="AGGAX">      1.00000000</i>
   <i name="ALDAC">      1.00000000</i>
   <i name="AGGAC">      1.00000000</i>
   <i type="int" name="NKREDX">     1</i>
   <i type="int" name="NKREDY">     1</i>
   <i type="int" name="NKREDZ">     1</i>
   <i type="logical" name="SHIFTRED"> F  </i>
   <i type="logical" name="ODDONLY"> F  </i>
   <i type="logical" name="EVENONLY"> F  </i>
   <i type="int" name="LMAXFOCK">     0</i>
   <i type="int" name="NMAXFOCKAE">     0</i>
   <i type="logical" name="LFOCKAEDFT"> F  </i>
   <i name="HFSCREEN">      0.00000000</i>
   <i name="HFSCREENC">      0.00000000</i>
   <i type="int" name="NBANDSGWLOW">     0</i>
  </separator>
  <separator name="vdW DFT" >
   <i type="logical" name="LUSE_VDW"> F  </i>
   <i name="Zab_VDW">     -0.84910000</i>
   <i name="PARAM1">      0.12340000</i>
   <i name="PARAM2">      1.00000000</i>
   <i name="PARAM3">      0.00000000</i>
  </separator>
  <separator name="model GW" >
   <i type="int" name="MODEL_GW">     0</i>
   <i name="MODEL_EPS0">     37.63423484</i>
   <i name="MODEL_ALPHA">      1.00000000</i>
  </separator>
  <separator name="linear response parameters" >
   <i type="logical" name="LEPSILON"> F  </i>
   <i type="logical" name="LRPA"> F  </i>
   <i type="logical" name="LNABLA"> F  </i>
   <i type="logical" name="LVEL"> F  </i>
   <i type="int" name="KINTER">     0</i>
   <i name="CSHIFT">      0.10000000</i>
   <i name="OMEGAMAX">     -1.00000000</i>
   <i name="DEG_THRESHOLD">      0.00200000</i>
   <i name="RTIME">     -0.10000000</i>
   <i name="WPLASMAI">      0.00000000</i>
   <v name="DFIELD">      0.00000000      0.00000000      0.00000000</v>
   <v name="WPLASMA">      0.00000000      0.00000000      0.00000000      0.00000000      0.00000000      0.00000000      0.00000000      0.00000000      0.00000000</v>
  </separator>
  <separator name="orbital magnetization" >
   <i type="logical" name="NUCIND"> F  </i>
   <v name="MAGPOS">      0.00000000      0.00000000      0.00000000</v>
   <i type="logical" name="LNICSALL"> T  </i>
   <i type="logical" name="ORBITALMAG"> F  </i>
   <i type="logical" name="LMAGBLOCH"> F  </i>
   <i type="logical" name="LCHIMAG"> F  </i>
   <i type="logical" name="LGAUGE"> T  </i>
   <i type="int" name="MAGATOM">     0</i>
   <v name="MAGDIPOL">      0.00000000      0.00000000      0.00000000</v>
   <v name="AVECCONST">      0.00000000      0.00000000      0.00000000</v>
  </separator>
  <separator name="response functions" >
   <i type="logical" name="LFINITE_TEMPERATURE"> F  </i>
   <i type="logical" name="LADDER"> F  </i>
   <i type="logical" name="LRPAFORCE"> F  </i>
   <i type="logical" name="LFXC"> F  </i>
   <i type="logical" name="LHARTREE"> T  </i>
   <i type="int" name="IBSE">     0</i>
   <v type="int" name="KPOINT">    -1     0     0     0</v>
   <i type="logical" name="LTCTC"> F  </i>
   <i type="logical" name="LTCTE"> F  </i>
   <i type="logical" name="LTETE"> F  </i>
   <i type="logical" name="LTRIPLET"> F  </i>
   <i type="logical" name="LFXCEPS"> F  </i>
   <i type="logical" name="LFXHEG"> F  </i>
   <i type="int" name="NATURALO">     2</i>
   <i type="logical" name="LHOLEGF"> F  </i>
   <i type="logical" name="L2ORDER"> F  </i>
   <i type="logical" name="LDMP1"> F  </i>
   <i type="logical" name="LMP2LT"> F  </i>
   <i type="logical" name="LSMP2LT"> F  </i>
   <i type="logical" name="LGWLF"> F  </i>
   <i name="ENCUTGW">     -2.00000000</i>
   <i name="ENCUTGWSOFT">     -2.00000000</i>
   <i name="ENCUTLF">     -1.00000000</i>
   <i type="logical" name="LESF_SPLINES"> F  </i>
   <i type="int" name="LMAXMP2">    -1</i>
   <i name="SCISSOR">      0.00000000</i>
   <i type="int" name="NOMEGA">     0</i>
   <i type="int" name="NOMEGAR">     0</i>
   <i type="int" name="NBANDSGW">    -1</i>
   <i type="int" name="NBANDSO">    -1</i>
   <i type="int" name="NBANDSV">    -1</i>
   <i type="int" name="NELM">   600</i>
   <i type="int" name="NELMHF">     1</i>
   <i type="int" name="DIM">     3</i>
   <i type="int" name="IESPILON">     4</i>
   <i type="int" name="ANTIRES">     0</i>
   <i name="OMEGAMAX">    -30.00000000</i>
   <i name="OMEGAMIN">    -30.00000000</i>
   <i name="OMEGATL">   -200.00000000</i>
   <i type="int" name="OMEGAGRID">     0</i>
   <i name="CSHIFT">     -0.10000000</i>
   <i type="logical" name="LSELFENERGY"> F  </i>
   <i type="logical" name="LSPECTRAL"> F  </i>
   <i type="logical" name="LSPECTRALGW"> F  </i>
   <i type="logical" name="LSINGLES"> F  </i>
   <i type="logical" name="LFERMIGW"> F  </i>
   <i type="logical" name="ODDONLYGW"> F  </i>
   <i type="logical" name="EVENONLYGW"> F  </i>
   <i type="int" name="NKREDLFX">     1</i>
   <i type="int" name="NKREDLFY">     1</i>
   <i type="int" name="NKREDLFZ">     1</i>
   <i type="int" name="MAXMEM">  2800</i>
   <i type="int" name="TELESCOPE">     0</i>
   <i type="int" name="NTAUPAR">    -1</i>
   <i type="int" name="NOMEGAPAR">    -1</i>
   <i name="DAMP_NEWTON">      0.80000001</i>
   <i name="LAMBDA">      1.00000000</i>
  </separator>
  <separator name="External order field" >
   <i name="OFIELD_KAPPA">      0.00000000</i>
   <v name="OFIELD_K">      0.00000000      0.00000000      0.00000000</v>
   <i name="OFIELD_Q6_NEAR">      0.00000000</i>
   <i name="OFIELD_Q6_FAR">      0.00000000</i>
   <i name="OFIELD_A">      0.00000000</i>
  </separator>
 </parameters>
 <atominfo>
  <atoms>     325 </atoms>
  <types>       5 </types>
  <array name="atoms" >
   <dimension dim="1">ion</dimension>
   <field type="string">element</field>
   <field type="int">atomtype</field>
   <set>
    <rc><c>H </c><c>   1</c></rc>
    <rc><c>H </c><c>   1</c></rc>
    <rc><c>H </c><c>   1</c></rc>
    <rc><c>H </c><c>   1</c></rc>
    <rc><c>H </c><c>   1</c></rc>
    <rc><c>H </c><c>   1</c></rc>
    <rc><c>H </c><c>   1</c></rc>
    <rc><c>H </c><c>   1</c></rc>
    <rc><c>H </c><c>   1</c></rc>
    <rc><c>H </c><c>   1</c></rc>
    <rc><c>H </c><c>   1</c></rc>
    <rc><c>H </c><c>   1</c></rc>
    <rc><c>H </c><c>   1</c></rc>
    <rc><c>H </c><c>   1</c></rc>
    <rc><c>H </c><c>   1</c></rc>
    <rc><c>H </c><c>   1</c></rc>
    <rc><c>H </c><c>   1</c></rc>
    <rc><c>H </c><c>   1</c></rc>
    <rc><c>H </c><c>   1</c></rc>
    <rc><c>H </c><c>   1</c></rc>
    <rc><c>H </c><c>   1</c></rc>
    <rc><c>H </c><c>   1</c></rc>
    <rc><c>H </c><c>   1</c></rc>
    <rc><c>H </c><c>   1</c></rc>
    <rc><c>H </c><c>   1</c></rc>
    <rc><c>H </c><c>   1</c></rc>
    <rc><c>H </c><c>   1</c></rc>
    <rc><c>H </c><c>   1</c></rc>
    <rc><c>H </c><c>   1</c></rc>
    <rc><c>H </c><c>   1</c></rc>
    <rc><c>H </c><c>   1</c></rc>
    <rc><c>H </c><c>   1</c></rc>
    <rc><c>H </c><c>   1</c></rc>
    <rc><c>H </c><c>   1</c></rc>
    <rc><c>H </c><c>   1</c></rc>
    <rc><c>H </c><c>   1</c></rc>
    <rc><c>H </c><c>   1</c></rc>
    <rc><c>H </c><c>   1</c></rc>
    <rc><c>H </c><c>   1</c></rc>
    <rc><c>H </c><c>   1</c></rc>
    <rc><c>H </c><c>   1</c></rc>
    <rc><c>H </c><c>   1</c></rc>
    <rc><c>H </c><c>   1</c></rc>
    <rc><c>H </c><c>   1</c></rc>
    <rc><c>H </c><c>   1</c></rc>
    <rc><c>H </c><c>   1</c></rc>
    <rc><c>H </c><c>   1</c></rc>
    <rc><c>H </c><c>   1</c></rc>
    <rc><c>H </c><c>   1</c></rc>
    <rc><c>H </c><c>   1</c></rc>
    <rc><c>H </c><c>   1</c></rc>
    <rc><c>H </c><c>   1</c></rc>
    <rc><c>H </c><c>   1</c></rc>
    <rc><c>H </c><c>   1</c></rc>
    <rc><c>H </c><c>   1</c></rc>
    <rc><c>H </c><c>   1</c></rc>
    <rc><c>H </c><c>   1</c></rc>
    <rc><c>H </c><c>   1</c></rc>
    <rc><c>H </c><c>   1</c></rc>
    <rc><c>H </c><c>   1</c></rc>
    <rc><c>H </c><c>   1</c></rc>
    <rc><c>H </c><c>   1</c></rc>
    <rc><c>H </c><c>   1</c></rc>
    <rc><c>H </c><c>   1</c></rc>
    <rc><c>H </c><c>   1</c></rc>
    <rc><c>H </c><c>   1</c></rc>
    <rc><c>H </c><c>   1</c></rc>
    <rc><c>H </c><c>   1</c></rc>
    <rc><c>H </c><c>   1</c></rc>
    <rc><c>H </c><c>   1</c></rc>
    <rc><c>H </c><c>   1</c></rc>
    <rc><c>H </c><c>   1</c></rc>
    <rc><c>H </c><c>   1</c></rc>
    <rc><c>H </c><c>   1</c></rc>
    <rc><c>H </c><c>   1</c></rc>
    <rc><c>H </c><c>   1</c></rc>
    <rc><c>H </c><c>   1</c></rc>
    <rc><c>H </c><c>   1</c></rc>
    <rc><c>H </c><c>   1</c></rc>
    <rc><c>H </c><c>   1</c></rc>
    <rc><c>H </c><c>   1</c></rc>
    <rc><c>H </c><c>   1</c></rc>
    <rc><c>H </c><c>   1</c></rc>
    <rc><c>H </c><c>   1</c></rc>
    <rc><c>H </c><c>   1</c></rc>
    <rc><c>H </c><c>   1</c></rc>
    <rc><c>H </c><c>   1</c></rc>
    <rc><c>H </c><c>   1</c></rc>
    <rc><c>H </c><c>   1</c></rc>
    <rc><c>H </c><c>   1</c></rc>
    <rc><c>H </c><c>   1</c></rc>
    <rc><c>H </c><c>   1</c></rc>
    <rc><c>H </c><c>   1</c></rc>
    <rc><c>H </c><c>   1</c></rc>
    <rc><c>H </c><c>   1</c></rc>
    <rc><c>H </c><c>   1</c></rc>
    <rc><c>H </c><c>   1</c></rc>
    <rc><c>H </c><c>   1</c></rc>
    <rc><c>H </c><c>   1</c></rc>
    <rc><c>H </c><c>   1</c></rc>
    <rc><c>H </c><c>   1</c></rc>
    <rc><c>H </c><c>   1</c></rc>
    <rc><c>H </c><c>   1</c></rc>
    <rc><c>H </c><c>   1</c></rc>
    <rc><c>H </c><c>   1</c></rc>
    <rc><c>H </c><c>   1</c></rc>
    <rc><c>H </c><c>   1</c></rc>
    <rc><c>H </c><c>   1</c></rc>
    <rc><c>H </c><c>   1</c></rc>
    <rc><c>H </c><c>   1</c></rc>
    <rc><c>H </c><c>   1</c></rc>
    <rc><c>H </c><c>   1</c></rc>
    <rc><c>H </c><c>   1</c></rc>
    <rc><c>H </c><c>   1</c></rc>
    <rc><c>H </c><c>   1</c></rc>
    <rc><c>H </c><c>   1</c></rc>
    <rc><c>H </c><c>   1</c></rc>
    <rc><c>H </c><c>   1</c></rc>
    <rc><c>H </c><c>   1</c></rc>
    <rc><c>H </c><c>   1</c></rc>
    <rc><c>H </c><c>   1</c></rc>
    <rc><c>H </c><c>   1</c></rc>
    <rc><c>H </c><c>   1</c></rc>
    <rc><c>H </c><c>   1</c></rc>
    <rc><c>H </c><c>   1</c></rc>
    <rc><c>H </c><c>   1</c></rc>
    <rc><c>H </c><c>   1</c></rc>
    <rc><c>H </c><c>   1</c></rc>
    <rc><c>H </c><c>   1</c></rc>
    <rc><c>H </c><c>   1</c></rc>
    <rc><c>H </c><c>   1</c></rc>
    <rc><c>H </c><c>   1</c></rc>
    <rc><c>H </c><c>   1</c></rc>
    <rc><c>H </c><c>   1</c></rc>
    <rc><c>H </c><c>   1</c></rc>
    <rc><c>H </c><c>   1</c></rc>
    <rc><c>H </c><c>   1</c></rc>
    <rc><c>H </c><c>   1</c></rc>
    <rc><c>H </c><c>   1</c></rc>
    <rc><c>H </c><c>   1</c></rc>
    <rc><c>H </c><c>   1</c></rc>
    <rc><c>H </c><c>   1</c></rc>
    <rc><c>H </c><c>   1</c></rc>
    <rc><c>C </c><c>   2</c></rc>
    <rc><c>C </c><c>   2</c></rc>
    <rc><c>C </c><c>   2</c></rc>
    <rc><c>C </c><c>   2</c></rc>
    <rc><c>C </c><c>   2</c></rc>
    <rc><c>C </c><c>   2</c></rc>
    <rc><c>C </c><c>   2</c></rc>
    <rc><c>C </c><c>   2</c></rc>
    <rc><c>C </c><c>   2</c></rc>
    <rc><c>C </c><c>   2</c></rc>
    <rc><c>C </c><c>   2</c></rc>
    <rc><c>C </c><c>   2</c></rc>
    <rc><c>C </c><c>   2</c></rc>
    <rc><c>C </c><c>   2</c></rc>
    <rc><c>C </c><c>   2</c></rc>
    <rc><c>C </c><c>   2</c></rc>
    <rc><c>C </c><c>   2</c></rc>
    <rc><c>C </c><c>   2</c></rc>
    <rc><c>C </c><c>   2</c></rc>
    <rc><c>C </c><c>   2</c></rc>
    <rc><c>C </c><c>   2</c></rc>
    <rc><c>C </c><c>   2</c></rc>
    <rc><c>C </c><c>   2</c></rc>
    <rc><c>C </c><c>   2</c></rc>
    <rc><c>C </c><c>   2</c></rc>
    <rc><c>C </c><c>   2</c></rc>
    <rc><c>C </c><c>   2</c></rc>
    <rc><c>C </c><c>   2</c></rc>
    <rc><c>C </c><c>   2</c></rc>
    <rc><c>C </c><c>   2</c></rc>
    <rc><c>C </c><c>   2</c></rc>
    <rc><c>C </c><c>   2</c></rc>
    <rc><c>C </c><c>   2</c></rc>
    <rc><c>C </c><c>   2</c></rc>
    <rc><c>C </c><c>   2</c></rc>
    <rc><c>C </c><c>   2</c></rc>
    <rc><c>C </c><c>   2</c></rc>
    <rc><c>C </c><c>   2</c></rc>
    <rc><c>C </c><c>   2</c></rc>
    <rc><c>N </c><c>   3</c></rc>
    <rc><c>N </c><c>   3</c></rc>
    <rc><c>N </c><c>   3</c></rc>
    <rc><c>N </c><c>   3</c></rc>
    <rc><c>N </c><c>   3</c></rc>
    <rc><c>N </c><c>   3</c></rc>
    <rc><c>N </c><c>   3</c></rc>
    <rc><c>N </c><c>   3</c></rc>
    <rc><c>N </c><c>   3</c></rc>
    <rc><c>N </c><c>   3</c></rc>
    <rc><c>N </c><c>   3</c></rc>
    <rc><c>N </c><c>   3</c></rc>
    <rc><c>N </c><c>   3</c></rc>
    <rc><c>N </c><c>   3</c></rc>
    <rc><c>N </c><c>   3</c></rc>
    <rc><c>N </c><c>   3</c></rc>
    <rc><c>N </c><c>   3</c></rc>
    <rc><c>N </c><c>   3</c></rc>
    <rc><c>N </c><c>   3</c></rc>
    <rc><c>N </c><c>   3</c></rc>
    <rc><c>N </c><c>   3</c></rc>
    <rc><c>N </c><c>   3</c></rc>
    <rc><c>N </c><c>   3</c></rc>
    <rc><c>N </c><c>   3</c></rc>
    <rc><c>N </c><c>   3</c></rc>
    <rc><c>N </c><c>   3</c></rc>
    <rc><c>N </c><c>   3</c></rc>
    <rc><c>N </c><c>   3</c></rc>
    <rc><c>N </c><c>   3</c></rc>
    <rc><c>N </c><c>   3</c></rc>
    <rc><c>N </c><c>   3</c></rc>
    <rc><c>N </c><c>   3</c></rc>
    <rc><c>N </c><c>   3</c></rc>
    <rc><c>N </c><c>   3</c></rc>
    <rc><c>N </c><c>   3</c></rc>
    <rc><c>N </c><c>   3</c></rc>
    <rc><c>N </c><c>   3</c></rc>
    <rc><c>N </c><c>   3</c></rc>
    <rc><c>N </c><c>   3</c></rc>
    <rc><c>N </c><c>   3</c></rc>
    <rc><c>N </c><c>   3</c></rc>
    <rc><c>N </c><c>   3</c></rc>
    <rc><c>N </c><c>   3</c></rc>
    <rc><c>N </c><c>   3</c></rc>
    <rc><c>N </c><c>   3</c></rc>
    <rc><c>N </c><c>   3</c></rc>
    <rc><c>N </c><c>   3</c></rc>
    <rc><c>I </c><c>   4</c></rc>
    <rc><c>I </c><c>   4</c></rc>
    <rc><c>I </c><c>   4</c></rc>
    <rc><c>I </c><c>   4</c></rc>
    <rc><c>I </c><c>   4</c></rc>
    <rc><c>I </c><c>   4</c></rc>
    <rc><c>I </c><c>   4</c></rc>
    <rc><c>I </c><c>   4</c></rc>
    <rc><c>I </c><c>   4</c></rc>
    <rc><c>I </c><c>   4</c></rc>
    <rc><c>I </c><c>   4</c></rc>
    <rc><c>I </c><c>   4</c></rc>
    <rc><c>I </c><c>   4</c></rc>
    <rc><c>I </c><c>   4</c></rc>
    <rc><c>I </c><c>   4</c></rc>
    <rc><c>I </c><c>   4</c></rc>
    <rc><c>I </c><c>   4</c></rc>
    <rc><c>I </c><c>   4</c></rc>
    <rc><c>I </c><c>   4</c></rc>
    <rc><c>I </c><c>   4</c></rc>
    <rc><c>I </c><c>   4</c></rc>
    <rc><c>I </c><c>   4</c></rc>
    <rc><c>I </c><c>   4</c></rc>
    <rc><c>I </c><c>   4</c></rc>
    <rc><c>I </c><c>   4</c></rc>
    <rc><c>I </c><c>   4</c></rc>
    <rc><c>I </c><c>   4</c></rc>
    <rc><c>I </c><c>   4</c></rc>
    <rc><c>I </c><c>   4</c></rc>
    <rc><c>I </c><c>   4</c></rc>
    <rc><c>I </c><c>   4</c></rc>
    <rc><c>I </c><c>   4</c></rc>
    <rc><c>I </c><c>   4</c></rc>
    <rc><c>I </c><c>   4</c></rc>
    <rc><c>I </c><c>   4</c></rc>
    <rc><c>I </c><c>   4</c></rc>
    <rc><c>I </c><c>   4</c></rc>
    <rc><c>I </c><c>   4</c></rc>
    <rc><c>I </c><c>   4</c></rc>
    <rc><c>I </c><c>   4</c></rc>
    <rc><c>I </c><c>   4</c></rc>
    <rc><c>I </c><c>   4</c></rc>
    <rc><c>I </c><c>   4</c></rc>
    <rc><c>I </c><c>   4</c></rc>
    <rc><c>I </c><c>   4</c></rc>
    <rc><c>I </c><c>   4</c></rc>
    <rc><c>I </c><c>   4</c></rc>
    <rc><c>I </c><c>   4</c></rc>
    <rc><c>I </c><c>   4</c></rc>
    <rc><c>I </c><c>   4</c></rc>
    <rc><c>I </c><c>   4</c></rc>
    <rc><c>I </c><c>   4</c></rc>
    <rc><c>I </c><c>   4</c></rc>
    <rc><c>I </c><c>   4</c></rc>
    <rc><c>I </c><c>   4</c></rc>
    <rc><c>I </c><c>   4</c></rc>
    <rc><c>I </c><c>   4</c></rc>
    <rc><c>I </c><c>   4</c></rc>
    <rc><c>I </c><c>   4</c></rc>
    <rc><c>I </c><c>   4</c></rc>
    <rc><c>I </c><c>   4</c></rc>
    <rc><c>I </c><c>   4</c></rc>
    <rc><c>I </c><c>   4</c></rc>
    <rc><c>I </c><c>   4</c></rc>
    <rc><c>I </c><c>   4</c></rc>
    <rc><c>I </c><c>   4</c></rc>
    <rc><c>I </c><c>   4</c></rc>
    <rc><c>I </c><c>   4</c></rc>
    <rc><c>I </c><c>   4</c></rc>
    <rc><c>I </c><c>   4</c></rc>
    <rc><c>I </c><c>   4</c></rc>
    <rc><c>I </c><c>   4</c></rc>
    <rc><c>Pb</c><c>   5</c></rc>
    <rc><c>Pb</c><c>   5</c></rc>
    <rc><c>Pb</c><c>   5</c></rc>
    <rc><c>Pb</c><c>   5</c></rc>
    <rc><c>Pb</c><c>   5</c></rc>
    <rc><c>Pb</c><c>   5</c></rc>
    <rc><c>Pb</c><c>   5</c></rc>
    <rc><c>Pb</c><c>   5</c></rc>
    <rc><c>Pb</c><c>   5</c></rc>
    <rc><c>Pb</c><c>   5</c></rc>
    <rc><c>Pb</c><c>   5</c></rc>
    <rc><c>Pb</c><c>   5</c></rc>
    <rc><c>Pb</c><c>   5</c></rc>
    <rc><c>Pb</c><c>   5</c></rc>
    <rc><c>Pb</c><c>   5</c></rc>
    <rc><c>Pb</c><c>   5</c></rc>
    <rc><c>Pb</c><c>   5</c></rc>
    <rc><c>Pb</c><c>   5</c></rc>
    <rc><c>Pb</c><c>   5</c></rc>
    <rc><c>Pb</c><c>   5</c></rc>
    <rc><c>Pb</c><c>   5</c></rc>
    <rc><c>Pb</c><c>   5</c></rc>
    <rc><c>Pb</c><c>   5</c></rc>
    <rc><c>Pb</c><c>   5</c></rc>
   </set>
  </array>
  <array name="atomtypes" >
   <dimension dim="1">type</dimension>
   <field type="int">atomspertype</field>
   <field type="string">element</field>
   <field>mass</field>
   <field>valence</field>
   <field type="string">pseudopotential</field>
   <set>
    <rc><c> 143</c><c>H </c><c>      1.00000000</c><c>      1.00000000</c><c>  PAW_PBE H 15Jun2001                   </c></rc>
    <rc><c>  39</c><c>C </c><c>     12.01100000</c><c>      4.00000000</c><c>  PAW_PBE C 08Apr2002                   </c></rc>
    <rc><c>  47</c><c>N </c><c>     14.00100000</c><c>      5.00000000</c><c>  PAW_PBE N 08Apr2002                   </c></rc>
    <rc><c>  72</c><c>I </c><c>    126.90400000</c><c>      7.00000000</c><c>  PAW_PBE I 08Apr2002                   </c></rc>
    <rc><c>  24</c><c>Pb</c><c>    207.20000000</c><c>      4.00000000</c><c>  PAW_PBE Pb 08Apr2002                  </c></rc>
   </set>
  </array>
 </atominfo>
 <structure name="initialpos" >
  <crystal>
   <varray name="basis" >
    <v>      18.06080055       0.00000000       0.00000000 </v>
    <v>      -0.00491865      18.06279945       0.00000000 </v>
    <v>       0.00000000       0.00000000      62.48749924 </v>
   </varray>
   <i name="volume">  20385.21054034 </i>
   <varray name="rec_basis" >
    <v>       0.05536853       0.00001508      -0.00000000 </v>
    <v>       0.00000000       0.05536240       0.00000000 </v>
    <v>       0.00000000      -0.00000000       0.01600320 </v>
   </varray>
  </crystal>
  <varray name="positions" >
   <v>       0.44885722       0.31037805       0.57956599 </v>
   <v>       0.44821497       0.84277953       0.57574998 </v>
   <v>       0.93171730       0.25862881       0.58312194 </v>
   <v>       0.95735386       0.80663454       0.58539064 </v>
   <v>       0.29778878       0.05286969       0.58105830 </v>
   <v>       0.30800024       0.55959984       0.58138105 </v>
   <v>       0.78298279       0.07146902       0.58166218 </v>
   <v>       0.10810264       0.21735171       0.55656988 </v>
   <v>       0.09100623       0.68115462       0.56083208 </v>
   <v>       0.57447751       0.17725923       0.55712980 </v>
   <v>       0.51188693       0.65518470       0.56708248 </v>
   <v>       0.35894647       0.02597132       0.56125075 </v>
   <v>       0.28919243       0.61300203       0.55912966 </v>
   <v>       0.85514708       0.05173413       0.56453033 </v>
   <v>       0.06678548       0.21667051       0.58126305 </v>
   <v>       0.03674643       0.69148206       0.58331638 </v>
   <v>       0.56442193       0.24535948       0.57700426 </v>
   <v>       0.48607753       0.71690537       0.58729740 </v>
   <v>       0.24689765       0.43301038       0.58214988 </v>
   <v>       0.16794614       0.00024404       0.57796667 </v>
   <v>       0.67378207       0.98664140       0.58039795 </v>
   <v>       0.37838524       0.28469604       0.56207971 </v>
   <v>       0.46326805       0.86586923       0.54904823 </v>
   <v>       0.88904576       0.27050198       0.55855593 </v>
   <v>       0.96710945       0.86760944       0.56354027 </v>
   <v>       0.19292050       0.41094722       0.56040017 </v>
   <v>       0.14938436       0.94919140       0.55534411 </v>
   <v>       0.68149204       0.91243044       0.56245997 </v>
   <v>       0.45166125       0.20005654       0.54466253 </v>
   <v>       0.50532523       0.74743158       0.54096935 </v>
   <v>       0.99996349       0.24907976       0.53905362 </v>
   <v>       0.05148394       0.79130737       0.54559228 </v>
   <v>       0.21355363       0.52314593       0.54364609 </v>
   <v>       0.26992391       0.95877369       0.54264113 </v>
   <v>       0.79688832       0.94964364       0.55018414 </v>
   <v>       0.45778246       0.30831559       0.67656067 </v>
   <v>       0.43179489       0.81537446       0.67149496 </v>
   <v>       0.96300378       0.28131593       0.68029329 </v>
   <v>       0.93571595       0.79269579       0.67431627 </v>
   <v>       0.30604510       0.05611009       0.67336985 </v>
   <v>       0.29691780       0.54919056       0.67635910 </v>
   <v>       0.79801466       0.05060111       0.67695510 </v>
   <v>       0.83970421       0.52383378       0.66964950 </v>
   <v>       0.08613433       0.17569878       0.64507348 </v>
   <v>       0.09602243       0.68910020       0.65459516 </v>
   <v>       0.56999990       0.16259228       0.65126783 </v>
   <v>       0.57353488       0.67754342       0.65847087 </v>
   <v>       0.18018172       0.41319598       0.64910322 </v>
   <v>       0.17322696       0.92069917       0.65253060 </v>
   <v>       0.65443541       0.46216944       0.65721330 </v>
   <v>       0.66899999       0.92680608       0.64894126 </v>
   <v>       0.06568015       0.18707476       0.67211136 </v>
   <v>       0.04238112       0.69603993       0.67738457 </v>
   <v>       0.55608868       0.20478875       0.67612986 </v>
   <v>       0.52892566       0.71772210       0.68048437 </v>
   <v>       0.20658442       0.43920883       0.67447353 </v>
   <v>       0.20356347       0.95525800       0.67667282 </v>
   <v>       0.72278799       0.45138250       0.67578006 </v>
   <v>       0.69100797       0.95486381       0.67461931 </v>
   <v>       0.41594663       0.32494840       0.65212409 </v>
   <v>       0.42162719       0.83385788       0.64424739 </v>
   <v>       0.92351022       0.32326666       0.65735041 </v>
   <v>       0.92990689       0.83733899       0.64981564 </v>
   <v>       0.33158635       0.07819300       0.64739322 </v>
   <v>       0.32132055       0.58519390       0.65195425 </v>
   <v>       0.83691295       0.07437516       0.65259268 </v>
   <v>       0.84445511       0.57193671       0.64530168 </v>
   <v>       0.99963857       0.25920517       0.63396103 </v>
   <v>       0.03197982       0.77839743       0.63567738 </v>
   <v>       0.48347276       0.23521094       0.63428018 </v>
   <v>       0.50985122       0.74989881       0.63405651 </v>
   <v>       0.25064864       0.99536356       0.63220799 </v>
   <v>       0.25083419       0.50410645       0.63259870 </v>
   <v>       0.76009542       0.00034824       0.63313323 </v>
   <v>       0.72798813       0.53999019       0.63580075 </v>
   <v>       0.44874502       0.30128397       0.76888902 </v>
   <v>       0.44874501       0.80128391       0.76888902 </v>
   <v>       0.94874497       0.30128397       0.76888902 </v>
   <v>       0.94874501       0.80128391       0.76888902 </v>
   <v>       0.30127600       0.05129450       0.76887296 </v>
   <v>       0.30127601       0.55129450       0.76887296 </v>
   <v>       0.80127594       0.05129450       0.76887296 </v>
   <v>       0.80127598       0.55129450       0.76887296 </v>
   <v>       0.07877100       0.17118050       0.74344197 </v>
   <v>       0.07877101       0.67118045       0.74344197 </v>
   <v>       0.57877100       0.17118050       0.74344197 </v>
   <v>       0.57877099       0.67118045       0.74344197 </v>
   <v>       0.17119950       0.42117448       0.74342103 </v>
   <v>       0.17119950       0.92117451       0.74342103 </v>
   <v>       0.67119951       0.42117448       0.74342103 </v>
   <v>       0.67119950       0.92117451       0.74342103 </v>
   <v>       0.05125600       0.19871499       0.76888902 </v>
   <v>       0.05125600       0.69871493       0.76888902 </v>
   <v>       0.55125603       0.19871499       0.76888902 </v>
   <v>       0.55125602       0.69871493       0.76888902 </v>
   <v>       0.19872349       0.44870397       0.76887205 </v>
   <v>       0.19872349       0.94870397       0.76887205 </v>
   <v>       0.69872352       0.44870397       0.76887205 </v>
   <v>       0.69872351       0.94870397       0.76887205 </v>
   <v>       0.42123152       0.32881747       0.74344197 </v>
   <v>       0.42123151       0.82881744       0.74344197 </v>
   <v>       0.92123147       0.32881747       0.74344197 </v>
   <v>       0.92123151       0.82881744       0.74344197 </v>
   <v>       0.32880050       0.07882500       0.74342103 </v>
   <v>       0.32880049       0.57882496       0.74342103 </v>
   <v>       0.82880048       0.07882500       0.74342103 </v>
   <v>       0.82880052       0.57882496       0.74342103 </v>
   <v>       0.00000350       0.25000148       0.72582199 </v>
   <v>       0.00000350       0.75000145       0.72582199 </v>
   <v>       0.50000351       0.25000148       0.72582199 </v>
   <v>       0.50000350       0.75000145       0.72582199 </v>
   <v>       0.25000050       0.00000000       0.72580398 </v>
   <v>       0.25000052       0.50000000       0.72580398 </v>
   <v>       0.75000050       0.00000000       0.72580398 </v>
   <v>       0.75000049       0.50000000       0.72580398 </v>
   <v>       0.71660582       0.44178290       0.54280309 </v>
   <v>       0.73568212       0.50114091       0.52143773 </v>
   <v>       0.65106107       0.54346291       0.56116003 </v>
   <v>       0.69391463       0.63205577       0.56119006 </v>
   <v>       0.83892681       0.50376500       0.57477414 </v>
   <v>       0.77161053       0.56853712       0.58445186 </v>
   <v>       0.86484822       0.55745905       0.53643841 </v>
   <v>       0.79612512       0.61863237       0.52867459 </v>
   <v>       0.86475355       0.47564299       0.52151086 </v>
   <v>       0.86668202       0.43720159       0.54758010 </v>
   <v>       0.88111647       0.34107855       0.52119629 </v>
   <v>       0.79468041       0.32798617       0.53408528 </v>
   <v>       0.62827566       0.54639165       0.52353312 </v>
   <v>       0.69017443       0.62172685       0.51941932 </v>
   <v>       0.60653745       0.63484655       0.53307067 </v>
   <v>       0.75153522       0.44917424       0.59898217 </v>
   <v>       0.74021918       0.40487224       0.57405738 </v>
   <v>       0.67147940       0.47014908       0.58304380 </v>
   <v>       0.83139876       0.68214606       0.56805979 </v>
   <v>       0.88091480       0.69410780       0.54419582 </v>
   <v>       0.91274512       0.62946445       0.56284005 </v>
   <v>       0.82542264       0.39528064       0.48948502 </v>
   <v>       0.79059161       0.30601372       0.49409211 </v>
   <v>       0.66526236       0.31617110       0.52148785 </v>
   <v>       0.73930268       0.47236674       0.47444310 </v>
   <v>       0.54054048       0.37081693       0.52001978 </v>
   <v>       0.61448790       0.52752091       0.47314200 </v>
   <v>       0.51331096       0.47570788       0.49632013 </v>
   <v>       0.99946078       0.24474019       0.55652257 </v>
   <v>       0.02874896       0.77386190       0.56096565 </v>
   <v>       0.47461150       0.23043536       0.55821584 </v>
   <v>       0.49122815       0.76015667       0.55710722 </v>
   <v>       0.24016984       0.51269040       0.55871722 </v>
   <v>       0.25413461       0.98638310       0.55721045 </v>
   <v>       0.76872652       0.98170821       0.56230406 </v>
   <v>       0.00472771       0.24959201       0.65132791 </v>
   <v>       0.01306373       0.76370795       0.65202317 </v>
   <v>       0.49297447       0.24384360       0.65143639 </v>
   <v>       0.49860570       0.75551073       0.65135422 </v>
   <v>       0.25056308       0.49948924       0.65013040 </v>
   <v>       0.25166732       0.99873888       0.64971406 </v>
   <v>       0.74932133       0.51665863       0.65079124 </v>
   <v>       0.75276415       0.00044677       0.65051500 </v>
   <v>       0.49998898       0.24999498       0.74327702 </v>
   <v>       0.49998903       0.74999496       0.74327702 </v>
   <v>       0.99998898       0.24999498       0.74327702 </v>
   <v>       0.99998903       0.74999496       0.74327702 </v>
   <v>       0.25000050       0.00000100       0.74325596 </v>
   <v>       0.25000052       0.50000100       0.74325596 </v>
   <v>       0.75000050       0.00000100       0.74325596 </v>
   <v>       0.75000049       0.50000100       0.74325596 </v>
   <v>       0.71203679       0.39157187       0.49795604 </v>
   <v>       0.65616908       0.36241262       0.51055033 </v>
   <v>       0.69590803       0.45063769       0.48444101 </v>
   <v>       0.58443751       0.39222381       0.50968919 </v>
   <v>       0.62556794       0.48121780       0.48350842 </v>
   <v>       0.56779463       0.45273935       0.49648276 </v>
   <v>       0.75817464       0.48082229       0.53685842 </v>
   <v>       0.68667726       0.58141200       0.55212587 </v>
   <v>       0.78009799       0.51962385       0.57438405 </v>
   <v>       0.82265650       0.59508745       0.54257794 </v>
   <v>       0.83315357       0.44110224       0.53279834 </v>
   <v>       0.82455996       0.36412989       0.52283761 </v>
   <v>       0.65229591       0.59591764       0.53055552 </v>
   <v>       0.73175570       0.45754278       0.58257654 </v>
   <v>       0.86290571       0.65275933       0.55582058 </v>
   <v>       0.79011025       0.36282769       0.50004493 </v>
   <v>       0.06211130       0.22440887       0.56534049 </v>
   <v>       0.05345352       0.71183077       0.56896530 </v>
   <v>       0.54142581       0.21424173       0.56495809 </v>
   <v>       0.50076174       0.70865631       0.57169613 </v>
   <v>       0.43267309       0.28119193       0.56670411 </v>
   <v>       0.46578215       0.82737717       0.56127431 </v>
   <v>       0.93703540       0.25954675       0.56674892 </v>
   <v>       0.97809263       0.81617825       0.56984225 </v>
   <v>       0.22692034       0.44857277       0.56763276 </v>
   <v>       0.18650036       0.97780495       0.56387829 </v>
   <v>       0.70204437       0.96103122       0.56842711 </v>
   <v>       0.30540686       0.02488763       0.56706166 </v>
   <v>       0.28158544       0.56438632       0.56688499 </v>
   <v>       0.80501039       0.03741157       0.57024943 </v>
   <v>       0.05506038       0.20179021       0.65685501 </v>
   <v>       0.05121596       0.71384083       0.66207749 </v>
   <v>       0.54240204       0.20205173       0.66031628 </v>
   <v>       0.53573489       0.71442293       0.66470039 </v>
   <v>       0.21059037       0.44736703       0.65878356 </v>
   <v>       0.20818278       0.95691993       0.66076333 </v>
   <v>       0.70708329       0.47264224       0.66174375 </v>
   <v>       0.70249874       0.95907143       0.65903153 </v>
   <v>       0.45339834       0.29587756       0.66102540 </v>
   <v>       0.44724007       0.80502173       0.65643110 </v>
   <v>       0.96090480       0.28681536       0.66400262 </v>
   <v>       0.95560350       0.79968303       0.65918781 </v>
   <v>       0.29958953       0.04742841       0.65770076 </v>
   <v>       0.29260085       0.54815774       0.66048135 </v>
   <v>       0.79865147       0.04477479       0.66113010 </v>
   <v>       0.81672652       0.53833372       0.65576471 </v>
   <v>       0.04586250       0.20411950       0.75272599 </v>
   <v>       0.04586250       0.70411946       0.75272599 </v>
   <v>       0.54586251       0.20411950       0.75272599 </v>
   <v>       0.54586250       0.70411946       0.75272599 </v>
   <v>       0.20411900       0.45410100       0.75270499 </v>
   <v>       0.20411899       0.95410095       0.75270499 </v>
   <v>       0.70411898       0.45410100       0.75270499 </v>
   <v>       0.70411896       0.95410095       0.75270499 </v>
   <v>       0.45414002       0.29588849       0.75272697 </v>
   <v>       0.45414001       0.79588852       0.75272697 </v>
   <v>       0.95414002       0.29588849       0.75272697 </v>
[...]
   <v>       0.57447751       0.17725923       0.55712980 </v>
   <v>       0.51188693       0.65518470       0.56708248 </v>
   <v>       0.35894647       0.02597132       0.56125075 </v>
   <v>       0.28919243       0.61300203       0.55912966 </v>
   <v>       0.85514708       0.05173413       0.56453033 </v>
   <v>       0.06678548       0.21667051       0.58126305 </v>
   <v>       0.03674643       0.69148206       0.58331638 </v>
   <v>       0.56442193       0.24535948       0.57700426 </v>
   <v>       0.48607753       0.71690537       0.58729740 </v>
   <v>       0.24689765       0.43301038       0.58214988 </v>
   <v>       0.16794614       0.00024404       0.57796667 </v>
   <v>       0.67378207       0.98664140       0.58039795 </v>
   <v>       0.37838524       0.28469604       0.56207971 </v>
   <v>       0.46326805       0.86586923       0.54904823 </v>
   <v>       0.88904576       0.27050198       0.55855593 </v>
   <v>       0.96710945       0.86760944       0.56354027 </v>
   <v>       0.19292050       0.41094722       0.56040017 </v>
   <v>       0.14938436       0.94919140       0.55534411 </v>
   <v>       0.68149204       0.91243044       0.56245997 </v>
   <v>       0.45166125       0.20005654       0.54466253 </v>
   <v>       0.50532523       0.74743158       0.54096935 </v>
   <v>       0.99996349       0.24907976       0.53905362 </v>
   <v>       0.05148394       0.79130737       0.54559228 </v>
   <v>       0.21355363       0.52314593       0.54364609 </v>
   <v>       0.26992391       0.95877369       0.54264113 </v>
   <v>       0.79688832       0.94964364       0.55018414 </v>
   <v>       0.45778246       0.30831559       0.67656067 </v>
   <v>       0.43179489       0.81537446       0.67149496 </v>
   <v>       0.96300378       0.28131593       0.68029329 </v>
   <v>       0.93571595       0.79269579       0.67431627 </v>
   <v>       0.30604510       0.05611009       0.67336985 </v>
   <v>       0.29691780       0.54919056       0.67635910 </v>
   <v>       0.79801466       0.05060111       0.67695510 </v>
   <v>       0.83970421       0.52383378       0.66964950 </v>
   <v>       0.08613433       0.17569878       0.64507348 </v>
   <v>       0.09602243       0.68910020       0.65459516 </v>
   <v>       0.56999990       0.16259228       0.65126783 </v>
   <v>       0.57353488       0.67754342       0.65847087 </v>
   <v>       0.18018172       0.41319598       0.64910322 </v>
   <v>       0.17322696       0.92069917       0.65253060 </v>
   <v>       0.65443541       0.46216944       0.65721330 </v>
   <v>       0.66899999       0.92680608       0.64894126 </v>
   <v>       0.06568015       0.18707476       0.67211136 </v>
   <v>       0.04238112       0.69603993       0.67738457 </v>
   <v>       0.55608868       0.20478875       0.67612986 </v>
   <v>       0.52892566       0.71772210       0.68048437 </v>
   <v>       0.20658442       0.43920883       0.67447353 </v>
   <v>       0.20356347       0.95525800       0.67667282 </v>
   <v>       0.72278799       0.45138250       0.67578006 </v>
   <v>       0.69100797       0.95486381       0.67461931 </v>
   <v>       0.41594663       0.32494840       0.65212409 </v>
   <v>       0.42162719       0.83385788       0.64424739 </v>
   <v>       0.92351022       0.32326666       0.65735041 </v>
   <v>       0.92990689       0.83733899       0.64981564 </v>
   <v>       0.33158635       0.07819300       0.64739322 </v>
   <v>       0.32132055       0.58519390       0.65195425 </v>
   <v>       0.83691295       0.07437516       0.65259268 </v>
   <v>       0.84445511       0.57193671       0.64530168 </v>
   <v>       0.99963857       0.25920517       0.63396103 </v>
   <v>       0.03197982       0.77839743       0.63567738 </v>
   <v>       0.48347276       0.23521094       0.63428018 </v>
   <v>       0.50985122       0.74989881       0.63405651 </v>
   <v>       0.25064864       0.99536356       0.63220799 </v>
   <v>       0.25083419       0.50410645       0.63259870 </v>
   <v>       0.76009542       0.00034824       0.63313323 </v>
   <v>       0.72798813       0.53999019       0.63580075 </v>
   <v>       0.44874502       0.30128397       0.76888902 </v>
   <v>       0.44874501       0.80128391       0.76888902 </v>
   <v>       0.94874497       0.30128397       0.76888902 </v>
   <v>       0.94874501       0.80128391       0.76888902 </v>
   <v>       0.30127600       0.05129450       0.76887296 </v>
   <v>       0.30127601       0.55129450       0.76887296 </v>
   <v>       0.80127594       0.05129450       0.76887296 </v>
   <v>       0.80127598       0.55129450       0.76887296 </v>
   <v>       0.07877100       0.17118050       0.74344197 </v>
   <v>       0.07877101       0.67118045       0.74344197 </v>
   <v>       0.57877100       0.17118050       0.74344197 </v>
   <v>       0.57877099       0.67118045       0.74344197 </v>
   <v>       0.17119950       0.42117448       0.74342103 </v>
   <v>       0.17119950       0.92117451       0.74342103 </v>
   <v>       0.67119951       0.42117448       0.74342103 </v>
   <v>       0.67119950       0.92117451       0.74342103 </v>
   <v>       0.05125600       0.19871499       0.76888902 </v>
   <v>       0.05125600       0.69871493       0.76888902 </v>
   <v>       0.55125603       0.19871499       0.76888902 </v>
   <v>       0.55125602       0.69871493       0.76888902 </v>
   <v>       0.19872349       0.44870397       0.76887205 </v>
   <v>       0.19872349       0.94870397       0.76887205 </v>
   <v>       0.69872352       0.44870397       0.76887205 </v>
   <v>       0.69872351       0.94870397       0.76887205 </v>
   <v>       0.42123152       0.32881747       0.74344197 </v>
   <v>       0.42123151       0.82881744       0.74344197 </v>
   <v>       0.92123147       0.32881747       0.74344197 </v>
   <v>       0.92123151       0.82881744       0.74344197 </v>
   <v>       0.32880050       0.07882500       0.74342103 </v>
   <v>       0.32880049       0.57882496       0.74342103 </v>
   <v>       0.82880048       0.07882500       0.74342103 </v>
   <v>       0.82880052       0.57882496       0.74342103 </v>
   <v>       0.00000350       0.25000148       0.72582199 </v>
   <v>       0.00000350       0.75000145       0.72582199 </v>
   <v>       0.50000351       0.25000148       0.72582199 </v>
   <v>       0.50000350       0.75000145       0.72582199 </v>
   <v>       0.25000050       0.00000000       0.72580398 </v>
   <v>       0.25000052       0.50000000       0.72580398 </v>
   <v>       0.75000050       0.00000000       0.72580398 </v>
   <v>       0.75000049       0.50000000       0.72580398 </v>
   <v>       0.71660582       0.44178290       0.54280309 </v>
   <v>       0.73568212       0.50114091       0.52143773 </v>
   <v>       0.65106107       0.54346291       0.56116003 </v>
   <v>       0.69391463       0.63205577       0.56119006 </v>
   <v>       0.83892681       0.50376500       0.57477414 </v>
   <v>       0.77161053       0.56853712       0.58445186 </v>
   <v>       0.86484822       0.55745905       0.53643841 </v>
   <v>       0.79612512       0.61863237       0.52867459 </v>
   <v>       0.86475355       0.47564299       0.52151086 </v>
   <v>       0.86668202       0.43720159       0.54758010 </v>
   <v>       0.88111647       0.34107855       0.52119629 </v>
   <v>       0.79468041       0.32798617       0.53408528 </v>
   <v>       0.62827566       0.54639165       0.52353312 </v>
   <v>       0.69017443       0.62172685       0.51941932 </v>
   <v>       0.60653745       0.63484655       0.53307067 </v>
   <v>       0.75153522       0.44917424       0.59898217 </v>
   <v>       0.74021918       0.40487224       0.57405738 </v>
   <v>       0.67147940       0.47014908       0.58304380 </v>
   <v>       0.83139876       0.68214606       0.56805979 </v>
   <v>       0.88091480       0.69410780       0.54419582 </v>
   <v>       0.91274512       0.62946445       0.56284005 </v>
   <v>       0.82542264       0.39528064       0.48948502 </v>
   <v>       0.79059161       0.30601372       0.49409211 </v>
   <v>       0.66526236       0.31617110       0.52148785 </v>
   <v>       0.73930268       0.47236674       0.47444310 </v>
   <v>       0.54054048       0.37081693       0.52001978 </v>
   <v>       0.61448790       0.52752091       0.47314200 </v>
   <v>       0.51331096       0.47570788       0.49632013 </v>
   <v>       0.99946078       0.24474019       0.55652257 </v>
   <v>       0.02874896       0.77386190       0.56096565 </v>
   <v>       0.47461150       0.23043536       0.55821584 </v>
   <v>       0.49122815       0.76015667       0.55710722 </v>
   <v>       0.24016984       0.51269040       0.55871722 </v>
   <v>       0.25413461       0.98638310       0.55721045 </v>
   <v>       0.76872652       0.98170821       0.56230406 </v>
   <v>       0.00472771       0.24959201       0.65132791 </v>
   <v>       0.01306373       0.76370795       0.65202317 </v>
   <v>       0.49297447       0.24384360       0.65143639 </v>
   <v>       0.49860570       0.75551073       0.65135422 </v>
   <v>       0.25056308       0.49948924       0.65013040 </v>
   <v>       0.25166732       0.99873888       0.64971406 </v>
   <v>       0.74932133       0.51665863       0.65079124 </v>
   <v>       0.75276415       0.00044677       0.65051500 </v>
   <v>       0.49998898       0.24999498       0.74327702 </v>
   <v>       0.49998903       0.74999496       0.74327702 </v>
   <v>       0.99998898       0.24999498       0.74327702 </v>
   <v>       0.99998903       0.74999496       0.74327702 </v>
   <v>       0.25000050       0.00000100       0.74325596 </v>
   <v>       0.25000052       0.50000100       0.74325596 </v>
   <v>       0.75000050       0.00000100       0.74325596 </v>
   <v>       0.75000049       0.50000100       0.74325596 </v>
   <v>       0.71203679       0.39157187       0.49795604 </v>
   <v>       0.65616908       0.36241262       0.51055033 </v>
   <v>       0.69590803       0.45063769       0.48444101 </v>
   <v>       0.58443751       0.39222381       0.50968919 </v>
   <v>       0.62556794       0.48121780       0.48350842 </v>
   <v>       0.56779463       0.45273935       0.49648276 </v>
   <v>       0.75817464       0.48082229       0.53685842 </v>
   <v>       0.68667726       0.58141200       0.55212587 </v>
   <v>       0.78009799       0.51962385       0.57438405 </v>
   <v>       0.82265650       0.59508745       0.54257794 </v>
   <v>       0.83315357       0.44110224       0.53279834 </v>
   <v>       0.82455996       0.36412989       0.52283761 </v>
   <v>       0.65229591       0.59591764       0.53055552 </v>
   <v>       0.73175570       0.45754278       0.58257654 </v>
   <v>       0.86290571       0.65275933       0.55582058 </v>
   <v>       0.79011025       0.36282769       0.50004493 </v>
   <v>       0.06211130       0.22440887       0.56534049 </v>
   <v>       0.05345352       0.71183077       0.56896530 </v>
   <v>       0.54142581       0.21424173       0.56495809 </v>
   <v>       0.50076174       0.70865631       0.57169613 </v>
   <v>       0.43267309       0.28119193       0.56670411 </v>
   <v>       0.46578215       0.82737717       0.56127431 </v>
   <v>       0.93703540       0.25954675       0.56674892 </v>
   <v>       0.97809263       0.81617825       0.56984225 </v>
   <v>       0.22692034       0.44857277       0.56763276 </v>
   <v>       0.18650036       0.97780495       0.56387829 </v>
   <v>       0.70204437       0.96103122       0.56842711 </v>
   <v>       0.30540686       0.02488763       0.56706166 </v>
   <v>       0.28158544       0.56438632       0.56688499 </v>
   <v>       0.80501039       0.03741157       0.57024943 </v>
   <v>       0.05506038       0.20179021       0.65685501 </v>
   <v>       0.05121596       0.71384083       0.66207749 </v>
   <v>       0.54240204       0.20205173       0.66031628 </v>
   <v>       0.53573489       0.71442293       0.66470039 </v>
   <v>       0.21059037       0.44736703       0.65878356 </v>
   <v>       0.20818278       0.95691993       0.66076333 </v>
   <v>       0.70708329       0.47264224       0.66174375 </v>
   <v>       0.70249874       0.95907143       0.65903153 </v>
   <v>       0.45339834       0.29587756       0.66102540 </v>
   <v>       0.44724007       0.80502173       0.65643110 </v>
   <v>       0.96090480       0.28681536       0.66400262 </v>
   <v>       0.95560350       0.79968303       0.65918781 </v>
   <v>       0.29958953       0.04742841       0.65770076 </v>
   <v>       0.29260085       0.54815774       0.66048135 </v>
   <v>       0.79865147       0.04477479       0.66113010 </v>
   <v>       0.81672652       0.53833372       0.65576471 </v>
   <v>       0.04586250       0.20411950       0.75272599 </v>
   <v>       0.04586250       0.70411946       0.75272599 </v>
   <v>       0.54586251       0.20411950       0.75272599 </v>
   <v>       0.54586250       0.70411946       0.75272599 </v>
   <v>       0.20411900       0.45410100       0.75270499 </v>
   <v>       0.20411899       0.95410095       0.75270499 </v>
   <v>       0.70411898       0.45410100       0.75270499 </v>
   <v>       0.70411896       0.95410095       0.75270499 </v>
   <v>       0.45414002       0.29588849       0.75272697 </v>
   <v>       0.45414001       0.79588852       0.75272697 </v>
   <v>       0.95414002       0.29588849       0.75272697 </v>
   <v>       0.95414006       0.79588852       0.75272697 </v>
   <v>       0.29588249       0.04590050       0.75270499 </v>
   <v>       0.29588248       0.54590053       0.75270499 </v>
   <v>       0.79588244       0.04590050       0.75270499 </v>
   <v>       0.79588248       0.54590053       0.75270499 </v>
   <v>       0.76172101       0.54512218       0.55175184 </v>
   <v>       0.49451968       0.01842386       0.55099821 </v>
   <v>       0.48212662       0.51744901       0.55588999 </v>
   <v>       0.99073842       0.00327029       0.55247378 </v>
   <v>       0.03332435       0.50339753       0.55420490 </v>
   <v>       0.24844706       0.24483897       0.55099283 </v>
   <v>       0.25759015       0.75524759       0.55273922 </v>
   <v>       0.74320163       0.21504797       0.55857516 </v>
   <v>       0.71282577       0.78727943       0.54674259 </v>
   <v>       0.00417752       0.00094526       0.65454541 </v>
   <v>       0.01172834       0.49121151       0.65552143 </v>
   <v>       0.49697596       0.00299493       0.65420086 </v>
   <v>       0.50495221       0.49005302       0.65557149 </v>
   <v>       0.25317552       0.24710267       0.65469003 </v>
   <v>       0.24959737       0.75479269       0.65473771 </v>
   <v>       0.74109007       0.25362879       0.65611432 </v>
   <v>       0.75297899       0.75578428       0.65313137 </v>
   <v>       0.14359284       0.10784232       0.60751824 </v>
   <v>       0.14591600       0.61302974       0.61132039 </v>
   <v>       0.64589662       0.10545802       0.61095173 </v>
   <v>       0.61929392       0.63185698       0.61552063 </v>
   <v>       0.35423856       0.39323563       0.60999182 </v>
   <v>       0.36825122       0.88753825       0.60891891 </v>
   <v>       0.88273941       0.37104937       0.61387248 </v>
   <v>       0.86104115       0.88884394       0.61069466 </v>
   <v>       0.11118108       0.35482348       0.60912415 </v>
   <v>       0.12045296       0.87517826       0.60871306 </v>
   <v>       0.58781016       0.34268618       0.60693457 </v>
   <v>       0.60985442       0.86461645       0.61026220 </v>
   <v>       0.38796678       0.13585145       0.60907855 </v>
   <v>       0.38273742       0.63187388       0.61318875 </v>
   <v>       0.88441051       0.14097715       0.61343587 </v>
   <v>       0.91528935       0.65171995       0.61709077 </v>
   <v>       0.00000000       0.00000000       0.75492797 </v>
   <v>       0.00000000       0.50000000       0.75492797 </v>
   <v>       0.50000000       0.00000000       0.75492797 </v>
   <v>       0.49999999       0.50000000       0.75492797 </v>
   <v>       0.25000050       0.25000000       0.75493902 </v>
   <v>       0.25000051       0.74999997       0.75493902 </v>
   <v>       0.75000047       0.25000000       0.75493902 </v>
   <v>       0.75000046       0.74999997       0.75493902 </v>
   <v>       0.13579050       0.11421000       0.70478299 </v>
   <v>       0.13579050       0.61420998       0.70478299 </v>
   <v>       0.63579045       0.11421000       0.70478299 </v>
   <v>       0.63579049       0.61420998       0.70478299 </v>
   <v>       0.36420952       0.38578999       0.70478299 </v>
   <v>       0.36420950       0.88578996       0.70478299 </v>
   <v>       0.86420954       0.38578999       0.70478299 </v>
   <v>       0.86420953       0.88578996       0.70478299 </v>
   <v>       0.11421799       0.36421899       0.70478098 </v>
   <v>       0.11421799       0.86421899       0.70478098 </v>
   <v>       0.61421800       0.36421899       0.70478098 </v>
   <v>       0.61421799       0.86421899       0.70478098 </v>
   <v>       0.38578201       0.13578149       0.70478202 </v>
   <v>       0.38578200       0.63578149       0.70478202 </v>
   <v>       0.88578199       0.13578149       0.70478202 </v>
   <v>       0.88578203       0.63578149       0.70478202 </v>
   <v>       0.13466700       0.11533200       0.80125603 </v>
   <v>       0.13466699       0.61533199       0.80125603 </v>
   <v>       0.63466699       0.11533200       0.80125603 </v>
   <v>       0.63466698       0.61533199       0.80125603 </v>
   <v>       0.36533300       0.38466799       0.80125603 </v>
   <v>       0.36533299       0.88466796       0.80125603 </v>
   <v>       0.86533295       0.38466799       0.80125603 </v>
   <v>       0.86533294       0.88466796       0.80125603 </v>
   <v>       0.11532850       0.36533700       0.80126500 </v>
   <v>       0.11532850       0.86533698       0.80126500 </v>
   <v>       0.61532850       0.36533700       0.80126500 </v>
   <v>       0.61532849       0.86533698       0.80126500 </v>
   <v>       0.38467151       0.13466300       0.80126500 </v>
   <v>       0.38467150       0.63466297       0.80126500 </v>
   <v>       0.88467149       0.13466300       0.80126500 </v>
   <v>       0.88467153       0.63466297       0.80126500 </v>
   <v>       0.99317385       0.00504729       0.60474144 </v>
   <v>       0.00711978       0.50439118       0.60433828 </v>
   <v>       0.50278307       0.00856041       0.60318040 </v>
   <v>       0.49878515       0.50236882       0.60527530 </v>
   <v>       0.25130501       0.25194905       0.60392719 </v>
   <v>       0.24889428       0.75370410       0.60313681 </v>
   <v>       0.74462841       0.25608071       0.60691680 </v>
   <v>       0.74201590       0.75782887       0.60287369 </v>
   <v>       0.00000050       0.00000050       0.70482896 </v>
   <v>       0.00000050       0.50000048       0.70482896 </v>
   <v>       0.50000048       0.00000050       0.70482896 </v>
   <v>       0.50000046       0.50000048       0.70482896 </v>
   <v>       0.24999999       0.24999947       0.70482499 </v>
   <v>       0.25000001       0.74999950       0.70482499 </v>
   <v>       0.74999999       0.24999947       0.70482499 </v>
   <v>       0.74999998       0.74999950       0.70482499 </v>
   <v>       0.00000000       0.00000000       0.80731797 </v>
   <v>       0.00000000       0.50000000       0.80731797 </v>
   <v>       0.50000000       0.00000000       0.80731797 </v>
   <v>       0.49999999       0.50000000       0.80731797 </v>
   <v>       0.24999999       0.25000000       0.80731797 </v>
   <v>       0.25000001       0.74999997       0.80731797 </v>
   <v>       0.74999999       0.25000000       0.80731797 </v>
   <v>       0.74999998       0.74999997       0.80731797 </v>
  </varray>
 </structure>
</modeling>
