 vasp.6.2.1 16May21 (build Nov 15 2021 14:57:28) complex                         
 executed on             LinuxPGI date 2023.07.30  20:10:57
 running on    4 total cores
 distrk:  each k-point on    4 cores,    1 groups
 distr:  one band on NCORE=   1 cores,    4 groups


--------------------------------------------------------------------------------------------------------


 INCAR:
   SYSTEM = PSC
   ISTART = 1
   ICHARG = 1
   PREC = Normal
   ENCUT = 500
   GGA_COMPAT = F
   NELM = 600
   ISYM = 0
   LREAL = Auto
   ISMEAR = 0
   SIGMA = 0.05
   AMIN = 0.01
   BMIX = 0.01
   LVTOT = T
   LWAVE = F
   LDIPOL = T
   IDIPOL = 3
   LVDW = T
   IVDW = 12

 POTCAR:    PAW_PBE H 15Jun2001                   
 POTCAR:    PAW_PBE C 08Apr2002                   
 POTCAR:    PAW_PBE N 08Apr2002                   
 POTCAR:    PAW_PBE I 08Apr2002                   
 POTCAR:    PAW_PBE Pb 08Apr2002                  
 WARNING: For LVTOT=.TRUE., VASP.5.x writes the TOTAL local potential to the
     file LOCPOT. If you want only the Hartree contributions, use LVHAR=.TRUE.
     instead. 

 POTCAR:    PAW_PBE H 15Jun2001                   
   SHA256 =  030f79b5d3ab3cf0e668861823c8fb652ff669f3e15e46930bd03bfd63a607b6 H/POTCAR              
   COPYR  = (c) Copyright 15Jun2001 Georg Kresse                                                    
   COPYR  = This file is part of the software VASP. Any use, copying, and all other rights are regul
   COPYR  = If you do not have a valid VASP license, you may not use, copy or distribute this file. 
   VRHFIN =H: ultrasoft test                                                                        
   LEXCH  = PE                                                                                      
   EATOM  =    12.4884 eV,    0.9179 Ry                                                             
                                                                                                    
   TITEL  = PAW_PBE H 15Jun2001                                                                     
   LULTRA =        F    use ultrasoft PP ?                                                          
   IUNSCR =        0    unscreen: 0-lin 1-nonlin 2-no                                               
   RPACOR =    0.000    partial core radius                                                         
   POMASS =    1.000; ZVAL   =    1.000    mass and valenz                                          
   RCORE  =    1.100    outmost cutoff radius                                                       
   RWIGS  =    0.700; RWIGS  =    0.370    wigner-seitz radius (au A)                               
   ENMAX  =  250.000; ENMIN  =  200.000 eV                                                          
   RCLOC  =    0.701    cutoff for local pot                                                        
   LCOR   =        T    correct aug charges                                                         
   LPAW   =        T    paw PP                                                                      
   EAUG   =  400.000                                                                                
   RMAX   =    1.123    core radius for proj-oper                                                   
   RAUG   =    1.200    factor for augmentation sphere                                              
   RDEP   =    1.112    radius for radial grids                                                     
   RDEPT  =    0.926    core radius for aug-charge                                                  
                                                                                                    
   Atomic configuration                                                                             
    2 entries                                                                                       
     n  l   j            E        occ.                                                              
     1  0  0.50        -6.4927   1.0000                                                             
     2  1  0.50        -3.4015   0.0000                                                             
   Description                                                                                      
     l       E           TYP  RCUT    TYP  RCUT                                                     
     0     -6.4927494     23  1.100                                                                 
     0      6.8029130     23  1.100                                                                 
     1     -4.0817478     23  1.100                                                                 
  local pseudopotential read in
  atomic valenz-charges read in
  non local Contribution for L=            0  read in
    real space projection operators read in
  non local Contribution for L=            0  read in
    real space projection operators read in
  non local Contribution for L=            1  read in
    real space projection operators read in
    PAW grid and wavefunctions read in
 
   number of l-projection  operators is LMAX  =            3
   number of lm-projection operators is LMMAX =            5
 
 POTCAR:    PAW_PBE C 08Apr2002                   
   SHA256 =  253f7b50bb8d59471dbedb8285d89021f4a42ed1a2c5d38a03a736e69125dd95 C/POTCAR              
   COPYR  = (c) Copyright 08Apr2002 Georg Kresse                                                    
   COPYR  = This file is part of the software VASP. Any use, copying, and all other rights are regul
   COPYR  = If you do not have a valid VASP license, you may not use, copy or distribute this file. 
   VRHFIN =C: s2p2                                                                                  
   LEXCH  = PE                                                                                      
   EATOM  =   147.1560 eV,   10.8157 Ry                                                             
                                                                                                    
   TITEL  = PAW_PBE C 08Apr2002                                                                     
   LULTRA =        F    use ultrasoft PP ?                                                          
   IUNSCR =        1    unscreen: 0-lin 1-nonlin 2-no                                               
   RPACOR =    1.200    partial core radius                                                         
   POMASS =   12.011; ZVAL   =    4.000    mass and valenz                                          
   RCORE  =    1.500    outmost cutoff radius                                                       
   RWIGS  =    1.630; RWIGS  =    0.863    wigner-seitz radius (au A)                               
   ENMAX  =  400.000; ENMIN  =  300.000 eV                                                          
   ICORE  =        2    local potential                                                             
   LCOR   =        T    correct aug charges                                                         
   LPAW   =        T    paw PP                                                                      
   EAUG   =  644.873                                                                                
   DEXC   =    0.000                                                                                
   RMAX   =    1.529    core radius for proj-oper                                                   
   RAUG   =    1.300    factor for augmentation sphere                                              
   RDEP   =    1.501    radius for radial grids                                                     
   RDEPT  =    1.300    core radius for aug-charge                                                  
                                                                                                    
   Atomic configuration                                                                             
    4 entries                                                                                       
     n  l   j            E        occ.                                                              
     1  0  0.50      -273.3789   2.0000                                                             
     2  0  0.50       -13.7508   2.0000                                                             
     2  1  0.50        -5.2854   2.0000                                                             
     3  2  1.50        -5.4423   0.0000                                                             
   Description                                                                                      
     l       E           TYP  RCUT    TYP  RCUT                                                     
     0    -13.7508458     23  1.200                                                                 
     0     -8.2022199     23  1.200                                                                 
     1     -5.2854383     23  1.500                                                                 
     1     34.0145650     23  1.500                                                                 
     2     -5.4423304      7  1.500                                                                 
  local pseudopotential read in
  partial core-charges read in
  partial kinetic energy density read in
  atomic valenz-charges read in
  non local Contribution for L=            0  read in
    real space projection operators read in
  non local Contribution for L=            0  read in
    real space projection operators read in
  non local Contribution for L=            1  read in
    real space projection operators read in
  non local Contribution for L=            1  read in
    real space projection operators read in
    PAW grid and wavefunctions read in
 
   number of l-projection  operators is LMAX  =            4
   number of lm-projection operators is LMMAX =            8
 
 POTCAR:    PAW_PBE N 08Apr2002                   
   SHA256 =  e053789ff3a61a86a1b75d8a110fcc91f86041011e7b0817c7c99e4e8a6349d7 N/POTCAR              
   COPYR  = (c) Copyright 08Apr2002 Georg Kresse                                                    
   COPYR  = This file is part of the software VASP. Any use, copying, and all other rights are regul
   COPYR  = If you do not have a valid VASP license, you may not use, copy or distribute this file. 
   VRHFIN =N: s2p3                                                                                  
   LEXCH  = PE                                                                                      
   EATOM  =   264.5486 eV,   19.4438 Ry                                                             
                                                                                                    
   TITEL  = PAW_PBE N 08Apr2002                                                                     
   LULTRA =        F    use ultrasoft PP ?                                                          
   IUNSCR =        1    unscreen: 0-lin 1-nonlin 2-no                                               
   RPACOR =    1.200    partial core radius                                                         
   POMASS =   14.001; ZVAL   =    5.000    mass and valenz                                          
   RCORE  =    1.500    outmost cutoff radius                                                       
   RWIGS  =    1.400; RWIGS  =    0.741    wigner-seitz radius (au A)                               
   ENMAX  =  400.000; ENMIN  =  300.000 eV                                                          
   ICORE  =        2    local potential                                                             
   LCOR   =        T    correct aug charges                                                         
   LPAW   =        T    paw PP                                                                      
   EAUG   =  627.112                                                                                
   DEXC   =    0.000                                                                                
   RMAX   =    1.529    core radius for proj-oper                                                   
   RAUG   =    1.300    factor for augmentation sphere                                              
   RDEP   =    1.514    radius for radial grids                                                     
   RDEPT  =    1.338    core radius for aug-charge                                                  
                                                                                                    
   Atomic configuration                                                                             
    4 entries                                                                                       
     n  l   j            E        occ.                                                              
     1  0  0.50      -384.7179   2.0000                                                             
     2  0  0.50       -18.5828   2.0000                                                             
     2  1  0.50        -7.0898   3.0000                                                             
     3  2  1.50        -6.8029   0.0000                                                             
   Description                                                                                      
     l       E           TYP  RCUT    TYP  RCUT                                                     
     0    -18.5828119     23  1.200                                                                 
     0    -13.5018863     23  1.200                                                                 
     1     -7.0897853     23  1.500                                                                 
     1      9.5240782     23  1.500                                                                 
     2     -6.8029130      7  1.500                                                                 
  local pseudopotential read in
  partial core-charges read in
  partial kinetic energy density read in
  atomic valenz-charges read in
  non local Contribution for L=            0  read in
    real space projection operators read in
  non local Contribution for L=            0  read in
    real space projection operators read in
  non local Contribution for L=            1  read in
    real space projection operators read in
  non local Contribution for L=            1  read in
    real space projection operators read in
    PAW grid and wavefunctions read in
 
   number of l-projection  operators is LMAX  =            4
   number of lm-projection operators is LMMAX =            8
 
 POTCAR:    PAW_PBE I 08Apr2002                   
   SHA256 =  e40f3f59b681c1fc3e3091736183c4589116986673d2b852a5012aec72758799 I/POTCAR              
   COPYR  = (c) Copyright 08Apr2002 Georg Kresse                                                    
   COPYR  = This file is part of the software VASP. Any use, copying, and all other rights are regul
   COPYR  = If you do not have a valid VASP license, you may not use, copy or distribute this file. 
   VRHFIN =I : s2p5                                                                                 
   LEXCH  = PE                                                                                      
   EATOM  =   315.8678 eV,   23.2156 Ry                                                             
                                                                                                    
   TITEL  = PAW_PBE I 08Apr2002                                                                     
   LULTRA =        F    use ultrasoft PP ?                                                          
   IUNSCR =        1    unscreen: 0-lin 1-nonlin 2-no                                               
   RPACOR =    2.200    partial core radius                                                         
   POMASS =  126.904; ZVAL   =    7.000    mass and valenz                                          
   RCORE  =    2.300    outmost cutoff radius                                                       
   RWIGS  =    2.810; RWIGS  =    1.487    wigner-seitz radius (au A)                               
   ENMAX  =  175.647; ENMIN  =  131.735 eV                                                          
   ICORE  =        3    local potential                                                             
   LCOR   =        T    correct aug charges                                                         
   LPAW   =        T    paw PP                                                                      
   EAUG   =  370.139                                                                                
   DEXC   =    0.000                                                                                
   RMAX   =    2.359    core radius for proj-oper                                                   
   RAUG   =    1.300    factor for augmentation sphere                                              
   RDEP   =    2.392    radius for radial grids                                                     
   RDEPT  =    2.170    core radius for aug-charge                                                  
                                                                                                    
   Atomic configuration                                                                             
   13 entries                                                                                       
     n  l   j            E        occ.                                                              
     1  0  0.50    -32976.3739   2.0000                                                             
     2  0  0.50     -5094.5933   2.0000                                                             
     2  1  1.50     -4572.0131   6.0000                                                             
     3  0  0.50     -1028.2813   2.0000                                                             
     3  1  1.50      -859.0250   6.0000                                                             
     3  2  2.50      -605.7620  10.0000                                                             
     4  0  0.50      -180.5540   2.0000                                                             
     4  1  1.50      -127.5306   6.0000                                                             
     4  2  2.50       -50.2720  10.0000                                                             
     5  0  0.50       -17.4058   2.0000                                                             
     5  1  0.50        -7.0851   5.0000                                                             
     5  2  1.50        -7.0750   0.0000                                                             
     4  3  2.50        -7.0750   0.0000                                                             
   Description                                                                                      
     l       E           TYP  RCUT    TYP  RCUT                                                     
     0    -17.4058016     23  2.300                                                                 
     0    -18.7663842     23  2.300                                                                 
     1     -7.0850686     23  2.300                                                                 
     1     -4.2150896     23  2.300                                                                 
     2     -7.0750295     23  2.300                                                                 
     3     -1.3605826     23  2.300                                                                 
  local pseudopotential read in
  partial core-charges read in
  partial kinetic energy density read in
  atomic valenz-charges read in
  non local Contribution for L=            0  read in
    real space projection operators read in
  non local Contribution for L=            0  read in
    real space projection operators read in
  non local Contribution for L=            1  read in
    real space projection operators read in
  non local Contribution for L=            1  read in
    real space projection operators read in
  non local Contribution for L=            2  read in
    real space projection operators read in
    PAW grid and wavefunctions read in
 
   number of l-projection  operators is LMAX  =            5
   number of lm-projection operators is LMMAX =           13
 
 POTCAR:    PAW_PBE Pb 08Apr2002                  
   SHA256 =  797118a27cf1bcd06b9881c67a26cdde129e3cd1a551dd4a281f9681ce847303 Pb/POTCAR             
   COPYR  = (c) Copyright 08Apr2002 Georg Kresse                                                    
   COPYR  = This file is part of the software VASP. Any use, copying, and all other rights are regul
   COPYR  = If you do not have a valid VASP license, you may not use, copy or distribute this file. 
   VRHFIN =Pb:                                                                                      
   LEXCH  = PE                                                                                      
   EATOM  =    96.9868 eV,    7.1283 Ry                                                             
                                                                                                    
   TITEL  = PAW_PBE Pb 08Apr2002                                                                    
   LULTRA =        F    use ultrasoft PP ?                                                          
   IUNSCR =        1    unscreen: 0-lin 1-nonlin 2-no                                               
   RPACOR =    2.200    partial core radius                                                         
   POMASS =  207.200; ZVAL   =    4.000    mass and valenz                                          
   RCORE  =    3.100    outmost cutoff radius                                                       
   RWIGS  =    3.260; RWIGS  =    1.725    wigner-seitz radius (au A)                               
   ENMAX  =   97.973; ENMIN  =   73.480 eV                                                          
   ICORE  =        3    local potential                                                             
   LCOR   =        T    correct aug charges                                                         
   LPAW   =        T    paw PP                                                                      
   EAUG   =  234.873                                                                                
   DEXC   =    0.000                                                                                
   RMAX   =    3.158    core radius for proj-oper                                                   
   RAUG   =    1.300    factor for augmentation sphere                                              
   RDEP   =    3.202    radius for radial grids                                                     
   RDEPT  =    2.659    core radius for aug-charge                                                  
                                                                                                    
   Atomic configuration                                                                             
   17 entries                                                                                       
     n  l   j            E        occ.                                                              
     1  0  0.50    -88091.8466   2.0000                                                             
     2  0  0.50    -15753.4197   2.0000                                                             
     2  1  1.50    -13508.1797   6.0000                                                             
     3  0  0.50     -3781.7194   2.0000                                                             
     3  1  1.50     -3138.2529   6.0000                                                             
     3  2  2.50     -2483.2977  10.0000                                                             
     4  0  0.50      -856.2895   2.0000                                                             
     4  1  1.50      -645.4943   6.0000                                                             
     4  2  2.50      -401.8768  10.0000                                                             
     4  3  3.50      -132.9059  14.0000                                                             
     5  0  0.50      -144.0950   2.0000                                                             
     5  1  1.50       -85.7879   6.0000                                                             
     5  2  2.50       -21.1769  10.0000                                                             
     6  0  0.50       -12.0372   2.0000                                                             
     6  1  1.50        -3.4971   2.0000                                                             
     6  2  2.50        -1.3606   0.0000                                                             
     5  3  2.50        -2.7212   0.0000                                                             
   Description                                                                                      
     l       E           TYP  RCUT    TYP  RCUT                                                     
     0    -12.0371566     23  3.100                                                                 
     0    -13.3977392     23  3.100                                                                 
     1     -3.4971341     23  3.100                                                                 
     1     -5.4423304     23  3.100                                                                 
     2     -1.3605826     23  3.100                                                                 
     3     -1.3605826     23  3.100                                                                 
  local pseudopotential read in
  partial core-charges read in
  partial kinetic energy density read in
  atomic valenz-charges read in
  non local Contribution for L=            0  read in
    real space projection operators read in
  non local Contribution for L=            0  read in
    real space projection operators read in
  non local Contribution for L=            1  read in
    real space projection operators read in
  non local Contribution for L=            1  read in
    real space projection operators read in
  non local Contribution for L=            2  read in
    real space projection operators read in
    PAW grid and wavefunctions read in
 
   number of l-projection  operators is LMAX  =            5
   number of lm-projection operators is LMMAX =           13
 
 Optimization of the real space projectors (new method)

 maximal supplied QI-value         = 34.20
 optimisation between [QCUT,QGAM] = [ 11.29, 22.57] = [ 35.68,142.71] Ry 
 Optimized for a Real-space Cutoff    1.16 Angstroem

   l    n(q)    QCUT    max X(q) W(low)/X(q) W(high)/X(q)  e(spline) 
   0      8    11.287    19.460    0.40E-03    0.73E-03    0.16E-06
   0      8    11.287    12.209    0.38E-03    0.70E-03    0.15E-06
   1      7    11.287     4.655    0.22E-03    0.25E-04    0.22E-06
 Optimization of the real space projectors (new method)

 maximal supplied QI-value         = 25.13
 optimisation between [QCUT,QGAM] = [ 11.31, 22.87] = [ 35.82,146.48] Ry 
 Optimized for a Real-space Cutoff    1.00 Angstroem

   l    n(q)    QCUT    max X(q) W(low)/X(q) W(high)/X(q)  e(spline) 
   0      7    11.310   115.676    0.43E-03    0.13E-02    0.19E-06
   0      7    11.310    87.132    0.43E-03    0.13E-02    0.18E-06
   1      6    11.310     4.429    0.42E-03    0.74E-03    0.11E-06
   1      6    11.310     2.733    0.34E-03    0.55E-03    0.92E-07
 Optimization of the real space projectors (new method)

 maximal supplied QI-value         = 25.13
 optimisation between [QCUT,QGAM] = [ 11.31, 22.87] = [ 35.82,146.48] Ry 
 Optimized for a Real-space Cutoff    1.27 Angstroem

   l    n(q)    QCUT    max X(q) W(low)/X(q) W(high)/X(q)  e(spline) 
   0      9    11.310    79.467    0.75E-04    0.16E-03    0.36E-06
   0      9    11.310    66.151    0.74E-04    0.16E-03    0.36E-06
   1      8    11.310    17.416    0.35E-03    0.12E-03    0.95E-06
   1      8    11.310    12.382    0.37E-03    0.13E-03    0.98E-06
 Optimization of the real space projectors (new method)

 maximal supplied QI-value         = 16.25
 optimisation between [QCUT,QGAM] = [ 11.38, 22.75] = [ 36.24,144.96] Ry 
 Optimized for a Real-space Cutoff    1.31 Angstroem

   l    n(q)    QCUT    max X(q) W(low)/X(q) W(high)/X(q)  e(spline) 
   0      9    11.376   194.483    0.24E-03    0.23E-03    0.67E-07
   0      9    11.376   190.334    0.23E-03    0.22E-03    0.65E-07
   1      8    11.376   116.687    0.25E-03    0.63E-04    0.16E-06
   1      8    11.376    88.696    0.25E-03    0.61E-04    0.16E-06
   2      8    11.376     4.877    0.17E-03    0.14E-03    0.29E-07
 Optimization of the real space projectors (new method)

 maximal supplied QI-value         = 12.09
 optimisation between [QCUT,QGAM] = [ 11.37, 22.86] = [ 36.19,146.31] Ry 
 Optimized for a Real-space Cutoff    1.66 Angstroem

   l    n(q)    QCUT    max X(q) W(low)/X(q) W(high)/X(q)  e(spline) 
   0     11    11.369   135.111    0.12E-03    0.69E-04    0.19E-05
   0     11    11.369   146.850    0.11E-03    0.65E-04    0.18E-05
   1     11    11.369   148.016    0.17E-03    0.32E-03    0.89E-06
   1     11    11.369   122.989    0.17E-03    0.32E-03    0.91E-06
   2     10    11.369     8.916    0.12E-03    0.45E-04    0.33E-06
  PAW_PBE H 15Jun2001                   :
 energy of atom  1       EATOM=  -12.4884
 kinetic energy error for atom=    0.0020 (will be added to EATOM!!)
  PAW_PBE C 08Apr2002                   :
 energy of atom  2       EATOM= -147.1560
 kinetic energy error for atom=    0.0076 (will be added to EATOM!!)
  PAW_PBE N 08Apr2002                   :
 energy of atom  3       EATOM= -264.5486
 kinetic energy error for atom=    0.0138 (will be added to EATOM!!)
  PAW_PBE I 08Apr2002                   :
 energy of atom  4       EATOM= -315.8678
 kinetic energy error for atom=    0.0009 (will be added to EATOM!!)
  PAW_PBE Pb 08Apr2002                  :
 energy of atom  5       EATOM=  -96.9868
 kinetic energy error for atom=    0.0000 (will be added to EATOM!!)
 
 
 POSCAR:  H  C  N  I Pb
  positions in cartesian coordinates
  No initial velocities read in
 exchange correlation table for  LEXCH =        8
   RHO(1)=    0.500       N(1)  =     2000
   RHO(2)=  100.500       N(2)  =     4000
 


--------------------------------------------------------------------------------------------------------


 ion  position               nearest neighbor table
   1  0.470  0.330  0.572- 187 1.01
   2  0.451  0.839  0.574- 188 1.02
   3  0.921  0.241  0.581- 189 1.02
   4  0.942  0.812  0.577- 190 1.03
   5  0.317  0.070  0.571- 194 1.02
   6  0.333  0.569  0.572- 195 1.02
   7  0.794  0.085  0.575- 196 1.02
   8  0.104  0.248  0.558- 183 1.03
   9  0.089  0.676  0.572- 184 1.02
  10  0.557  0.157  0.559- 185 1.02
  11  0.493  0.647  0.563- 186 1.03
  12  0.367  0.005  0.557- 194 1.04
  13  0.280  0.632  0.558- 195 1.04
  14  0.867  0.029  0.565- 196 1.03
  15  0.057  0.242  0.582- 183 1.02
  16  0.010  0.694  0.586- 184 1.03
  17  0.573  0.243  0.571- 185 1.02
  18  0.454  0.705  0.582- 186 1.03
  19  0.284  0.440  0.575- 191 1.02
  20  0.179  0.056  0.571- 192 1.02
  21  0.667  0.029  0.573- 193 1.02
  22  0.387  0.301  0.560- 187 1.02
  23  0.501  0.869  0.551- 188 1.02
  24  0.878  0.235  0.556- 189 1.03
  25  0.985  0.868  0.557- 190 1.03
  26  0.200  0.422  0.563- 191 1.04
  27  0.141  0.986  0.556- 192 1.03
  28  0.663  0.939  0.563- 193 1.03
  29  0.437  0.188  0.550- 146 1.09
  30  0.533  0.746  0.542- 147 1.08
  31  0.994  0.244  0.538- 144 1.10
  32  0.080  0.782  0.551- 145 1.10
  33  0.188  0.543  0.550- 148 1.09
  34  0.260  0.941  0.546- 149 1.09
  35  0.789  0.934  0.556- 150 1.10
  36  0.467  0.310  0.674- 205 1.02
  37  0.442  0.809  0.673- 206 1.02
  38  0.950  0.277  0.677- 207 1.02
  39  0.923  0.753  0.674- 208 1.00
  40  0.308  0.052  0.672- 209 1.02
  41  0.293  0.547  0.677- 210 1.02
  42  0.790  0.054  0.675- 211 1.02
  43  0.846  0.477  0.665- 212 1.02
  44  0.092  0.174  0.647- 197 1.02
  45  0.103  0.702  0.652- 198 1.02
  46  0.579  0.167  0.648- 199 1.02
  47  0.575  0.670  0.654- 200 1.02
  48  0.184  0.409  0.647- 201 1.02
  49  0.172  0.923  0.648- 202 1.03
  50  0.646  0.480  0.660- 203 1.02
  51  0.679  0.911  0.648- 204 1.03
  52  0.058  0.184  0.673- 197 1.02
  53  0.042  0.677  0.673- 198 1.02
  54  0.568  0.211  0.672- 199 1.02
  55  0.537  0.703  0.677- 200 1.01
  56  0.204  0.436  0.674- 201 1.02
  57  0.202  0.953  0.674- 202 1.02
  58  0.718  0.428  0.671- 203 1.01
  59  0.699  0.942  0.674- 204 1.02
  60  0.419  0.322  0.650- 205 1.01
  61  0.426  0.833  0.646- 206 1.02
  62  0.925  0.321  0.653- 207 1.03
  63  0.915  0.821  0.654- 208 1.01
  64  0.336  0.074  0.646- 209 1.02
  65  0.320  0.584  0.652- 210 1.01
  66  0.822  0.082  0.650- 211 1.02
  67  0.854  0.554  0.648- 212 1.03
  68  0.013  0.259  0.632- 151 1.09
  69  0.028  0.795  0.639- 152 1.10
  70  0.487  0.234  0.631- 153 1.09
  71  0.508  0.750  0.632- 154 1.10
  72  0.255  0.996  0.630- 156 1.10
  73  0.254  0.500  0.632- 155 1.10
  74  0.756  0.995  0.631- 158 1.10
  75  0.726  0.563  0.643- 157 1.11
  76  0.449  0.301  0.769- 221 1.02
  77  0.449  0.801  0.769- 222 1.02
  78  0.949  0.301  0.769- 223 1.02
  79  0.949  0.801  0.769- 224 1.02
  80  0.301  0.051  0.769- 225 1.02
  81  0.301  0.551  0.769- 226 1.02
  82  0.801  0.051  0.769- 227 1.02
  83  0.801  0.551  0.769- 228 1.02
  84  0.079  0.171  0.743- 213 1.02
  85  0.079  0.671  0.743- 214 1.02
  86  0.579  0.171  0.743- 215 1.02
  87  0.579  0.671  0.743- 216 1.02
  88  0.171  0.421  0.743- 217 1.02
  89  0.171  0.921  0.743- 218 1.02
  90  0.671  0.421  0.743- 219 1.02
  91  0.671  0.921  0.743- 220 1.02
  92  0.051  0.199  0.769- 213 1.02
  93  0.051  0.699  0.769- 214 1.02
  94  0.551  0.199  0.769- 215 1.02
  95  0.551  0.699  0.769- 216 1.02
  96  0.199  0.449  0.769- 217 1.02
  97  0.199  0.949  0.769- 218 1.02
  98  0.699  0.449  0.769- 219 1.02
  99  0.699  0.949  0.769- 220 1.02
 100  0.421  0.329  0.743- 221 1.02
 101  0.421  0.829  0.743- 222 1.02
 102  0.921  0.329  0.743- 223 1.02
 103  0.921  0.829  0.743- 224 1.02
 104  0.329  0.079  0.743- 225 1.02
 105  0.329  0.579  0.743- 226 1.02
 106  0.829  0.079  0.743- 227 1.02
 107  0.829  0.579  0.743- 228 1.02
 108  0.000  0.250  0.726- 161 1.09
 109  0.000  0.750  0.726- 162 1.09
 110  0.500  0.250  0.726- 159 1.09
 111  0.500  0.750  0.726- 160 1.09
 112  0.250  0.000  0.726- 163 1.09
 113  0.250  0.500  0.726- 164 1.09
 114  0.750  0.000  0.726- 165 1.09
 115  0.750  0.500  0.726- 166 1.09
 116  0.719  0.439  0.542- 173 1.09
 117  0.736  0.494  0.519- 173 1.10
 118  0.658  0.554  0.559- 174 1.10
 119  0.710  0.637  0.557- 174 1.10
 120  0.848  0.504  0.571- 175 1.10
 121  0.787  0.572  0.580- 175 1.09
 122  0.868  0.561  0.530- 176 1.10
 123  0.795  0.625  0.526- 176 1.09
 124  0.867  0.463  0.519- 177 1.10
 125  0.864  0.422  0.544- 177 1.11
 126  0.870  0.325  0.518- 178 1.10
 127  0.783  0.322  0.530- 178 1.10
 128  0.636  0.551  0.520- 179 1.10
 129  0.688  0.636  0.517- 179 1.10
 130  0.607  0.633  0.533- 179 1.10
 131  0.753  0.461  0.598- 180 1.10
 132  0.754  0.408  0.574- 180 1.09
 133  0.682  0.473  0.579- 180 1.09
 134  0.819  0.688  0.560- 181 1.10
 135  0.902  0.681  0.545- 181 1.09
 136  0.889  0.622  0.567- 181 1.09
 137  0.819  0.383  0.485- 182 1.11
 138  0.782  0.295  0.491- 182 1.11
 139  0.662  0.313  0.520- 168 1.09
 140  0.728  0.462  0.470- 169 1.09
 141  0.537  0.370  0.520- 170 1.09
 142  0.602  0.517  0.469- 171 1.10
 143  0.506  0.471  0.495- 172 1.09
 144  0.991  0.243  0.556-  31 1.10 183 1.30 189 1.31
 145  0.036  0.770  0.563-  32 1.10 184 1.30 190 1.32
 146  0.472  0.229  0.558-  29 1.09 187 1.30 185 1.31
 147  0.501  0.757  0.557-  30 1.08 186 1.31 188 1.31
 148  0.238  0.528  0.559-  33 1.09 191 1.31 195 1.31
 149  0.254  0.991  0.555-  34 1.09 194 1.30 192 1.31
 150  0.765  0.984  0.563-  35 1.10 193 1.31 196 1.31
 151  0.008  0.247  0.650-  68 1.09 207 1.31 197 1.32
 152  0.009  0.762  0.653-  69 1.10 208 1.31 198 1.32
 153  0.499  0.245  0.648-  70 1.09 205 1.31 199 1.31
 154  0.500  0.752  0.650-  71 1.10 206 1.31 200 1.32
 155  0.252  0.496  0.650-  73 1.10 201 1.31 210 1.33
 156  0.254  0.999  0.647-  72 1.10 202 1.31 209 1.31
 157  0.749  0.518  0.653-  75 1.11 203 1.31 212 1.31
 158  0.751  0.996  0.649-  74 1.10 204 1.31 211 1.32
 159  0.500  0.250  0.743- 110 1.09 221 1.31 215 1.31
 160  0.500  0.750  0.743- 111 1.09 222 1.31 216 1.31
 161  1.000  0.250  0.743- 108 1.09 223 1.31 213 1.31
 162  1.000  0.750  0.743- 109 1.09 224 1.31 214 1.31
 163  0.250  0.000  0.743- 112 1.09 225 1.31 218 1.31
 164  0.250  0.500  0.743- 113 1.09 226 1.31 217 1.31
 165  0.750  0.000  0.743- 114 1.09 227 1.31 220 1.31
 166  0.750  0.500  0.743- 115 1.09 228 1.31 219 1.31
 167  0.704  0.384  0.495- 168 1.40 169 1.41 182 1.52
 168  0.649  0.358  0.509- 139 1.09 170 1.40 167 1.40
 169  0.686  0.441  0.481- 140 1.09 171 1.40 167 1.41
 170  0.579  0.389  0.509- 141 1.09 172 1.39 168 1.40
 171  0.616  0.472  0.480- 142 1.10 169 1.40 172 1.41
 172  0.561  0.445  0.495- 143 1.09 170 1.39 171 1.41
 173  0.760  0.474  0.534- 116 1.09 117 1.10 229 1.53 177 1.53
 174  0.696  0.585  0.549- 118 1.10 119 1.10 179 1.51 229 1.52
 175  0.790  0.521  0.571- 121 1.09 120 1.10 180 1.51 229 1.52
 176  0.825  0.595  0.538- 123 1.09 122 1.10 181 1.51 229 1.52
 177  0.831  0.431  0.530- 124 1.10 125 1.11 173 1.53 178 1.54
 178  0.817  0.355  0.519- 127 1.10 126 1.10 182 1.54 177 1.54
 179  0.657  0.601  0.528- 128 1.10 129 1.10 130 1.10 174 1.51
 180  0.741  0.463  0.581- 132 1.09 133 1.09 131 1.10 175 1.51
 181  0.860  0.649  0.553- 136 1.09 135 1.09 134 1.10 176 1.51
 182  0.782  0.353  0.497- 138 1.11 137 1.11 167 1.52 178 1.54
 183  0.054  0.242  0.566-  15 1.02   8 1.03 144 1.30
 184  0.045  0.709  0.574-   9 1.02  16 1.03 145 1.30
 185  0.540  0.210  0.562-  17 1.02  10 1.02 146 1.31
 186  0.485  0.700  0.569-  18 1.03  11 1.03 147 1.31
 187  0.443  0.293  0.563-   1 1.01  22 1.02 146 1.30
 188  0.482  0.826  0.560-  23 1.02   2 1.02 147 1.31
 189  0.926  0.244  0.565-   3 1.02  24 1.03 144 1.31
 190  0.980  0.816  0.564-   4 1.03  25 1.03 145 1.32
 191  0.242  0.459  0.566-  19 1.02  26 1.04 148 1.31
 192  0.188  0.013  0.561-  20 1.02  27 1.03 149 1.31
 193  0.693  0.987  0.566-  21 1.02  28 1.03 150 1.31
 194  0.315  0.026  0.561-   5 1.02  12 1.04 149 1.30
 195  0.289  0.578  0.562-   6 1.02  13 1.04 148 1.31
 196  0.811  0.037  0.568-   7 1.02  14 1.03 150 1.31
 197  0.055  0.198  0.657-  52 1.02  44 1.02 151 1.32
 198  0.053  0.710  0.660-  53 1.02  45 1.02 152 1.32
 199  0.553  0.206  0.657-  46 1.02  54 1.02 153 1.31
 200  0.540  0.705  0.661-  55 1.01  47 1.02 154 1.32
 201  0.212  0.443  0.658-  56 1.02  48 1.02 155 1.31
 202  0.206  0.957  0.657-  57 1.02  49 1.03 156 1.31
 203  0.702  0.471  0.662-  58 1.01  50 1.02 157 1.31
 204  0.707  0.947  0.658-  59 1.02  51 1.03 158 1.31
 205  0.460  0.296  0.658-  60 1.01  36 1.02 153 1.31
 206  0.453  0.801  0.657-  37 1.02  61 1.02 154 1.31
 207  0.959  0.283  0.661-  38 1.02  62 1.03 151 1.31
 208  0.945  0.780  0.661-  39 1.00  63 1.01 152 1.31
 209  0.302  0.044  0.656-  64 1.02  40 1.02 156 1.31
 210  0.291  0.545  0.660-  65 1.01  41 1.02 155 1.33
 211  0.790  0.047  0.658-  42 1.02  66 1.02 158 1.32
 212  0.820  0.516  0.656-  43 1.02  67 1.03 157 1.31
 213  0.046  0.204  0.753-  92 1.02  84 1.02 161 1.31
 214  0.046  0.704  0.753-  93 1.02  85 1.02 162 1.31
 215  0.546  0.204  0.753-  94 1.02  86 1.02 159 1.31
 216  0.546  0.704  0.753-  95 1.02  87 1.02 160 1.31
 217  0.204  0.454  0.753-  96 1.02  88 1.02 164 1.31
 218  0.204  0.954  0.753-  97 1.02  89 1.02 163 1.31
 219  0.704  0.454  0.753-  98 1.02  90 1.02 166 1.31
 220  0.704  0.954  0.753-  99 1.02  91 1.02 165 1.31
 221  0.454  0.296  0.753-  76 1.02 100 1.02 159 1.31
 222  0.454  0.796  0.753-  77 1.02 101 1.02 160 1.31
 223  0.954  0.296  0.753-  78 1.02 102 1.02 161 1.31
 224  0.954  0.796  0.753-  79 1.02 103 1.02 162 1.31
 225  0.296  0.046  0.753-  80 1.02 104 1.02 163 1.31
 226  0.296  0.546  0.753-  81 1.02 105 1.02 164 1.31
 227  0.796  0.046  0.753-  82 1.02 106 1.02 165 1.31
 228  0.796  0.546  0.753-  83 1.02 107 1.02 166 1.31
 229  0.769  0.543  0.548- 176 1.52 175 1.52 174 1.52 173 1.53
 230  0.508  0.016  0.552- 304 3.30
 231  0.483  0.510  0.555- 305 3.15
 232  0.995  0.006  0.552- 302 3.32
 233  0.033  0.507  0.555- 303 3.16
 234  0.250  0.248  0.553- 306 3.22
 235  0.239  0.767  0.553- 307 3.21
 236  0.733  0.211  0.556- 308 3.20
 237  0.702  0.795  0.553- 309 3.22
 238  0.001  0.993  0.654- 302 3.10 310 3.15
 239  0.018  0.494  0.655- 311 3.10 303 3.18
 240  0.503  0.003  0.654- 304 3.13 312 3.15
 241  0.504  0.495  0.655- 313 3.09 305 3.16
 242  0.257  0.244  0.655- 314 3.11 306 3.15
 243  0.251  0.757  0.655- 315 3.15 307 3.17
 244  0.747  0.267  0.655- 316 3.10 308 3.13
 245  0.748  0.743  0.654- 317 3.19 309 3.23
 246  0.135  0.118  0.607- 302 3.24 306 3.25
 247  0.149  0.609  0.611- 307 3.18 303 3.19
 248  0.641  0.114  0.610- 304 3.18 308 3.22
 249  0.626  0.623  0.612- 305 3.19 309 3.24
 250  0.363  0.389  0.609- 306 3.16 305 3.22
 251  0.373  0.882  0.606- 304 3.24 307 3.25
 252  0.886  0.371  0.611- 308 3.29 303 3.30
 253  0.867  0.880  0.609- 309 3.21 302 3.24
 254  0.121  0.365  0.609- 306 3.07 303 3.29
 255  0.123  0.876  0.608- 307 3.16 302 3.23
 256  0.592  0.347  0.603- 308 3.21 305 3.27
 257  0.613  0.866  0.611- 309 3.07 304 3.26
 258  0.384  0.132  0.606- 304 3.13 306 3.28
 259  0.381  0.633  0.612- 305 3.23 307 3.30
 260  0.885  0.140  0.612- 302 3.23 308 3.32
 261  0.908  0.647  0.616- 303 3.19 309 3.73
 262  0.000  0.000  0.755- 310 3.13 318 3.27
 263  0.000  0.500  0.755- 311 3.13 319 3.27
 264  0.500  0.000  0.755- 312 3.13 320 3.27
 265  0.500  0.500  0.755- 313 3.13 321 3.27
 266  0.250  0.250  0.755- 314 3.13 322 3.27
 267  0.250  0.750  0.755- 315 3.13 323 3.27
 268  0.750  0.250  0.755- 316 3.13 324 3.27
 269  0.750  0.750  0.755- 317 3.13 325 3.27
 270  0.136  0.114  0.705- 310 3.20 314 3.20
 271  0.136  0.614  0.705- 311 3.20 315 3.20
 272  0.636  0.114  0.705- 312 3.20 316 3.20
 273  0.636  0.614  0.705- 313 3.20 317 3.20
 274  0.364  0.386  0.705- 313 3.20 314 3.20
 275  0.364  0.886  0.705- 312 3.20 315 3.20
 276  0.864  0.386  0.705- 311 3.20 316 3.20
 277  0.864  0.886  0.705- 310 3.20 317 3.20
 278  0.114  0.364  0.705- 314 3.21 311 3.21
 279  0.114  0.864  0.705- 315 3.21 310 3.21
 280  0.614  0.364  0.705- 316 3.21 313 3.21
 281  0.614  0.864  0.705- 317 3.21 312 3.21
 282  0.386  0.136  0.705- 314 3.21 312 3.21
 283  0.386  0.636  0.705- 315 3.21 313 3.21
 284  0.886  0.136  0.705- 316 3.21 310 3.21
 285  0.886  0.636  0.705- 317 3.21 311 3.21
 286  0.135  0.115  0.801- 318 3.22 322 3.22
 287  0.135  0.615  0.801- 319 3.22 323 3.22
 288  0.635  0.115  0.801- 320 3.22 324 3.22
 289  0.635  0.615  0.801- 321 3.22 325 3.22
 290  0.365  0.385  0.801- 321 3.22 322 3.22
 291  0.365  0.885  0.801- 320 3.22 323 3.22
 292  0.865  0.385  0.801- 319 3.22 324 3.22
 293  0.865  0.885  0.801- 318 3.22 325 3.22
 294  0.115  0.365  0.801- 319 3.23 322 3.23
 295  0.115  0.865  0.801- 318 3.23 323 3.23
 296  0.615  0.365  0.801- 321 3.23 324 3.23
 297  0.615  0.865  0.801- 320 3.23 325 3.23
 298  0.385  0.135  0.801- 320 3.23 322 3.23
 299  0.385  0.635  0.801- 321 3.23 323 3.23
 300  0.885  0.135  0.801- 318 3.23 324 3.23
 301  0.885  0.635  0.801- 319 3.23 325 3.23
 302  0.997  0.003  0.605- 238 3.10 255 3.23 260 3.23 246 3.24 253 3.24 232 3.32
 303  0.007  0.506  0.605- 233 3.16 239 3.18 261 3.19 247 3.19 254 3.29 252 3.30
 304  0.502  0.006  0.604- 258 3.13 240 3.13 248 3.18 251 3.24 257 3.26 230 3.30
 305  0.500  0.502  0.605- 231 3.15 241 3.16 249 3.19 250 3.22 259 3.23 256 3.27
 306  0.250  0.255  0.605- 254 3.07 242 3.15 250 3.16 234 3.22 246 3.25 258 3.28
 307  0.247  0.754  0.604- 255 3.16 243 3.17 247 3.18 235 3.21 251 3.25 259 3.30
 308  0.746  0.257  0.605- 244 3.13 236 3.20 256 3.21 248 3.22 252 3.29 260 3.32
 309  0.740  0.757  0.602- 257 3.07 253 3.21 237 3.22 245 3.23 249 3.24 261 3.73
 310  0.000  0.000  0.705- 262 3.13 238 3.15 270 3.20 277 3.20 279 3.21 284 3.21
 311  0.000  0.500  0.705- 239 3.10 263 3.13 271 3.20 276 3.20 278 3.21 285 3.21
 312  0.500  0.000  0.705- 264 3.13 240 3.15 272 3.20 275 3.20 281 3.21 282 3.21
 313  0.500  0.500  0.705- 241 3.09 265 3.13 273 3.20 274 3.20 280 3.21 283 3.21
 314  0.250  0.250  0.705- 242 3.11 266 3.13 270 3.20 274 3.20 282 3.21 278 3.21
 315  0.250  0.750  0.705- 267 3.13 243 3.15 271 3.20 275 3.20 283 3.21 279 3.21
 316  0.750  0.250  0.705- 244 3.10 268 3.13 272 3.20 276 3.20 284 3.21 280 3.21
 317  0.750  0.750  0.705- 269 3.13 245 3.19 273 3.20 277 3.20 285 3.21 281 3.21
 318  0.000  0.000  0.807- 286 3.22 293 3.22 300 3.23 295 3.23 262 3.27
 319  0.000  0.500  0.807- 287 3.22 292 3.22 301 3.23 294 3.23 263 3.27
 320  0.500  0.000  0.807- 288 3.22 291 3.22 298 3.23 297 3.23 264 3.27
 321  0.500  0.500  0.807- 289 3.22 290 3.22 299 3.23 296 3.23 265 3.27
 322  0.250  0.250  0.807- 290 3.22 286 3.22 294 3.23 298 3.23 266 3.27
 323  0.250  0.750  0.807- 291 3.22 287 3.22 299 3.23 295 3.23 267 3.27
 324  0.750  0.250  0.807- 292 3.22 288 3.22 296 3.23 300 3.23 268 3.27
 325  0.750  0.750  0.807- 293 3.22 289 3.22 297 3.23 301 3.23 269 3.27
 

IMPORTANT INFORMATION: All symmetrisations will be switched off!
NOSYMM: (Re-)initialisation of all symmetry stuff for point group C_1.


----------------------------------------------------------------------------------------

                                     Primitive cell                                     

  volume of cell :   20385.2105

  direct lattice vectors                    reciprocal lattice vectors
    18.060800552  0.000000000  0.000000000     0.055368531  0.000015077 -0.000000000
    -0.004918649 18.062799454  0.000000000     0.000000000  0.055362404  0.000000000
     0.000000000  0.000000000 62.487499237     0.000000000 -0.000000000  0.016003201

  length of vectors
    18.060800552 18.062800123 62.487499237     0.055368533  0.055362404  0.016003201

  position of ions in fractional coordinates (direct lattice)
     0.470231375  0.330223522  0.572042882
     0.451151642  0.838733482  0.573668818
     0.920544795  0.240738623  0.581055916
     0.941921019  0.812236163  0.576710930
     0.316749838  0.069622166  0.571247130
     0.333383447  0.568558239  0.572010039
     0.794304023  0.085020735  0.574965342
     0.104371739  0.247545540  0.557863594
     0.089427622  0.676135935  0.571537471
     0.556953327  0.157448663  0.558637918
     0.493376108  0.646607341  0.563326173
     0.366773926  0.005110877  0.556686784
     0.279689998  0.632430155  0.557572581
     0.866838036  0.029369686  0.565208324
     0.056951541  0.241826704  0.581887442
     0.010010060  0.694074377  0.586391150
     0.573220158  0.242612413  0.571322523
     0.454308737  0.704651076  0.582459700
     0.284467636  0.439508774  0.575159350
     0.179433159  0.055851924  0.571235775
     0.667211145  0.028902304  0.573322740
     0.387348310  0.300831226  0.560300727
     0.500691840  0.868654732  0.551472362
     0.878151045  0.234728317  0.556386492
     0.984598199  0.867620109  0.557416239
     0.199895456  0.422493210  0.562862030
     0.140778795  0.985989275  0.555851656
     0.663440617  0.939185903  0.562641344
     0.436726009  0.187770357  0.550425460
     0.533359717  0.745966915  0.542195177
     0.993532122  0.243628558  0.537860630
     0.080235653  0.782262855  0.551377433
     0.188368004  0.543326376  0.550226995
     0.259574886  0.941321927  0.545616515
     0.788984063  0.933581348  0.555896586
     0.466780251  0.309706969  0.673582540
     0.441742635  0.808504052  0.672854855
     0.950369357  0.276985988  0.676717810
     0.922932171  0.752616839  0.673846570
     0.307763761  0.051700052  0.672019056
     0.293211081  0.546810813  0.676737040
     0.790320900  0.053635276  0.674608563
     0.845694596  0.477440598  0.665164047
     0.091547634  0.173725614  0.646975228
     0.102842036  0.702055594  0.652388115
     0.579471171  0.167276243  0.647787280
     0.575363727  0.670366202  0.653625545
     0.184160494  0.408894924  0.647367885
     0.171887656  0.923102773  0.648461243
     0.646183987  0.480300174  0.660067629
     0.678995861  0.910512236  0.648042336
     0.058354681  0.183625183  0.672869445
     0.041628259  0.677242258  0.672680992
     0.568482169  0.211081573  0.672480635
     0.536832468  0.702804846  0.677417963
     0.203581646  0.435678935  0.673641145
     0.201627559  0.953333602  0.673571185
     0.717557439  0.428363417  0.671043152
     0.698951107  0.942091968  0.673726734
     0.419195303  0.322011236  0.649852635
     0.425585848  0.833476679  0.646371409
     0.925444591  0.320584800  0.652683218
     0.914545465  0.820580365  0.654395413
     0.335773514  0.074021574  0.646192418
     0.319892361  0.584005738  0.652282991
     0.822233647  0.082037612  0.649663083
     0.854471134  0.554053760  0.648370527
     0.012688806  0.258756921  0.632421109
     0.027560564  0.795257214  0.639134976
     0.487405822  0.233814336  0.631393010
     0.507584551  0.749995855  0.632234487
     0.254742250  0.996085089  0.629518673
     0.254221442  0.500462561  0.632000431
     0.755782153  0.994691737  0.630990586
     0.726170243  0.562987026  0.642865153
     0.448745018  0.301283966  0.768889017
     0.448745007  0.801283913  0.768889017
     0.948744965  0.301283966  0.768889017
     0.948745007  0.801283913  0.768889017
     0.301275995  0.051294496  0.768872961
     0.301276011  0.551294499  0.768872961
     0.801275943  0.051294496  0.768872961
     0.801275984  0.551294499  0.768872961
     0.078771004  0.171180501  0.743441971
     0.078771006  0.671180448  0.743441971
     0.578771004  0.171180501  0.743441971
     0.578770992  0.671180448  0.743441971
     0.171199499  0.421174482  0.743421032
     0.171199501  0.921174508  0.743421032
     0.671199512  0.421174482  0.743421032
     0.671199501  0.921174508  0.743421032
     0.051256000  0.198714991  0.768889017
     0.051256002  0.698714925  0.768889017
     0.551256027  0.198714991  0.768889017
     0.551256016  0.698714925  0.768889017
     0.198723491  0.448703970  0.768872046
     0.198723493  0.948703970  0.768872046
     0.698723518  0.448703970  0.768872046
     0.698723507  0.948703970  0.768872046
     0.421231519  0.328817467  0.743441971
     0.421231508  0.828817440  0.743441971
     0.921231466  0.328817467  0.743441971
     0.921231508  0.828817440  0.743441971
     0.328800503  0.078824997  0.743421032
     0.328800492  0.578824964  0.743421032
     0.828800477  0.078824997  0.743421032
     0.828800519  0.578824964  0.743421032
     0.000003500  0.250001478  0.725821992
     0.000003500  0.750001452  0.725821992
     0.500003506  0.250001478  0.725821992
     0.500003495  0.750001452  0.725821992
     0.250000502  0.000000000  0.725803983
     0.250000517  0.500000000  0.725803983
     0.750000502  0.000000000  0.725803983
     0.750000490  0.500000000  0.725803983
     0.718937729  0.439045897  0.541621820
     0.736148071  0.494413053  0.518929598
     0.657962406  0.553617018  0.559498869
     0.709868945  0.637058613  0.557389073
     0.848062192  0.503579315  0.570582751
     0.787469233  0.572438976  0.580163647
     0.867788715  0.561418723  0.530151935
     0.794667009  0.624667836  0.525625884
     0.867395278  0.462736121  0.518660562
     0.863810356  0.422271592  0.544326951
     0.870213201  0.324911704  0.518186346
     0.782850027  0.321917018  0.530420116
     0.636117154  0.551279294  0.519968868
     0.688121152  0.635827528  0.517015153
     0.606717366  0.632564261  0.532791868
     0.752695202  0.460595385  0.597712262
     0.753885960  0.407999528  0.574210430
     0.681726238  0.473414456  0.578592044
     0.819469064  0.687748895  0.559975161
     0.901658634  0.680787307  0.544688534
     0.889469920  0.621581652  0.566562660
     0.818869432  0.383359658  0.485233649
     0.781928350  0.295000380  0.491468692
     0.661823268  0.313480183  0.520445648
     0.728474196  0.462076413  0.469726580
     0.536685292  0.370044870  0.520345225
     0.602053055  0.516755298  0.469398390
     0.506498899  0.470557836  0.494989324
     0.991350689  0.242805864  0.555512843
     0.036189734  0.769663369  0.562934676
     0.471534530  0.229265524  0.558219378
     0.501246796  0.756746094  0.556507426
     0.238140785  0.527715679  0.559120193
     0.254412012  0.991219820  0.555406742
     0.765118376  0.983741842  0.563038457
     0.008365261  0.247397812  0.649539767
     0.008788671  0.762467887  0.652939739
     0.499362483  0.245003041  0.648162660
     0.500297979  0.751933478  0.649722604
     0.252355167  0.495956488  0.649570046
     0.253874916  0.998571334  0.647083465
     0.748548211  0.518138017  0.653223121
     0.750824951  0.996030007  0.648500802
     0.499988984  0.249994984  0.743277021
     0.499989025  0.749994958  0.743277021
     0.999988984  0.249994984  0.743277021
     0.999989025  0.749994958  0.743277021
     0.250000502  0.000001000  0.743255960
     0.250000517  0.500001003  0.743255960
     0.750000502  0.000001000  0.743255960
     0.750000491  0.500001003  0.743255960
     0.704305972  0.383596984  0.495131381
     0.649478157  0.357838965  0.509103048
     0.686327545  0.440862824  0.480726339
     0.578533768  0.388762738  0.509029669
     0.615542150  0.471796101  0.480498144
     0.561459753  0.445420956  0.494852333
     0.760336269  0.474452353  0.533935590
     0.695649967  0.584955411  0.549181437
     0.789865333  0.521376417  0.570753135
     0.825205525  0.594834389  0.538053967
     0.831455135  0.431169324  0.529539203
     0.817027922  0.354712390  0.519315906
     0.656506857  0.601048679  0.528249699
     0.740900068  0.462789288  0.580527001
     0.860245062  0.648740527  0.553472701
     0.782497873  0.353496802  0.496730089
     0.054432104  0.241553212  0.565616487
     0.045019204  0.709475942  0.574197549
     0.540268615  0.210358455  0.561842722
     0.485027718  0.699766233  0.568702737
     0.442513504  0.292915161  0.562960133
     0.481779602  0.825559188  0.560434054
     0.926309555  0.243788297  0.564770798
     0.980165262  0.816139709  0.564482044
     0.242487603  0.459479453  0.565897488
     0.187657371  0.012979563  0.560857234
     0.693369459  0.986893424  0.565569114
     0.314909352  0.025734577  0.560940625
     0.288884326  0.578393871  0.562419009
     0.811224120  0.036715483  0.568151296
     0.055335158  0.198294999  0.657210246
     0.053476753  0.710003602  0.659927770
     0.552722650  0.205713353  0.656836942
     0.539874393  0.705394468  0.661372944
     0.211645248  0.443138775  0.657708881
     0.206459196  0.956604776  0.657346077
     0.701742908  0.471114060  0.661572630
     0.707457447  0.947155393  0.657694230
     0.460024551  0.295501535  0.657964731
     0.453084538  0.800814067  0.657043038
     0.958530077  0.283157723  0.660632989
     0.945058779  0.780176817  0.661436922
     0.301880062  0.044002001  0.655908900
     0.291477728  0.545366162  0.660472801
     0.790003524  0.046945097  0.658416420
     0.820473180  0.516361058  0.655884237
     0.045862501  0.204119496  0.752725994
     0.045862500  0.704119456  0.752725994
     0.545862507  0.204119496  0.752725994
     0.545862496  0.704119456  0.752725994
     0.204119002  0.454101003  0.752704994
     0.204118991  0.954100951  0.752704994
     0.704118976  0.454101003  0.752704994
     0.704118964  0.954100951  0.752704994
     0.454140018  0.295888490  0.752726971
     0.454140007  0.795888516  0.752726971
     0.954140018  0.295888490  0.752726971
     0.954140060  0.795888516  0.752726971
     0.295882492  0.045900498  0.752704994
     0.295882481  0.545900528  0.752704994
     0.795882439  0.045900498  0.752704994
     0.795882481  0.545900528  0.752704994
     0.768582498  0.542911280  0.548033869
     0.508095976  0.016203909  0.551593724
     0.482528177  0.509635317  0.554804876
     0.994706061  0.006493923  0.551893589
     0.032891509  0.506954883  0.554856767
     0.249952094  0.247837485  0.553407075
     0.239154735  0.766648726  0.552667059
     0.733078307  0.211032088  0.556063063
     0.701861797  0.794624539  0.553100861
     0.000601715  0.993087651  0.654438269
     0.017830350  0.494495892  0.655471556
     0.502655577  0.003228045  0.654391506
     0.504355294  0.495403960  0.655363380
     0.257237260  0.243545270  0.655120107
     0.250693600  0.756748682  0.654520499
     0.747069984  0.266502846  0.655476257
     0.747976634  0.742934902  0.653772486
     0.134717861  0.117502924  0.607278262
     0.149422869  0.608818177  0.610796483
     0.640508750  0.113783181  0.610482761
     0.625870076  0.623131687  0.611723243
     0.362571848  0.388631060  0.608557022
     0.373273045  0.881609546  0.606019954
     0.886450495  0.370644071  0.611253667
     0.867182047  0.879562368  0.608601403
     0.121279567  0.364994189  0.608635712
     0.122691102  0.876148469  0.607662372
     0.592496418  0.346762640  0.603061110
     0.613391874  0.865743784  0.611055568
     0.383582192  0.132009185  0.605847068
     0.380745869  0.632898101  0.612015782
     0.885231781  0.140077823  0.612327002
     0.907884655  0.646883526  0.616222923
     0.000000000  0.000000000  0.754927972
     0.000000000  0.500000000  0.754927972
     0.500000000  0.000000000  0.754927972
     0.499999989  0.500000000  0.754927972
     0.250000496  0.250000000  0.754939022
     0.250000511  0.749999974  0.754939022
     0.750000470  0.250000000  0.754939022
     0.750000458  0.749999974  0.754939022
     0.135790500  0.114209997  0.704782994
     0.135790502  0.614209984  0.704782994
     0.635790447  0.114209997  0.704782994
     0.635790488  0.614209984  0.704782994
     0.364209516  0.385789989  0.704782994
     0.364209505  0.885789963  0.704782994
     0.864209542  0.385789989  0.704782994
     0.864209531  0.885789963  0.704782994
     0.114217990  0.364218986  0.704780979
     0.114217992  0.864218986  0.704780979
     0.614218004  0.364218986  0.704780979
     0.614217992  0.864218986  0.704780979
     0.385782012  0.135781489  0.704782017
     0.385782001  0.635781489  0.704782017
     0.885781985  0.135781489  0.704782017
     0.885782027  0.635781489  0.704782017
     0.134667000  0.115332001  0.801256025
     0.134666989  0.615331988  0.801256025
     0.634666987  0.115332001  0.801256025
     0.634666976  0.615331988  0.801256025
     0.365333002  0.384667985  0.801256025
     0.365332990  0.884667959  0.801256025
     0.865332949  0.384667985  0.801256025
     0.865332938  0.884667959  0.801256025
     0.115328503  0.365337004  0.801264999
     0.115328505  0.865336978  0.801264999
     0.615328503  0.365337004  0.801264999
     0.615328492  0.865336978  0.801264999
     0.384671513  0.134662996  0.801264999
     0.384671501  0.634662970  0.801264999
     0.884671486  0.134662996  0.801264999
     0.884671528  0.634662970  0.801264999
     0.997072609  0.002844682  0.604943506
     0.007054888  0.506423316  0.604796626
     0.502361089  0.006319612  0.604333093
     0.499717817  0.501783718  0.604915546
     0.250213127  0.255298117  0.604845830
     0.246652193  0.753806582  0.603813153
     0.745663144  0.257017897  0.605450138
     0.740400124  0.757114200  0.602285320
     0.000000500  0.000000500  0.704828963
     0.000000500  0.500000475  0.704828963
     0.500000475  0.000000500  0.704828963
     0.500000464  0.500000475  0.704828963
     0.249999994  0.249999472  0.704824995
     0.250000010  0.749999498  0.704824995
     0.749999994  0.249999472  0.704824995
     0.749999983  0.749999498  0.704824995
     0.000000000  0.000000000  0.807317968
     0.000000000  0.500000000  0.807317968
     0.500000000  0.000000000  0.807317968
     0.499999989  0.500000000  0.807317968
     0.249999994  0.250000000  0.807317968
     0.250000010  0.749999974  0.807317968
     0.749999994  0.250000000  0.807317968
     0.749999983  0.749999974  0.807317968

  ion indices of the primitive-cell ions
   primitive index   ion index
                 1           1
                 2           2
                 3           3
                 4           4
                 5           5
                 6           6
                 7           7
                 8           8
                 9           9
                10          10
                11          11
                12          12
                13          13
                14          14
                15          15
                16          16
                17          17
                18          18
                19          19
                20          20
                21          21
                22          22
                23          23
                24          24
                25          25
                26          26
                27          27
                28          28
                29          29
                30          30
                31          31
                32          32
                33          33
                34          34
                35          35
                36          36
                37          37
                38          38
                39          39
                40          40
                41          41
                42          42
                43          43
                44          44
                45          45
                46          46
                47          47
                48          48
                49          49
                50          50
                51          51
                52          52
                53          53
                54          54
                55          55
                56          56
                57          57
                58          58
                59          59
                60          60
                61          61
                62          62
                63          63
                64          64
                65          65
                66          66
                67          67
                68          68
                69          69
                70          70
                71          71
                72          72
                73          73
                74          74
                75          75
                76          76
                77          77
                78          78
                79          79
                80          80
                81          81
                82          82
                83          83
                84          84
                85          85
                86          86
                87          87
                88          88
                89          89
                90          90
                91          91
                92          92
                93          93
                94          94
                95          95
                96          96
                97          97
                98          98
                99          99
               100         100
               101         101
               102         102
               103         103
               104         104
               105         105
               106         106
               107         107
               108         108
               109         109
               110         110
               111         111
               112         112
               113         113
               114         114
               115         115
               116         116
               117         117
               118         118
               119         119
               120         120
               121         121
               122         122
               123         123
               124         124
               125         125
               126         126
               127         127
               128         128
               129         129
               130         130
               131         131
               132         132
               133         133
               134         134
               135         135
               136         136
               137         137
               138         138
               139         139
               140         140
               141         141
               142         142
               143         143
               144         144
               145         145
               146         146
               147         147
               148         148
               149         149
               150         150
               151         151
               152         152
               153         153
               154         154
               155         155
               156         156
               157         157
               158         158
               159         159
               160         160
               161         161
               162         162
               163         163
               164         164
               165         165
               166         166
               167         167
               168         168
               169         169
               170         170
               171         171
               172         172
               173         173
               174         174
               175         175
               176         176
               177         177
               178         178
               179         179
               180         180
               181         181
               182         182
               183         183
               184         184
               185         185
               186         186
               187         187
               188         188
               189         189
               190         190
               191         191
               192         192
               193         193
               194         194
               195         195
               196         196
               197         197
               198         198
               199         199
               200         200
               201         201
               202         202
               203         203
               204         204
               205         205
               206         206
               207         207
               208         208
               209         209
               210         210
               211         211
               212         212
               213         213
               214         214
               215         215
               216         216
               217         217
               218         218
               219         219
               220         220
               221         221
               222         222
               223         223
               224         224
               225         225
               226         226
               227         227
               228         228
               229         229
               230         230
               231         231
               232         232
               233         233
               234         234
               235         235
               236         236
               237         237
               238         238
               239         239
               240         240
               241         241
               242         242
               243         243
               244         244
               245         245
               246         246
               247         247
               248         248
               249         249
               250         250
               251         251
               252         252
               253         253
               254         254
               255         255
               256         256
               257         257
               258         258
               259         259
               260         260
               261         261
               262         262
               263         263
               264         264
               265         265
               266         266
               267         267
               268         268
               269         269
               270         270
               271         271
               272         272
               273         273
               274         274
               275         275
               276         276
               277         277
               278         278
               279         279
               280         280
               281         281
               282         282
               283         283
               284         284
               285         285
               286         286
               287         287
               288         288
               289         289
               290         290
               291         291
               292         292
               293         293
               294         294
               295         295
               296         296
               297         297
               298         298
               299         299
               300         300
               301         301
               302         302
               303         303
               304         304
               305         305
               306         306
               307         307
               308         308
               309         309
               310         310
               311         311
               312         312
               313         313
               314         314
               315         315
               316         316
               317         317
               318         318
               319         319
               320         320
               321         321
               322         322
               323         323
               324         324
               325         325

----------------------------------------------------------------------------------------

 
 
 KPOINTS: Automatic Mesh                          

Automatic generation of k-mesh.
 Grid dimensions read from file:
 generate k-points for:    3    3    1

 Generating k-lattice:

  Cartesian coordinates                     Fractional coordinates (reciprocal lattice)
     0.018456177  0.000005026 -0.000000000     0.333333333  0.000000000  0.000000000
     0.000000000  0.018454135  0.000000000     0.000000000  0.333333333  0.000000000
     0.000000000 -0.000000000  0.016003201     0.000000000  0.000000000  1.000000000

  Length of vectors
     0.018456178  0.018454135  0.016003201

  Shift w.r.t. Gamma in fractional coordinates (k-lattice)
     0.000000000  0.000000000  0.000000000

 
 Subroutine IBZKPT returns following result:
 ===========================================
 
 Found      5 irreducible k-points:
 
 Following reciprocal coordinates:
            Coordinates               Weight
  0.000000  0.000000  0.000000      1.000000
  0.333333  0.000000  0.000000      2.000000
  0.000000  0.333333  0.000000      2.000000
  0.333333  0.333333  0.000000      2.000000
 -0.333333  0.333333  0.000000      2.000000
 
 Following cartesian coordinates:
            Coordinates               Weight
  0.000000  0.000000  0.000000      1.000000
  0.018456  0.000005  0.000000      2.000000
  0.000000  0.018454  0.000000      2.000000
  0.018456  0.018459  0.000000      2.000000
 -0.018456  0.018449  0.000000      2.000000
 


--------------------------------------------------------------------------------------------------------




 Dimension of arrays:
   k-points           NKPTS =      5   k-points in BZ     NKDIM =      5   number of bands    NBANDS=    732
   number of dos      NEDOS =    301   number of ions     NIONS =    325
   non local maximal  LDIM  =      5   non local SUM 2l+1 LMDIM =     13
   total plane-waves  NPLWV = ******
   max r-space proj   IRMAX =   3336   max aug-charges    IRDMAX=  19845
   dimension x,y,z NGX =   100 NGY =  100 NGZ =  350
   dimension x,y,z NGXF=   200 NGYF=  200 NGZF=  700
   support grid    NGXF=   200 NGYF=  200 NGZF=  700
   ions per type =             143  39  47  72  24
   NGX,Y,Z   is equivalent  to a cutoff of   9.20,  9.20,  9.31 a.u.
   NGXF,Y,Z  is equivalent  to a cutoff of  18.41, 18.41, 18.62 a.u.

 SYSTEM =  PSC                                     
 POSCAR =   H  C  N  I Pb                          

 Startparameter for this run:
   NWRITE =      2    write-flag & timer
   PREC   = normal    normal or accurate (medium, high low for compatibility)
   ISTART =      0    job   : 0-new  1-cont  2-samecut
   ICHARG =      1    charge: 1-file 2-atom 10-const
   ISPIN  =      1    spin polarized calculation?
   LNONCOLLINEAR =      F non collinear calculations
   LSORBIT =      F    spin-orbit coupling
   INIWAV =      1    electr: 0-lowe 1-rand  2-diag
   LASPH  =      F    aspherical Exc in radial PAW
 Electronic Relaxation 1
   ENCUT  =  500.0 eV  36.75 Ry    6.06 a.u.  32.93 32.93113.93*2*pi/ulx,y,z
   ENINI  =  500.0     initial cutoff
   ENAUG  =  644.9 eV  augmentation charge cutoff
   NELM   =    600;   NELMIN=  2; NELMDL=  0     # of ELM steps 
   EDIFF  = 0.1E-03   stopping-criterion for ELM
   LREAL  =      T    real-space projection
   NLSPLINE    = F    spline interpolate recip. space projectors
   LCOMPAT=      F    compatible to vasp.4.4
   GGA_COMPAT  = F    GGA compatible to vasp.4.4-vasp.4.6
   LMAXPAW     = -100 max onsite density
   LMAXMIX     =    2 max onsite mixed and CHGCAR
   VOSKOWN=      0    Vosko Wilk Nusair interpolation
   ROPT   =   -0.00050  -0.00050  -0.00050  -0.00050
   ROPT   =   -0.00050
 Ionic relaxation
   EDIFFG = 0.1E-02   stopping-criterion for IOM
   NSW    =      0    number of steps for IOM
   NBLOCK =      1;   KBLOCK =      1    inner block; outer block 
   IBRION =     -1    ionic relax: 0-MD 1-quasi-New 2-CG
   NFREE  =      0    steps in history (QN), initial steepest desc. (CG)
   ISIF   =      2    stress and relaxation
   IWAVPR =     10    prediction:  0-non 1-charg 2-wave 3-comb
   ISYM   =      0    0-nonsym 1-usesym 2-fastsym
   LCORR  =      T    Harris-Foulkes like correction to forces

   POTIM  = 0.5000    time-step for ionic-motion
   TEIN   =    0.0    initial temperature
   TEBEG  =    0.0;   TEEND  =   0.0 temperature during run
   SMASS  =  -3.00    Nose mass-parameter (am)
   estimated Nose-frequenzy (Omega)   =  0.10E-29 period in steps = 0.13E+47 mass=  -0.745E-26a.u.
   SCALEE = 1.0000    scale energy and forces
   NPACO  =    256;   APACO  = 16.0  distance and # of slots for P.C.
   PSTRESS=    0.0 pullay stress

  Mass of Ions in am
   POMASS =   1.00 12.01 14.00126.90207.20
  Ionic Valenz
   ZVAL   =   1.00  4.00  5.00  7.00  4.00
  Atomic Wigner-Seitz radii
   RWIGS  =  -1.00 -1.00 -1.00 -1.00 -1.00
  virtual crystal weights 
   VCA    =   1.00  1.00  1.00  1.00  1.00
   NELECT =    1134.0000    total number of electrons
   NUPDOWN=      -1.0000    fix difference up-down

 DOS related values:
   EMIN   =  10.00;   EMAX   =-10.00  energy-range for DOS
   EFERMI =   0.00
   ISMEAR =     0;   SIGMA  =   0.05  broadening in eV -4-tet -1-fermi 0-gaus

 Electronic relaxation 2 (details)
   IALGO  =     38    algorithm
   LDIAG  =      T    sub-space diagonalisation (order eigenvalues)
   LSUBROT=      F    optimize rotation matrix (better conditioning)
   TURBO    =      0    0=normal 1=particle mesh
   IRESTART =      0    0=no restart 2=restart with 2 vectors
   NREBOOT  =      0    no. of reboots
   NMIN     =      0    reboot dimension
   EREF     =   0.00    reference energy to select bands
   IMIX   =      4    mixing-type and parameters
     AMIX     =   0.40;   BMIX     =  0.01
     AMIX_MAG =   1.60;   BMIX_MAG =  0.01
     AMIN     =   0.01
     WC   =   100.;   INIMIX=   1;  MIXPRE=   1;  MAXMIX= -45

 Intra band minimization:
   WEIMIN = 0.0000     energy-eigenvalue tresh-hold
   EBREAK =  0.34E-07  absolut break condition
   DEPER  =   0.30     relativ break condition  

   TIME   =   0.40     timestep for ELM

  volume/ion in A,a.u.               =      62.72       423.28
  Fermi-wavevector in a.u.,A,eV,Ry     =   0.624944  1.180972  5.313816  0.390554
  Thomas-Fermi vector in A             =   1.685677
 
 Write flags
   LWAVE        =      F    write WAVECAR
   LDOWNSAMPLE  =      F    k-point downsampling of WAVECAR
   LCHARG       =      T    write CHGCAR
   LVTOT        =      T    write LOCPOT, total local potential
   LVHAR        =      F    write LOCPOT, Hartree potential only
   LELF         =      F    write electronic localiz. function (ELF)
   LORBIT       =      0    0 simple, 1 ext, 2 COOP (PROOUT), +10 PAW based schemes


 Dipole corrections
   LMONO  =      F    monopole corrections only (constant potential shift)
   LDIPOL =      T    correct potential (dipole corrections)
   IDIPOL =      3    1-x, 2-y, 3-z, 4-all directions 
   EPSILON=  1.0000000 bulk dielectric constant

 Exchange correlation treatment:
   GGA     =    --    GGA type
   LEXCH   =     8    internal setting for exchange type
   VOSKOWN=      0    Vosko Wilk Nusair interpolation
   LHFCALC =     F    Hartree Fock is set to
   LHFONE  =     F    Hartree Fock one center treatment
   AEXX    =    0.0000 exact exchange contribution

 Linear response parameters
   LEPSILON=     F    determine dielectric tensor
   LRPA    =     F    only Hartree local field effects (RPA)
   LNABLA  =     F    use nabla operator in PAW spheres
   LVEL    =     F    velocity operator in full k-point grid
   LINTERFAST=   F  fast interpolation
   KINTER  =     0    interpolate to denser k-point grid
   CSHIFT  =0.1000    complex shift for real part using Kramers Kronig
   OMEGAMAX=  -1.0    maximum frequency
   DEG_THRESHOLD= 0.2000000E-02 threshold for treating states as degnerate
   RTIME   =   -0.100 relaxation time in fs
  (WPLASMAI=    0.000 imaginary part of plasma frequency in eV, 0.658/RTIME)
   DFIELD  = 0.0000000 0.0000000 0.0000000 field for delta impulse in time
 
 Orbital magnetization related:
   ORBITALMAG=     F  switch on orbital magnetization
   LCHIMAG   =     F  perturbation theory with respect to B field
   DQ        =  0.001000  dq finite difference perturbation B field
   LLRAUG    =     F  two centre corrections for induced B field



--------------------------------------------------------------------------------------------------------


 Static calculation
 charge density and potential will be updated during run
 non-spin polarized calculation
 Variant of blocked Davidson
 Davidson routine will perform the subspace rotation
 perform sub-space diagonalisation
    after iterative eigenvector-optimisation
 modified Broyden-mixing scheme, WC =      100.0
 initial mixing is a Kerker type mixing with AMIX =  0.4000 and BMIX =      0.0100
 Hartree-type preconditioning will be used
 using additional bands           165
 real space projection scheme for non local part
[...]
     13.54561      0.00000     45.35368         0.002907     -0.007852      0.011597
     13.54315      9.03140     45.35368        -0.005230      0.008059     -0.004521
     12.98243      7.93040     33.84459        -0.076598      0.053282      0.029217
     13.29299      8.93048     32.42661         0.054331     -0.048892      0.046996
     11.88060      9.99987     34.96169         0.061559     -0.044664      0.021607
     12.81767     11.50706     34.82985        -0.152457     -0.102449     -0.051289
     15.31421      9.09605     35.65429        -0.033128     -0.005608     -0.101347
     14.21951     10.33985     36.25298        -0.036856      0.065093      0.018109
     15.67020     10.14079     33.12787        -0.009648     -0.057871      0.201552
     14.34925     11.28325     32.84505         0.054171      0.014639     -0.107033
     15.66358      8.35831     32.40980         0.073117      0.025408      0.034894
     15.59903      7.62741     34.01363        -0.115793      0.070410     -0.084200
     15.71515      5.86881     32.38017         0.018780      0.121021      0.077447
     14.13731      5.81472     33.14463         0.002690      0.010783     -0.124691
     11.48607      9.95765     32.49155         0.101694      0.089778      0.097270
     12.42489     11.48483     32.30698        -0.035382     -0.077688      0.115602
     10.95469     11.42588     33.29283         0.100189     -0.000629     -0.087281
     13.59201      8.31964     37.34954        -0.040096      0.063664      0.012817
     13.61378      7.36961     35.88097        -0.066183     -0.226754     -0.103470
     12.31019      8.55119     36.15477        -0.064301     -0.002838      0.026476
     14.79688     12.42267     34.99145         0.054228      0.064167      0.001389
     16.28133     12.29692     34.03622         0.020736      0.129029     -0.128114
     16.06148     11.22750     35.40308         0.101254     -0.087494      0.085392
     14.78755      6.92455     30.32104        -0.188777     -0.124619      0.230780
     14.12080      5.32853     30.71065         0.038789      0.100542      0.008312
     11.95152      5.66233     32.52135         0.065052      0.006393     -0.004479
     13.15455      8.34639     29.35204         0.002548     -0.067371      0.071392
      9.69115      6.68405     32.51507        -0.009982     -0.086550      0.050249
     10.87102      9.33405     29.33153         0.047750     -0.122089      0.078991
      9.14546      8.49959     30.93064         0.017269     -0.029448      0.015915
     17.90339      4.38575     34.71261        -0.157557      0.019287     -0.761884
      0.64983     13.90228     35.17638         0.048305      0.372765     -0.231648
      8.51516      4.14118     34.88173         0.026090     -0.936566     -0.336782
      9.04920     13.66895     34.77476        -0.092820      0.021058      0.139856
      4.29842      9.53202     34.93802         0.017260      0.385704     -0.109211
      4.59001     17.90420     34.70598        -0.417331     -0.057821     -0.090697
     13.81381     17.76913     35.18287         0.461691      0.046573     -0.079706
      0.14987      4.46870     40.58812         0.475666     -0.472197      0.048020
      0.15498     13.77230     40.80057         0.545974     -0.123217     -0.088711
      9.01768      4.42544     40.50206         0.329968     -0.277898      0.019595
      9.03208     13.58202     40.59954         0.254763     -0.292022     -0.137984
      4.55530      8.95836     40.59001         0.414431      0.574934     -0.156688
      4.58027     18.03699     40.43463         0.241364      0.206614     -0.085840
     13.51683      9.35902     40.81828        -0.000494      0.729586     -0.529614
     13.55560     17.99109     40.52319         0.096110      0.057259     -0.052048
      9.02897      4.51561     46.44552         0.004324      0.009171      0.027172
      9.02651     13.54701     46.44552         0.026644     -0.011066      0.046810
     18.05937      4.51561     46.44552         0.025820     -0.005989      0.037557
     18.05691     13.54701     46.44552         0.015627      0.003813      0.012800
      4.51521      0.00002     46.44421        -0.003888     -0.004502      0.053492
      4.51275      9.03142     46.44421        -0.006545     -0.005653      0.047759
     13.54561      0.00002     46.44421        -0.006103     -0.008769      0.033906
     13.54315      9.03142     46.44421        -0.004301      0.003023      0.019525
     12.71844      6.92884     30.93952         0.254305      0.212156      0.027488
     11.72834      6.46357     31.81258        -0.253601     -0.115590      0.042289
     12.39346      7.96322     30.03939         0.080269     -0.099077      0.071974
     10.44687      7.02214     31.80799         0.137479     -0.128374      0.070345
     11.11486      8.52196     30.02513        -0.346233     -0.160448      0.220850
     10.13822      8.04555     30.92208         0.086526      0.506933     -0.491214
     13.72995      8.56994     33.36430        -0.010192      0.072703     -0.110149
     12.56112     10.56593     34.31697        -0.105015      0.080322      0.113519
     14.26304      9.41752     35.66494         0.106902      0.104804      0.027671
     14.90095     10.74437     33.62165         0.214784      0.036862     -0.118788
     15.01462      7.78813     33.08958         0.110849     -0.144802     -0.093951
     14.75443      6.40710     32.45075        -0.095685      0.125547      0.035484
     11.85408     10.85662     33.00900        -0.184531      0.015652     -0.111830
     13.37897      8.35927     36.27568         0.105165      0.004192      0.013400
     15.53352     11.71807     34.58512        -0.047080      0.090962      0.030052
     14.13080      6.38514     31.03942         0.073421      0.041838     -0.238948
      0.98190      4.36313     35.34396         0.482132      0.171918      0.123672
      0.80959     12.81512     35.88017        -0.199876     -0.209037      0.129650
      9.75665      3.79966     35.10815         0.199013     -0.071938      0.249835
      8.75655     12.63974     35.53681        -0.164726      0.292076     -0.090916
      7.99071      5.29087     35.17797        -0.391799      0.508999      0.058809
      8.69726     14.91191     35.02012         0.054035     -0.404538     -0.061249
     16.72869      4.40350     35.29111        -0.294630     -0.166845     -0.098185
     17.69855     14.74177     35.27307        -0.051634     -0.115523      0.199607
      4.37726      8.29949     35.36152        -0.792933     -1.056678     -0.219923
      3.38918      0.23445     35.04657        -0.082806     -0.280468     -0.203974
     12.51795     17.82606     35.34100        -0.495549     -0.855102     -0.100692
      5.68739      0.46484     35.05178         1.070837     -0.286606     -0.137681
      5.21464     10.44741     35.14416        -0.145352      0.260851     -0.130648
     14.65118      0.66318     35.50235         0.239600     -0.099429     -0.003676
      0.99842      3.58176     41.06742        -0.310375      0.332040     -0.274293
      0.96234     12.82465     41.23724        -0.352574      0.416149     -0.365563
      9.98160      3.71576     41.04410        -0.191218      0.243007      0.234037
      9.74709     12.74140     41.32754        -0.264863      0.352814     -1.035169
      3.82030      8.00433     41.09858         0.060336      0.025746     -0.312751
      3.72411     17.27896     41.07591        -0.334416     -0.318334     -0.415453
     12.67172      8.50964     41.34002        -0.096256      0.080124     -0.008508
     12.77259     17.10828     41.09767        -0.139195     -0.245023     -0.576335
      8.30696      5.33758     41.11457        -0.103616      0.069650     -0.014303
      8.17913     14.46494     41.05698         0.045876     -0.052742     -0.057262
     17.31043      5.11462     41.28130        -0.412147      0.465540     -0.076981
     17.06468     14.09218     41.33154         0.213139      0.344919     -0.510394
      5.45198      0.79480     40.98611        -0.093931     -0.103256      0.025913
      5.26164      9.85084     41.27129        -0.719220     -0.922397     -0.117149
     14.26787      0.84796     41.14280        -0.079997     -0.048673      0.047991
     14.81586      9.32693     40.98457         0.346491      0.121550     -0.128274
      0.82731      3.68697     47.03596         0.011649     -0.017840     -0.092354
      0.82485     12.71837     47.03596         0.022797     -0.023342     -0.073192
      9.85771      3.68697     47.03596         0.026369     -0.028548     -0.080154
      9.85525     12.71837     47.03596         0.009519     -0.009808     -0.082562
      3.68432      8.20234     47.03465        -0.006686     -0.007070     -0.069704
      3.68186     17.23373     47.03465        -0.006611     -0.004941     -0.062238
     12.71472      8.20234     47.03465        -0.010929     -0.018165     -0.066635
     12.71226     17.23373     47.03465        -0.012083     -0.005623     -0.066971
      8.20068      5.34457     47.03603        -0.017885      0.016039     -0.087334
      8.19822     14.37597     47.03603        -0.027548      0.028333     -0.087449
     17.23108      5.34457     47.03603        -0.033776      0.027858     -0.104361
     17.22862     14.37597     47.03603        -0.021662      0.022895     -0.070461
      5.34365      0.82909     47.03465         0.011707      0.010386     -0.062042
      5.34119      9.86049     47.03465         0.015567      0.016164     -0.071765
     14.37405      0.82909     47.03465         0.017401      0.020737     -0.069874
     14.37159      9.86049     47.03465         0.017238      0.014446     -0.070566
     13.87854      9.80650     34.24527         0.041185     -0.292900     -0.246759
      9.17654      0.29269     34.46771        -0.041454      0.000246     -0.004111
      8.71234      9.20544     34.66837         0.035600     -0.074540      0.046848
     17.96516      0.11730     34.48645         0.054464      0.017937     -0.006911
      0.59155      9.15702     34.67161        -0.124575     -0.031928     -0.026644
      4.51312      4.47664     34.58102        -0.020415      0.014026     -0.003504
      4.31556     13.84782     34.53478         0.084523     -0.024425     -0.008004
     13.23894      3.81183     34.74699         0.088347      0.028955      0.047288
     12.67228     14.35314     34.56189        -0.005506     -0.018998     -0.023376
      0.00598     17.93794     40.89421        -0.003991     -0.005322      0.007459
      0.31960      8.93198     40.95878        -0.043627     -0.017677      0.073544
      9.07835      0.05831     40.89129        -0.020533     -0.000502     -0.020395
      9.10662      8.94838     40.95202        -0.022336     -0.008694     -0.039681
      4.64471      4.39911     40.93682         0.007039      0.007525     -0.095515
      4.52400     13.66900     40.89935         0.028983     -0.027102     -0.002432
     13.49137      4.81379     40.95907        -0.000693     -0.011283     -0.043873
     13.50540     13.41948     40.85261        -0.011727      0.017643      0.040462
      2.43253      2.12243     37.94730        -0.025195      0.028714      0.019429
      2.69570     10.99696     38.16714         0.011321      0.000578     -0.045538
     11.56754      2.05524     38.14754         0.021011     -0.019178     -0.024717
     11.30065     11.25550     38.22506         0.031441     -0.028319     -0.176149
      6.54643      7.01976     38.02721         0.016600      0.025136      0.009678
      6.73727     15.92434     37.86867         0.020299      0.023069      0.023334
     16.00818      6.69487     38.19571         0.014261      0.004747     -0.088286
     15.65768     15.88736     38.02998         0.018186      0.031585     -0.028553
      2.18861      6.59282     38.03212        -0.039214      0.007354     -0.001466
      2.21159     15.82569     37.97130        -0.022134      0.012447      0.010022
     10.69925      6.26350     37.68378         0.001523     -0.012821      0.011027
     11.07409     15.63776     38.18333         0.032059     -0.010475      0.031780
      6.92715      2.38446     37.85787         0.000290      0.048876      0.005211
      6.87346     11.43191     38.24334         0.032384      0.003129      0.044535
     15.98731      2.53020     38.26278        -0.011208     -0.048849      0.051665
     16.39394     11.68453     38.50623        -0.132689     -0.056194     -0.353875
      0.00000      0.00000     47.17356        -0.001696      0.006212      0.378071
     -0.00246      9.03140     47.17356        -0.002502     -0.004537      0.476914
      9.03040      0.00000     47.17356         0.002797     -0.000445      0.379721
      9.02794      9.03140     47.17356        -0.000832     -0.001188      0.455654
      4.51398      4.51570     47.17425         0.000025     -0.002834      0.442662
      4.51152     13.54710     47.17425         0.004515      0.001320      0.409964
     13.54438      4.51570     47.17425         0.005154      0.004296      0.423282
     13.54192     13.54710     47.17425        -0.001372     -0.001466      0.391671
      2.45192      2.06295     44.04013        -0.001725     -0.026509     -0.020606
      2.44946     11.09435     44.04013         0.045150     -0.032535      0.027379
     11.48232      2.06295     44.04013         0.048385      0.026754     -0.058398
     11.47986     11.09435     44.04013        -0.036722      0.008317      0.053313
      6.57602      6.96845     44.04013         0.001863      0.009035     -0.054068
      6.57356     15.99985     44.04013         0.025539      0.011968     -0.048279
     15.60642      6.96845     44.04013        -0.011282      0.014278     -0.077309
     15.60396     15.99985     44.04013        -0.060521      0.046617     -0.004022
      2.06108      6.57881     44.04000         0.048599     -0.040276      0.001227
      2.05862     15.61021     44.04000         0.048344      0.060227     -0.016745
     11.09148      6.57881     44.04000        -0.043741     -0.068895     -0.002343
     11.08902     15.61021     44.04000        -0.005438      0.012429     -0.043126
      6.96686      2.45259     44.04007        -0.007473     -0.054327     -0.033620
      6.96440     11.48399     44.04007         0.029050      0.024242     -0.024276
     15.99726      2.45259     44.04007        -0.003348      0.041406     -0.076627
     15.99481     11.48399     44.04007         0.046344      0.037969     -0.092573
      2.43163      2.08322     50.06849         0.004064     -0.015094      0.021554
      2.42917     11.11462     50.06849         0.015786     -0.005374      0.023700
     11.46203      2.08322     50.06849         0.008422     -0.012998      0.021975
     11.45957     11.11462     50.06849         0.014310     -0.005628      0.023299
      6.59631      6.94818     50.06849        -0.011906      0.008222      0.023224
      6.59385     15.97958     50.06849        -0.005077      0.015470      0.022397
     15.62671      6.94818     50.06849        -0.015287      0.003294      0.020528
     15.62425     15.97958     50.06849        -0.008584      0.014519      0.024405
      2.08113      6.59901     50.06905        -0.007276     -0.014146      0.022506
      2.07867     15.63041     50.06905        -0.013639     -0.004954      0.023658
     11.11153      6.59901     50.06905        -0.005353     -0.014619      0.022781
     11.10907     15.63041     50.06905        -0.012522     -0.006915      0.022995
      6.94681      2.43239     50.06905         0.016861      0.003527      0.023416
      6.94435     11.46379     50.06905         0.007382      0.013806      0.023416
     15.97721      2.43239     50.06905         0.012600      0.008222      0.021831
     15.97475     11.46379     50.06905         0.003623      0.015767      0.023847
     18.00792      0.05138     37.80141        -0.021371      0.034436      0.017160
      0.12493      9.14742     37.79223        -0.055875     -0.007866     -0.015295
      9.07301      0.11415     37.76326         0.010860     -0.067032      0.041555
      9.02284      9.06362     37.79966         0.051257      0.014412     -0.093096
      4.51779      4.61140     37.79530         0.046103     -0.149680     -0.023319
      4.45103     13.61586     37.73077         0.019120     -0.008212     -0.012354
     13.46601      4.64246     37.83307         0.025248      0.000458     -0.002343
     13.36849     13.67560     37.63530        -0.001451     -0.007031      0.096360
      0.00001      0.00001     44.04300        -0.004633     -0.122290      0.127706
     -0.00245      9.03141     44.04300         0.079508      0.030233      0.108230
      9.03041      0.00001     44.04300        -0.022065      0.031072      0.110236
      9.02795      9.03141     44.04300         0.013504      0.040803      0.272333
      4.51397      4.51569     44.04275         0.015940      0.019455      0.171181
      4.51151     13.54709     44.04275        -0.084248      0.015064      0.115322
     13.54437      4.51569     44.04275        -0.048575     -0.041603      0.238081
     13.54191     13.54709     44.04275        -0.026310     -0.015774      0.008025
      0.00000      0.00000     50.44728         0.002538     -0.001666     -0.621784
     -0.00246      9.03140     50.44728         0.003044      0.001407     -0.646065
      9.03040      0.00000     50.44728        -0.002956      0.001289     -0.620468
      9.02794      9.03140     50.44728        -0.002218     -0.000229     -0.642716
      4.51397      4.51570     50.44728        -0.000246      0.009506     -0.638737
      4.51151     13.54710     50.44728        -0.001636     -0.009487     -0.631618
     13.54437      4.51570     50.44728        -0.000436      0.010089     -0.629054
     13.54191     13.54710     50.44728         0.002832     -0.009050     -0.628442
 -----------------------------------------------------------------------------------
    total drift:                               -0.034674     -0.076946      0.307159


--------------------------------------------------------------------------------------------------------



  FREE ENERGIE OF THE ION-ELECTRON SYSTEM (eV)
  ---------------------------------------------------
  free  energy   TOTEN  =     -1575.35363118 eV

  energy  without entropy=    -1575.35363118  energy(sigma->0) =    -1575.35363118
 


--------------------------------------------------------------------------------------------------------


    POTLOK:  cpu time    0.5014: real time    0.5013


--------------------------------------------------------------------------------------------------------


     LOOP+:  cpu time  285.3115: real time  285.8664
 vacuum level on the upper side and lower side of the slab         2.358         1.549
    4ORBIT:  cpu time    0.0000: real time    0.0000

 total amount of memory used by VASP MPI-rank0  8653591. kBytes
=======================================================================

   base      :      30000. kBytes
   nonlr-proj:      53629. kBytes
   fftplans  :     249280. kBytes
   grid      :     701440. kBytes
   one-center:       2636. kBytes
   wavefun   :    7616606. kBytes
 
  
  
 General timing and accounting informations for this job:
 ========================================================
  
                  Total CPU time used (sec):      499.551
                            User time (sec):      405.625
                          System time (sec):       93.926
                         Elapsed time (sec):      500.057
  
                   Maximum memory used (kb):    10329116.
                   Average memory used (kb):          N/A
  
                          Minor page faults:      3645993
                          Major page faults:           12
                 Voluntary context switches:        11229
