 vasp.6.2.1 16May21 (build Nov 15 2021 14:57:28) complex                         
 executed on             LinuxPGI date 2023.07.30  20:53:26
 running on    4 total cores
 distrk:  each k-point on    4 cores,    1 groups
 distr:  one band on NCORE=   1 cores,    4 groups


--------------------------------------------------------------------------------------------------------


 INCAR:
   SYSTEM = PSC
   ISTART = 1
   ICHARG = 1
   PREC = Normal
   ENCUT = 500
   GGA_COMPAT = F
   NELM = 600
   ISYM = 0
   LREAL = Auto
   ISMEAR = 0
   SIGMA = 0.05
   AMIN = 0.01
   BMIX = 0.01
   LVTOT = T
   LWAVE = F
   LDIPOL = T
   IDIPOL = 3
   LVDW = T
   IVDW = 12

 POTCAR:    PAW_PBE H 15Jun2001                   
 POTCAR:    PAW_PBE C 08Apr2002                   
 POTCAR:    PAW_PBE N 08Apr2002                   
 POTCAR:    PAW_PBE I 08Apr2002                   
 POTCAR:    PAW_PBE Pb 08Apr2002                  
 WARNING: For LVTOT=.TRUE., VASP.5.x writes the TOTAL local potential to the
     file LOCPOT. If you want only the Hartree contributions, use LVHAR=.TRUE.
     instead. 

 POTCAR:    PAW_PBE H 15Jun2001                   
   SHA256 =  030f79b5d3ab3cf0e668861823c8fb652ff669f3e15e46930bd03bfd63a607b6 H/POTCAR              
   COPYR  = (c) Copyright 15Jun2001 Georg Kresse                                                    
   COPYR  = This file is part of the software VASP. Any use, copying, and all other rights are regul
   COPYR  = If you do not have a valid VASP license, you may not use, copy or distribute this file. 
   VRHFIN =H: ultrasoft test                                                                        
   LEXCH  = PE                                                                                      
   EATOM  =    12.4884 eV,    0.9179 Ry                                                             
                                                                                                    
   TITEL  = PAW_PBE H 15Jun2001                                                                     
   LULTRA =        F    use ultrasoft PP ?                                                          
   IUNSCR =        0    unscreen: 0-lin 1-nonlin 2-no                                               
   RPACOR =    0.000    partial core radius                                                         
   POMASS =    1.000; ZVAL   =    1.000    mass and valenz                                          
   RCORE  =    1.100    outmost cutoff radius                                                       
   RWIGS  =    0.700; RWIGS  =    0.370    wigner-seitz radius (au A)                               
   ENMAX  =  250.000; ENMIN  =  200.000 eV                                                          
   RCLOC  =    0.701    cutoff for local pot                                                        
   LCOR   =        T    correct aug charges                                                         
   LPAW   =        T    paw PP                                                                      
   EAUG   =  400.000                                                                                
   RMAX   =    1.123    core radius for proj-oper                                                   
   RAUG   =    1.200    factor for augmentation sphere                                              
   RDEP   =    1.112    radius for radial grids                                                     
   RDEPT  =    0.926    core radius for aug-charge                                                  
                                                                                                    
   Atomic configuration                                                                             
    2 entries                                                                                       
     n  l   j            E        occ.                                                              
     1  0  0.50        -6.4927   1.0000                                                             
     2  1  0.50        -3.4015   0.0000                                                             
   Description                                                                                      
     l       E           TYP  RCUT    TYP  RCUT                                                     
     0     -6.4927494     23  1.100                                                                 
     0      6.8029130     23  1.100                                                                 
     1     -4.0817478     23  1.100                                                                 
  local pseudopotential read in
  atomic valenz-charges read in
  non local Contribution for L=            0  read in
    real space projection operators read in
  non local Contribution for L=            0  read in
    real space projection operators read in
  non local Contribution for L=            1  read in
    real space projection operators read in
    PAW grid and wavefunctions read in
 
   number of l-projection  operators is LMAX  =            3
   number of lm-projection operators is LMMAX =            5
 
 POTCAR:    PAW_PBE C 08Apr2002                   
   SHA256 =  253f7b50bb8d59471dbedb8285d89021f4a42ed1a2c5d38a03a736e69125dd95 C/POTCAR              
   COPYR  = (c) Copyright 08Apr2002 Georg Kresse                                                    
   COPYR  = This file is part of the software VASP. Any use, copying, and all other rights are regul
   COPYR  = If you do not have a valid VASP license, you may not use, copy or distribute this file. 
   VRHFIN =C: s2p2                                                                                  
   LEXCH  = PE                                                                                      
   EATOM  =   147.1560 eV,   10.8157 Ry                                                             
                                                                                                    
   TITEL  = PAW_PBE C 08Apr2002                                                                     
   LULTRA =        F    use ultrasoft PP ?                                                          
   IUNSCR =        1    unscreen: 0-lin 1-nonlin 2-no                                               
   RPACOR =    1.200    partial core radius                                                         
   POMASS =   12.011; ZVAL   =    4.000    mass and valenz                                          
   RCORE  =    1.500    outmost cutoff radius                                                       
   RWIGS  =    1.630; RWIGS  =    0.863    wigner-seitz radius (au A)                               
   ENMAX  =  400.000; ENMIN  =  300.000 eV                                                          
   ICORE  =        2    local potential                                                             
   LCOR   =        T    correct aug charges                                                         
   LPAW   =        T    paw PP                                                                      
   EAUG   =  644.873                                                                                
   DEXC   =    0.000                                                                                
   RMAX   =    1.529    core radius for proj-oper                                                   
   RAUG   =    1.300    factor for augmentation sphere                                              
   RDEP   =    1.501    radius for radial grids                                                     
   RDEPT  =    1.300    core radius for aug-charge                                                  
                                                                                                    
   Atomic configuration                                                                             
    4 entries                                                                                       
     n  l   j            E        occ.                                                              
     1  0  0.50      -273.3789   2.0000                                                             
     2  0  0.50       -13.7508   2.0000                                                             
     2  1  0.50        -5.2854   2.0000                                                             
     3  2  1.50        -5.4423   0.0000                                                             
   Description                                                                                      
     l       E           TYP  RCUT    TYP  RCUT                                                     
     0    -13.7508458     23  1.200                                                                 
     0     -8.2022199     23  1.200                                                                 
     1     -5.2854383     23  1.500                                                                 
     1     34.0145650     23  1.500                                                                 
     2     -5.4423304      7  1.500                                                                 
  local pseudopotential read in
  partial core-charges read in
  partial kinetic energy density read in
  atomic valenz-charges read in
  non local Contribution for L=            0  read in
    real space projection operators read in
  non local Contribution for L=            0  read in
    real space projection operators read in
  non local Contribution for L=            1  read in
    real space projection operators read in
  non local Contribution for L=            1  read in
    real space projection operators read in
    PAW grid and wavefunctions read in
 
   number of l-projection  operators is LMAX  =            4
   number of lm-projection operators is LMMAX =            8
 
 POTCAR:    PAW_PBE N 08Apr2002                   
   SHA256 =  e053789ff3a61a86a1b75d8a110fcc91f86041011e7b0817c7c99e4e8a6349d7 N/POTCAR              
   COPYR  = (c) Copyright 08Apr2002 Georg Kresse                                                    
   COPYR  = This file is part of the software VASP. Any use, copying, and all other rights are regul
   COPYR  = If you do not have a valid VASP license, you may not use, copy or distribute this file. 
   VRHFIN =N: s2p3                                                                                  
   LEXCH  = PE                                                                                      
   EATOM  =   264.5486 eV,   19.4438 Ry                                                             
                                                                                                    
   TITEL  = PAW_PBE N 08Apr2002                                                                     
   LULTRA =        F    use ultrasoft PP ?                                                          
   IUNSCR =        1    unscreen: 0-lin 1-nonlin 2-no                                               
   RPACOR =    1.200    partial core radius                                                         
   POMASS =   14.001; ZVAL   =    5.000    mass and valenz                                          
   RCORE  =    1.500    outmost cutoff radius                                                       
   RWIGS  =    1.400; RWIGS  =    0.741    wigner-seitz radius (au A)                               
   ENMAX  =  400.000; ENMIN  =  300.000 eV                                                          
   ICORE  =        2    local potential                                                             
   LCOR   =        T    correct aug charges                                                         
   LPAW   =        T    paw PP                                                                      
   EAUG   =  627.112                                                                                
   DEXC   =    0.000                                                                                
   RMAX   =    1.529    core radius for proj-oper                                                   
   RAUG   =    1.300    factor for augmentation sphere                                              
   RDEP   =    1.514    radius for radial grids                                                     
   RDEPT  =    1.338    core radius for aug-charge                                                  
                                                                                                    
   Atomic configuration                                                                             
    4 entries                                                                                       
     n  l   j            E        occ.                                                              
     1  0  0.50      -384.7179   2.0000                                                             
     2  0  0.50       -18.5828   2.0000                                                             
     2  1  0.50        -7.0898   3.0000                                                             
     3  2  1.50        -6.8029   0.0000                                                             
   Description                                                                                      
     l       E           TYP  RCUT    TYP  RCUT                                                     
     0    -18.5828119     23  1.200                                                                 
     0    -13.5018863     23  1.200                                                                 
     1     -7.0897853     23  1.500                                                                 
     1      9.5240782     23  1.500                                                                 
     2     -6.8029130      7  1.500                                                                 
  local pseudopotential read in
  partial core-charges read in
  partial kinetic energy density read in
  atomic valenz-charges read in
  non local Contribution for L=            0  read in
    real space projection operators read in
  non local Contribution for L=            0  read in
    real space projection operators read in
  non local Contribution for L=            1  read in
    real space projection operators read in
  non local Contribution for L=            1  read in
    real space projection operators read in
    PAW grid and wavefunctions read in
 
   number of l-projection  operators is LMAX  =            4
   number of lm-projection operators is LMMAX =            8
 
 POTCAR:    PAW_PBE I 08Apr2002                   
   SHA256 =  e40f3f59b681c1fc3e3091736183c4589116986673d2b852a5012aec72758799 I/POTCAR              
   COPYR  = (c) Copyright 08Apr2002 Georg Kresse                                                    
   COPYR  = This file is part of the software VASP. Any use, copying, and all other rights are regul
   COPYR  = If you do not have a valid VASP license, you may not use, copy or distribute this file. 
   VRHFIN =I : s2p5                                                                                 
   LEXCH  = PE                                                                                      
   EATOM  =   315.8678 eV,   23.2156 Ry                                                             
                                                                                                    
   TITEL  = PAW_PBE I 08Apr2002                                                                     
   LULTRA =        F    use ultrasoft PP ?                                                          
   IUNSCR =        1    unscreen: 0-lin 1-nonlin 2-no                                               
   RPACOR =    2.200    partial core radius                                                         
   POMASS =  126.904; ZVAL   =    7.000    mass and valenz                                          
   RCORE  =    2.300    outmost cutoff radius                                                       
   RWIGS  =    2.810; RWIGS  =    1.487    wigner-seitz radius (au A)                               
   ENMAX  =  175.647; ENMIN  =  131.735 eV                                                          
   ICORE  =        3    local potential                                                             
   LCOR   =        T    correct aug charges                                                         
   LPAW   =        T    paw PP                                                                      
   EAUG   =  370.139                                                                                
   DEXC   =    0.000                                                                                
   RMAX   =    2.359    core radius for proj-oper                                                   
   RAUG   =    1.300    factor for augmentation sphere                                              
   RDEP   =    2.392    radius for radial grids                                                     
   RDEPT  =    2.170    core radius for aug-charge                                                  
                                                                                                    
   Atomic configuration                                                                             
   13 entries                                                                                       
     n  l   j            E        occ.                                                              
     1  0  0.50    -32976.3739   2.0000                                                             
     2  0  0.50     -5094.5933   2.0000                                                             
     2  1  1.50     -4572.0131   6.0000                                                             
     3  0  0.50     -1028.2813   2.0000                                                             
     3  1  1.50      -859.0250   6.0000                                                             
     3  2  2.50      -605.7620  10.0000                                                             
     4  0  0.50      -180.5540   2.0000                                                             
     4  1  1.50      -127.5306   6.0000                                                             
     4  2  2.50       -50.2720  10.0000                                                             
     5  0  0.50       -17.4058   2.0000                                                             
     5  1  0.50        -7.0851   5.0000                                                             
     5  2  1.50        -7.0750   0.0000                                                             
     4  3  2.50        -7.0750   0.0000                                                             
   Description                                                                                      
     l       E           TYP  RCUT    TYP  RCUT                                                     
     0    -17.4058016     23  2.300                                                                 
     0    -18.7663842     23  2.300                                                                 
     1     -7.0850686     23  2.300                                                                 
     1     -4.2150896     23  2.300                                                                 
     2     -7.0750295     23  2.300                                                                 
     3     -1.3605826     23  2.300                                                                 
  local pseudopotential read in
  partial core-charges read in
  partial kinetic energy density read in
  atomic valenz-charges read in
  non local Contribution for L=            0  read in
    real space projection operators read in
  non local Contribution for L=            0  read in
    real space projection operators read in
  non local Contribution for L=            1  read in
    real space projection operators read in
  non local Contribution for L=            1  read in
    real space projection operators read in
  non local Contribution for L=            2  read in
    real space projection operators read in
    PAW grid and wavefunctions read in
 
   number of l-projection  operators is LMAX  =            5
   number of lm-projection operators is LMMAX =           13
 
 POTCAR:    PAW_PBE Pb 08Apr2002                  
   SHA256 =  797118a27cf1bcd06b9881c67a26cdde129e3cd1a551dd4a281f9681ce847303 Pb/POTCAR             
   COPYR  = (c) Copyright 08Apr2002 Georg Kresse                                                    
   COPYR  = This file is part of the software VASP. Any use, copying, and all other rights are regul
   COPYR  = If you do not have a valid VASP license, you may not use, copy or distribute this file. 
   VRHFIN =Pb:                                                                                      
   LEXCH  = PE                                                                                      
   EATOM  =    96.9868 eV,    7.1283 Ry                                                             
                                                                                                    
   TITEL  = PAW_PBE Pb 08Apr2002                                                                    
   LULTRA =        F    use ultrasoft PP ?                                                          
   IUNSCR =        1    unscreen: 0-lin 1-nonlin 2-no                                               
   RPACOR =    2.200    partial core radius                                                         
   POMASS =  207.200; ZVAL   =    4.000    mass and valenz                                          
   RCORE  =    3.100    outmost cutoff radius                                                       
   RWIGS  =    3.260; RWIGS  =    1.725    wigner-seitz radius (au A)                               
   ENMAX  =   97.973; ENMIN  =   73.480 eV                                                          
   ICORE  =        3    local potential                                                             
   LCOR   =        T    correct aug charges                                                         
   LPAW   =        T    paw PP                                                                      
   EAUG   =  234.873                                                                                
   DEXC   =    0.000                                                                                
   RMAX   =    3.158    core radius for proj-oper                                                   
   RAUG   =    1.300    factor for augmentation sphere                                              
   RDEP   =    3.202    radius for radial grids                                                     
   RDEPT  =    2.659    core radius for aug-charge                                                  
                                                                                                    
   Atomic configuration                                                                             
   17 entries                                                                                       
     n  l   j            E        occ.                                                              
     1  0  0.50    -88091.8466   2.0000                                                             
     2  0  0.50    -15753.4197   2.0000                                                             
     2  1  1.50    -13508.1797   6.0000                                                             
     3  0  0.50     -3781.7194   2.0000                                                             
     3  1  1.50     -3138.2529   6.0000                                                             
     3  2  2.50     -2483.2977  10.0000                                                             
     4  0  0.50      -856.2895   2.0000                                                             
     4  1  1.50      -645.4943   6.0000                                                             
     4  2  2.50      -401.8768  10.0000                                                             
     4  3  3.50      -132.9059  14.0000                                                             
     5  0  0.50      -144.0950   2.0000                                                             
     5  1  1.50       -85.7879   6.0000                                                             
     5  2  2.50       -21.1769  10.0000                                                             
     6  0  0.50       -12.0372   2.0000                                                             
     6  1  1.50        -3.4971   2.0000                                                             
     6  2  2.50        -1.3606   0.0000                                                             
     5  3  2.50        -2.7212   0.0000                                                             
   Description                                                                                      
     l       E           TYP  RCUT    TYP  RCUT                                                     
     0    -12.0371566     23  3.100                                                                 
     0    -13.3977392     23  3.100                                                                 
     1     -3.4971341     23  3.100                                                                 
     1     -5.4423304     23  3.100                                                                 
     2     -1.3605826     23  3.100                                                                 
     3     -1.3605826     23  3.100                                                                 
  local pseudopotential read in
  partial core-charges read in
  partial kinetic energy density read in
  atomic valenz-charges read in
  non local Contribution for L=            0  read in
    real space projection operators read in
  non local Contribution for L=            0  read in
    real space projection operators read in
  non local Contribution for L=            1  read in
    real space projection operators read in
  non local Contribution for L=            1  read in
    real space projection operators read in
  non local Contribution for L=            2  read in
    real space projection operators read in
    PAW grid and wavefunctions read in
 
   number of l-projection  operators is LMAX  =            5
   number of lm-projection operators is LMMAX =           13
 
 Optimization of the real space projectors (new method)

 maximal supplied QI-value         = 34.20
 optimisation between [QCUT,QGAM] = [ 11.29, 22.57] = [ 35.68,142.71] Ry 
 Optimized for a Real-space Cutoff    1.16 Angstroem

   l    n(q)    QCUT    max X(q) W(low)/X(q) W(high)/X(q)  e(spline) 
   0      8    11.287    19.460    0.40E-03    0.73E-03    0.16E-06
   0      8    11.287    12.209    0.38E-03    0.70E-03    0.15E-06
   1      7    11.287     4.655    0.22E-03    0.25E-04    0.22E-06
 Optimization of the real space projectors (new method)

 maximal supplied QI-value         = 25.13
 optimisation between [QCUT,QGAM] = [ 11.31, 22.87] = [ 35.82,146.48] Ry 
 Optimized for a Real-space Cutoff    1.00 Angstroem

   l    n(q)    QCUT    max X(q) W(low)/X(q) W(high)/X(q)  e(spline) 
   0      7    11.310   115.676    0.43E-03    0.13E-02    0.19E-06
   0      7    11.310    87.132    0.43E-03    0.13E-02    0.18E-06
   1      6    11.310     4.429    0.42E-03    0.74E-03    0.11E-06
   1      6    11.310     2.733    0.34E-03    0.55E-03    0.92E-07
 Optimization of the real space projectors (new method)

 maximal supplied QI-value         = 25.13
 optimisation between [QCUT,QGAM] = [ 11.31, 22.87] = [ 35.82,146.48] Ry 
 Optimized for a Real-space Cutoff    1.27 Angstroem

   l    n(q)    QCUT    max X(q) W(low)/X(q) W(high)/X(q)  e(spline) 
   0      9    11.310    79.467    0.75E-04    0.16E-03    0.36E-06
   0      9    11.310    66.151    0.74E-04    0.16E-03    0.36E-06
   1      8    11.310    17.416    0.35E-03    0.12E-03    0.95E-06
   1      8    11.310    12.382    0.37E-03    0.13E-03    0.98E-06
 Optimization of the real space projectors (new method)

 maximal supplied QI-value         = 16.25
 optimisation between [QCUT,QGAM] = [ 11.38, 22.75] = [ 36.24,144.96] Ry 
 Optimized for a Real-space Cutoff    1.31 Angstroem

   l    n(q)    QCUT    max X(q) W(low)/X(q) W(high)/X(q)  e(spline) 
   0      9    11.376   194.483    0.24E-03    0.23E-03    0.67E-07
   0      9    11.376   190.334    0.23E-03    0.22E-03    0.65E-07
   1      8    11.376   116.687    0.25E-03    0.63E-04    0.16E-06
   1      8    11.376    88.696    0.25E-03    0.61E-04    0.16E-06
   2      8    11.376     4.877    0.17E-03    0.14E-03    0.29E-07
 Optimization of the real space projectors (new method)

 maximal supplied QI-value         = 12.09
 optimisation between [QCUT,QGAM] = [ 11.37, 22.86] = [ 36.19,146.31] Ry 
 Optimized for a Real-space Cutoff    1.66 Angstroem

   l    n(q)    QCUT    max X(q) W(low)/X(q) W(high)/X(q)  e(spline) 
   0     11    11.369   135.111    0.12E-03    0.69E-04    0.19E-05
   0     11    11.369   146.850    0.11E-03    0.65E-04    0.18E-05
   1     11    11.369   148.016    0.17E-03    0.32E-03    0.89E-06
   1     11    11.369   122.989    0.17E-03    0.32E-03    0.91E-06
   2     10    11.369     8.916    0.12E-03    0.45E-04    0.33E-06
  PAW_PBE H 15Jun2001                   :
 energy of atom  1       EATOM=  -12.4884
 kinetic energy error for atom=    0.0020 (will be added to EATOM!!)
  PAW_PBE C 08Apr2002                   :
 energy of atom  2       EATOM= -147.1560
 kinetic energy error for atom=    0.0076 (will be added to EATOM!!)
  PAW_PBE N 08Apr2002                   :
 energy of atom  3       EATOM= -264.5486
 kinetic energy error for atom=    0.0138 (will be added to EATOM!!)
  PAW_PBE I 08Apr2002                   :
 energy of atom  4       EATOM= -315.8678
 kinetic energy error for atom=    0.0009 (will be added to EATOM!!)
  PAW_PBE Pb 08Apr2002                  :
 energy of atom  5       EATOM=  -96.9868
 kinetic energy error for atom=    0.0000 (will be added to EATOM!!)
 
 
 POSCAR:  H  C  N  I Pb
  positions in cartesian coordinates
  No initial velocities read in
 exchange correlation table for  LEXCH =        8
   RHO(1)=    0.500       N(1)  =     2000
   RHO(2)=  100.500       N(2)  =     4000
 


--------------------------------------------------------------------------------------------------------


 ion  position               nearest neighbor table
   1  0.474  0.335  0.569- 187 1.02
   2  0.449  0.835  0.574- 188 1.03
   3  0.923  0.248  0.580- 189 1.03
   4  0.941  0.817  0.575- 190 1.02
   5  0.318  0.075  0.570- 194 1.03
   6  0.344  0.561  0.566- 195 1.02
   7  0.798  0.091  0.572- 196 1.02
   8  0.105  0.246  0.557- 183 1.02
   9  0.082  0.674  0.574- 184 1.02
  10  0.547  0.150  0.560- 185 1.03
  11  0.498  0.645  0.561- 186 1.03
  12  0.368  0.010  0.555- 194 1.01
  13  0.288  0.633  0.556- 195 1.03
  14  0.871  0.035  0.562- 196 1.02
  15  0.058  0.250  0.581- 183 1.03
  16  0.998  0.695  0.587- 184 1.03
  17  0.574  0.238  0.570- 185 1.03
  18  0.452  0.698  0.580- 186 1.03
  19  0.280  0.441  0.573- 191 1.02
  20  0.182  0.059  0.572- 192 1.03
  21  0.674  0.030  0.573- 193 1.02
  22  0.388  0.306  0.559- 187 1.03
  23  0.503  0.870  0.553- 188 1.03
  24  0.878  0.238  0.556- 189 1.03
  25  0.988  0.867  0.556- 190 1.03
  26  0.190  0.434  0.565- 191 1.00
  27  0.143  0.988  0.558- 192 1.02
  28  0.671  0.939  0.564- 193 1.01
  29  0.429  0.188  0.552- 146 1.09
  30  0.543  0.751  0.542- 147 1.09
  31  0.993  0.238  0.537- 144 1.08
  32  0.083  0.777  0.553- 145 1.09
  33  0.184  0.555  0.553- 148 1.09
  34  0.260  0.942  0.546- 149 1.09
  35  0.793  0.935  0.556- 150 1.09
  36  0.460  0.308  0.674- 205 1.02
  37  0.441  0.808  0.672- 206 1.02
  38  0.946  0.277  0.675- 207 1.02
  39  0.923  0.734  0.672- 208 1.03
  40  0.308  0.049  0.672- 209 1.02
  41  0.295  0.553  0.676- 210 1.02
  42  0.797  0.053  0.675- 211 1.02
  43  0.844  0.472  0.664- 212 1.02
  44  0.093  0.174  0.648- 197 1.02
  45  0.110  0.716  0.652- 198 1.02
  46  0.581  0.169  0.649- 199 1.02
  47  0.573  0.670  0.652- 200 1.02
  48  0.186  0.409  0.648- 201 1.02
  49  0.167  0.929  0.647- 202 1.01
  50  0.644  0.475  0.659- 203 1.03
  51  0.678  0.915  0.649- 204 1.02
  52  0.056  0.185  0.674- 197 1.03
  53  0.051  0.675  0.670- 198 1.02
  54  0.561  0.207  0.674- 199 1.03
  55  0.538  0.701  0.676- 200 1.03
  56  0.203  0.440  0.674- 201 1.03
  57  0.198  0.955  0.673- 202 1.02
  58  0.716  0.421  0.669- 203 1.02
  59  0.701  0.947  0.674- 204 1.03
  60  0.421  0.325  0.649- 205 1.02
  61  0.422  0.832  0.646- 206 1.02
  62  0.924  0.319  0.651- 207 1.01
  63  0.908  0.810  0.656- 208 1.02
  64  0.337  0.073  0.646- 209 1.02
  65  0.324  0.584  0.651- 210 1.03
  66  0.827  0.082  0.649- 211 1.02
  67  0.852  0.555  0.650- 212 1.01
  68  0.014  0.258  0.632- 151 1.09
  69  0.026  0.804  0.641- 152 1.09
  70  0.494  0.241  0.631- 153 1.09
  71  0.504  0.748  0.631- 154 1.08
  72  0.251  1.000  0.629- 156 1.09
  73  0.259  0.496  0.632- 155 1.08
  74  0.755  0.996  0.631- 158 1.08
  75  0.724  0.564  0.645- 157 1.08
  76  0.449  0.301  0.769- 221 1.02
  77  0.449  0.801  0.769- 222 1.02
  78  0.949  0.301  0.769- 223 1.02
  79  0.949  0.801  0.769- 224 1.02
  80  0.301  0.051  0.769- 225 1.02
  81  0.301  0.551  0.769- 226 1.02
  82  0.801  0.051  0.769- 227 1.02
  83  0.801  0.551  0.769- 228 1.02
  84  0.079  0.171  0.743- 213 1.02
  85  0.079  0.671  0.743- 214 1.02
  86  0.579  0.171  0.743- 215 1.02
  87  0.579  0.671  0.743- 216 1.02
  88  0.171  0.421  0.743- 217 1.02
  89  0.171  0.921  0.743- 218 1.02
  90  0.671  0.421  0.743- 219 1.02
  91  0.671  0.921  0.743- 220 1.02
  92  0.051  0.199  0.769- 213 1.02
  93  0.051  0.699  0.769- 214 1.02
  94  0.551  0.199  0.769- 215 1.02
  95  0.551  0.699  0.769- 216 1.02
  96  0.199  0.449  0.769- 217 1.02
  97  0.199  0.949  0.769- 218 1.02
  98  0.699  0.449  0.769- 219 1.02
  99  0.699  0.949  0.769- 220 1.02
 100  0.421  0.329  0.743- 221 1.02
 101  0.421  0.829  0.743- 222 1.02
 102  0.921  0.329  0.743- 223 1.02
 103  0.921  0.829  0.743- 224 1.02
 104  0.329  0.079  0.743- 225 1.02
 105  0.329  0.579  0.743- 226 1.02
 106  0.829  0.079  0.743- 227 1.02
 107  0.829  0.579  0.743- 228 1.02
 108  0.000  0.250  0.726- 161 1.09
 109  0.000  0.750  0.726- 162 1.09
 110  0.500  0.250  0.726- 159 1.09
 111  0.500  0.750  0.726- 160 1.09
 112  0.250  0.000  0.726- 163 1.09
 113  0.250  0.500  0.726- 164 1.09
 114  0.750  0.000  0.726- 165 1.09
 115  0.750  0.500  0.726- 166 1.09
 116  0.720  0.442  0.541- 173 1.10
 117  0.737  0.492  0.518- 173 1.09
 118  0.660  0.553  0.559- 174 1.09
 119  0.707  0.638  0.556- 174 1.10
 120  0.850  0.507  0.569- 175 1.10
 121  0.789  0.577  0.579- 175 1.10
 122  0.871  0.562  0.530- 176 1.09
 123  0.797  0.624  0.523- 176 1.10
 124  0.870  0.463  0.519- 177 1.10
 125  0.863  0.424  0.544- 177 1.10
 126  0.872  0.326  0.519- 178 1.10
 127  0.783  0.322  0.530- 178 1.10
 128  0.635  0.551  0.519- 179 1.09
 129  0.688  0.634  0.516- 179 1.10
 130  0.606  0.633  0.531- 179 1.10
 131  0.755  0.468  0.597- 180 1.10
 132  0.755  0.410  0.574- 180 1.10
 133  0.684  0.477  0.578- 180 1.10
 134  0.817  0.692  0.559- 181 1.10
 135  0.900  0.687  0.544- 181 1.10
 136  0.887  0.626  0.566- 181 1.09
 137  0.820  0.380  0.485- 182 1.09
 138  0.784  0.293  0.492- 182 1.10
 139  0.663  0.307  0.520- 168 1.09
 140  0.731  0.460  0.471- 169 1.09
 141  0.537  0.361  0.519- 170 1.09
 142  0.604  0.512  0.470- 171 1.09
 143  0.506  0.463  0.494- 172 1.09
 144  0.992  0.242  0.555-  31 1.08 189 1.31 183 1.32
 145  0.035  0.768  0.563-  32 1.09 184 1.31 190 1.32
 146  0.468  0.228  0.558-  29 1.09 185 1.31 187 1.32
 147  0.504  0.757  0.556-  30 1.09 188 1.30 186 1.31
 148  0.237  0.534  0.559-  33 1.09 195 1.31 191 1.32
 149  0.256  0.994  0.556-  34 1.09 192 1.31 194 1.32
 150  0.771  0.986  0.562-  35 1.09 196 1.31 193 1.31
 151  0.008  0.247  0.649-  68 1.09 197 1.31 207 1.32
 152  0.010  0.765  0.653-  69 1.09 198 1.31 208 1.31
 153  0.501  0.247  0.648-  70 1.09 199 1.31 205 1.31
 154  0.498  0.750  0.649-  71 1.08 200 1.31 206 1.31
 155  0.256  0.496  0.649-  73 1.08 210 1.30 201 1.31
 156  0.252  0.001  0.647-  72 1.09 209 1.31 202 1.32
 157  0.747  0.518  0.653-  75 1.08 212 1.31 203 1.31
 158  0.753  0.998  0.649-  74 1.08 211 1.31 204 1.31
 159  0.500  0.250  0.743- 110 1.09 221 1.31 215 1.31
 160  0.500  0.750  0.743- 111 1.09 222 1.31 216 1.31
 161  1.000  0.250  0.743- 108 1.09 223 1.31 213 1.31
 162  1.000  0.750  0.743- 109 1.09 224 1.31 214 1.31
 163  0.250  0.000  0.743- 112 1.09 225 1.31 218 1.31
 164  0.250  0.500  0.743- 113 1.09 226 1.31 217 1.31
 165  0.750  0.000  0.743- 114 1.09 227 1.31 220 1.31
 166  0.750  0.500  0.743- 115 1.09 228 1.31 219 1.31
 167  0.706  0.381  0.495- 169 1.40 168 1.41 182 1.51
 168  0.650  0.352  0.509- 139 1.09 170 1.39 167 1.41
 169  0.688  0.438  0.481- 140 1.09 167 1.40 171 1.40
 170  0.579  0.382  0.508- 141 1.09 168 1.39 172 1.41
 171  0.616  0.467  0.481- 142 1.09 172 1.38 169 1.40
 172  0.562  0.440  0.494- 143 1.09 171 1.38 170 1.41
 173  0.762  0.476  0.533- 117 1.09 116 1.10 229 1.52 177 1.53
 174  0.695  0.586  0.548- 118 1.09 119 1.10 179 1.52 229 1.54
 175  0.792  0.525  0.569- 121 1.10 120 1.10 180 1.52 229 1.53
 176  0.827  0.598  0.537- 122 1.09 123 1.10 181 1.52 229 1.53
 177  0.833  0.432  0.529- 124 1.10 125 1.10 173 1.53 178 1.54
 178  0.818  0.355  0.519- 127 1.10 126 1.10 177 1.54 182 1.54
 179  0.655  0.601  0.527- 128 1.09 130 1.10 129 1.10 174 1.52
 180  0.743  0.467  0.580- 133 1.10 131 1.10 132 1.10 175 1.52
 181  0.859  0.653  0.552- 136 1.09 135 1.10 134 1.10 176 1.52
 182  0.784  0.351  0.497- 137 1.09 138 1.10 167 1.51 178 1.54
 183  0.055  0.244  0.565-   8 1.02  15 1.03 144 1.32
 184  0.038  0.709  0.575-   9 1.02  16 1.03 145 1.31
 185  0.536  0.206  0.562-  17 1.03  10 1.03 146 1.31
 186  0.485  0.697  0.566-  18 1.03  11 1.03 147 1.31
 187  0.443  0.296  0.562-   1 1.02  22 1.03 146 1.32
 188  0.482  0.824  0.561-  23 1.03   2 1.03 147 1.30
 189  0.927  0.246  0.564-   3 1.03  24 1.03 144 1.31
 190  0.981  0.817  0.563-   4 1.02  25 1.03 145 1.32
 191  0.236  0.464  0.565-  26 1.00  19 1.02 148 1.32
 192  0.190  0.016  0.561-  27 1.02  20 1.03 149 1.31
 193  0.699  0.986  0.566-  28 1.01  21 1.02 150 1.31
 194  0.318  0.030  0.560-  12 1.01   5 1.03 149 1.32
 195  0.294  0.578  0.560-   6 1.02  13 1.03 148 1.31
 196  0.816  0.041  0.566-  14 1.02   7 1.02 150 1.31
 197  0.054  0.199  0.658-  44 1.02  52 1.03 151 1.31
 198  0.059  0.715  0.659-  45 1.02  53 1.02 152 1.31
 199  0.551  0.206  0.658-  46 1.02  54 1.03 153 1.31
 200  0.538  0.704  0.660-  47 1.02  55 1.03 154 1.31
 201  0.214  0.445  0.658-  48 1.02  56 1.03 155 1.31
 202  0.203  0.959  0.656-  49 1.01  57 1.02 156 1.32
 203  0.700  0.468  0.660-  58 1.02  50 1.03 157 1.31
 204  0.708  0.950  0.658-  51 1.02  59 1.03 158 1.31
 205  0.459  0.296  0.658-  60 1.02  36 1.02 153 1.31
 206  0.451  0.799  0.656-  61 1.02  37 1.02 154 1.31
 207  0.956  0.283  0.659-  62 1.01  38 1.02 151 1.32
 208  0.943  0.771  0.661-  63 1.02  39 1.03 152 1.31
 209  0.302  0.043  0.656-  64 1.02  40 1.02 156 1.31
 210  0.294  0.546  0.659-  41 1.02  65 1.03 155 1.30
 211  0.794  0.047  0.658-  42 1.02  66 1.02 158 1.31
 212  0.819  0.515  0.656-  67 1.01  43 1.02 157 1.31
 213  0.046  0.204  0.753-  92 1.02  84 1.02 161 1.31
 214  0.046  0.704  0.753-  93 1.02  85 1.02 162 1.31
 215  0.546  0.204  0.753-  94 1.02  86 1.02 159 1.31
 216  0.546  0.704  0.753-  95 1.02  87 1.02 160 1.31
 217  0.204  0.454  0.753-  96 1.02  88 1.02 164 1.31
 218  0.204  0.954  0.753-  97 1.02  89 1.02 163 1.31
 219  0.704  0.454  0.753-  98 1.02  90 1.02 166 1.31
 220  0.704  0.954  0.753-  99 1.02  91 1.02 165 1.31
 221  0.454  0.296  0.753-  76 1.02 100 1.02 159 1.31
 222  0.454  0.796  0.753-  77 1.02 101 1.02 160 1.31
 223  0.954  0.296  0.753-  78 1.02 102 1.02 161 1.31
 224  0.954  0.796  0.753-  79 1.02 103 1.02 162 1.31
 225  0.296  0.046  0.753-  80 1.02 104 1.02 163 1.31
 226  0.296  0.546  0.753-  81 1.02 105 1.02 164 1.31
 227  0.796  0.046  0.753-  82 1.02 106 1.02 165 1.31
 228  0.796  0.546  0.753-  83 1.02 107 1.02 166 1.31
 229  0.770  0.545  0.547- 173 1.52 175 1.53 176 1.53 174 1.54
 230  0.509  0.014  0.551- 304 3.34
 231  0.484  0.505  0.555- 305 3.13
 232  0.001  0.009  0.552- 302 3.31
 233  0.030  0.505  0.555- 303 3.15
 234  0.250  0.248  0.553- 306 3.21
 235  0.245  0.766  0.553- 307 3.21
 236  0.732  0.211  0.556- 308 3.19
 237  0.700  0.796  0.555- 309 3.21
 238  0.997  0.987  0.655- 302 3.12 310 3.15
 239  0.015  0.495  0.656- 311 3.07 303 3.20
 240  0.500  0.005  0.654- 304 3.13 312 3.16
 241  0.503  0.495  0.655- 313 3.12 305 3.16
 242  0.257  0.243  0.655- 314 3.14 306 3.15
 243  0.254  0.756  0.654- 315 3.15 307 3.17
 244  0.747  0.268  0.655- 308 3.13 316 3.13
 245  0.746  0.744  0.654- 317 3.16 309 3.19
 246  0.131  0.121  0.608- 302 3.22 306 3.24
 247  0.152  0.606  0.609- 307 3.17 303 3.23
 248  0.640  0.114  0.610- 304 3.21 308 3.21
 249  0.629  0.621  0.610- 305 3.16 309 3.23
 250  0.365  0.387  0.608- 306 3.18 305 3.24
 251  0.373  0.882  0.606- 304 3.21 307 3.27
 252  0.887  0.371  0.610- 303 3.25 308 3.30
 253  0.868  0.881  0.607- 309 3.19 302 3.22
 254  0.123  0.366  0.608- 306 3.13 303 3.29
 255  0.123  0.877  0.607- 307 3.18 302 3.24
 256  0.595  0.346  0.602- 308 3.20 305 3.24
 257  0.615  0.866  0.613- 309 3.07 304 3.25
 258  0.385  0.133  0.606- 304 3.16 306 3.22
 259  0.383  0.632  0.612- 305 3.25 307 3.31
 260  0.882  0.136  0.613- 302 3.20 308 3.30
 261  0.904  0.644  0.615- 303 3.18 309 3.65
 262  0.000  0.000  0.755- 310 3.13 318 3.27
 263  0.000  0.500  0.755- 311 3.13 319 3.27
 264  0.500  0.000  0.755- 312 3.13 320 3.27
 265  0.500  0.500  0.755- 313 3.13 321 3.27
 266  0.250  0.250  0.755- 314 3.13 322 3.27
 267  0.250  0.750  0.755- 315 3.13 323 3.27
 268  0.750  0.250  0.755- 316 3.13 324 3.27
 269  0.750  0.750  0.755- 317 3.13 325 3.27
 270  0.136  0.114  0.705- 310 3.20 314 3.20
 271  0.136  0.614  0.705- 311 3.20 315 3.20
 272  0.636  0.114  0.705- 312 3.20 316 3.20
 273  0.636  0.614  0.705- 313 3.20 317 3.20
 274  0.364  0.386  0.705- 313 3.20 314 3.20
 275  0.364  0.886  0.705- 312 3.20 315 3.20
 276  0.864  0.386  0.705- 311 3.20 316 3.20
 277  0.864  0.886  0.705- 310 3.20 317 3.20
 278  0.114  0.364  0.705- 314 3.21 311 3.21
 279  0.114  0.864  0.705- 315 3.21 310 3.21
 280  0.614  0.364  0.705- 316 3.21 313 3.21
 281  0.614  0.864  0.705- 317 3.21 312 3.21
 282  0.386  0.136  0.705- 314 3.21 312 3.21
 283  0.386  0.636  0.705- 315 3.21 313 3.21
 284  0.886  0.136  0.705- 316 3.21 310 3.21
 285  0.886  0.636  0.705- 317 3.21 311 3.21
 286  0.135  0.115  0.801- 318 3.22 322 3.22
 287  0.135  0.615  0.801- 319 3.22 323 3.22
 288  0.635  0.115  0.801- 320 3.22 324 3.22
 289  0.635  0.615  0.801- 321 3.22 325 3.22
 290  0.365  0.385  0.801- 321 3.22 322 3.22
 291  0.365  0.885  0.801- 320 3.22 323 3.22
 292  0.865  0.385  0.801- 319 3.22 324 3.22
 293  0.865  0.885  0.801- 318 3.22 325 3.22
 294  0.115  0.365  0.801- 319 3.23 322 3.23
 295  0.115  0.865  0.801- 318 3.23 323 3.23
 296  0.615  0.365  0.801- 321 3.23 324 3.23
 297  0.615  0.865  0.801- 320 3.23 325 3.23
 298  0.385  0.135  0.801- 320 3.23 322 3.23
 299  0.385  0.635  0.801- 321 3.23 323 3.23
 300  0.885  0.135  0.801- 318 3.23 324 3.23
 301  0.885  0.635  0.801- 319 3.23 325 3.23
 302  0.997  0.004  0.605- 238 3.12 260 3.20 253 3.22 246 3.22 255 3.24 232 3.31
 303  0.006  0.505  0.605- 233 3.15 261 3.18 239 3.20 247 3.23 252 3.25 254 3.29
 304  0.503  0.004  0.604- 240 3.13 258 3.16 251 3.21 248 3.21 257 3.25 230 3.34
 305  0.503  0.500  0.604- 231 3.13 249 3.16 241 3.16 250 3.24 256 3.24 259 3.25
 306  0.253  0.252  0.604- 254 3.13 242 3.15 250 3.18 234 3.21 258 3.22 246 3.24
 307  0.248  0.752  0.604- 247 3.17 243 3.17 255 3.18 235 3.21 251 3.27 259 3.31
 308  0.747  0.256  0.605- 244 3.13 236 3.19 256 3.20 248 3.21 252 3.30 260 3.30
 309  0.742  0.757  0.603- 257 3.07 253 3.19 245 3.19 237 3.21 249 3.23 261 3.65
 310  0.000  0.000  0.705- 262 3.13 238 3.15 270 3.20 277 3.20 279 3.21 284 3.21
 311  0.000  0.500  0.705- 239 3.07 263 3.13 271 3.20 276 3.20 278 3.21 285 3.21
 312  0.500  0.000  0.705- 264 3.13 240 3.16 272 3.20 275 3.20 281 3.21 282 3.21
 313  0.500  0.500  0.705- 241 3.12 265 3.13 273 3.20 274 3.20 280 3.21 283 3.21
 314  0.250  0.250  0.705- 266 3.13 242 3.14 270 3.20 274 3.20 282 3.21 278 3.21
 315  0.250  0.750  0.705- 267 3.13 243 3.15 271 3.20 275 3.20 283 3.21 279 3.21
 316  0.750  0.250  0.705- 244 3.13 268 3.13 272 3.20 276 3.20 284 3.21 280 3.21
 317  0.750  0.750  0.705- 269 3.13 245 3.16 273 3.20 277 3.20 285 3.21 281 3.21
 318  0.000  0.000  0.807- 286 3.22 293 3.22 300 3.23 295 3.23 262 3.27
 319  0.000  0.500  0.807- 287 3.22 292 3.22 301 3.23 294 3.23 263 3.27
 320  0.500  0.000  0.807- 288 3.22 291 3.22 298 3.23 297 3.23 264 3.27
 321  0.500  0.500  0.807- 289 3.22 290 3.22 299 3.23 296 3.23 265 3.27
 322  0.250  0.250  0.807- 290 3.22 286 3.22 294 3.23 298 3.23 266 3.27
 323  0.250  0.750  0.807- 291 3.22 287 3.22 299 3.23 295 3.23 267 3.27
 324  0.750  0.250  0.807- 292 3.22 288 3.22 296 3.23 300 3.23 268 3.27
 325  0.750  0.750  0.807- 293 3.22 289 3.22 297 3.23 301 3.23 269 3.27
 

IMPORTANT INFORMATION: All symmetrisations will be switched off!
NOSYMM: (Re-)initialisation of all symmetry stuff for point group C_1.


----------------------------------------------------------------------------------------

                                     Primitive cell                                     

  volume of cell :   20385.2105

  direct lattice vectors                    reciprocal lattice vectors
    18.060800552  0.000000000  0.000000000     0.055368531  0.000015077 -0.000000000
    -0.004918649 18.062799454  0.000000000     0.000000000  0.055362404  0.000000000
     0.000000000  0.000000000 62.487499237     0.000000000 -0.000000000  0.016003201

  length of vectors
    18.060800552 18.062800123 62.487499237     0.055368533  0.055362404  0.016003201

  position of ions in fractional coordinates (direct lattice)
     0.474189493  0.334745487  0.569366627
     0.448718799  0.834958235  0.573653556
     0.923244961  0.248122144  0.580381525
     0.941313451  0.817238323  0.574983595
     0.318284747  0.075011280  0.569688896
     0.343742106  0.561202305  0.566197353
     0.798368140  0.091367811  0.571531855
     0.104891744  0.246364641  0.557204709
     0.082057521  0.674218903  0.574368909
     0.547179811  0.150268545  0.560216909
     0.498007636  0.644947276  0.560983419
     0.368470874  0.010444865  0.555327564
     0.288437444  0.632566056  0.555952323
     0.870933526  0.035167177  0.562183916
     0.057905963  0.249767637  0.581284050
     0.998314987  0.695484392  0.586686070
     0.574272420  0.238318667  0.569782848
     0.451999412  0.698199355  0.579732531
     0.280093027  0.440693212  0.573244966
     0.182279075  0.059495435  0.571689174
     0.673951958  0.029936367  0.573151380
     0.388018429  0.305928923  0.559238014
     0.503355566  0.869811055  0.553193226
     0.878001068  0.238163811  0.555872473
     0.988206616  0.866579572  0.555680906
     0.189505434  0.434317335  0.564576423
     0.143283247  0.987856243  0.557539188
     0.670857468  0.938647406  0.563774871
     0.428511537  0.188416100  0.551531334
     0.542549120  0.751015273  0.542499864
     0.993428788  0.237629947  0.537244357
     0.082848858  0.777066082  0.552890126
     0.184458658  0.555069693  0.552973639
     0.260129157  0.942454160  0.546439739
     0.793380531  0.934716393  0.555867650
     0.460242892  0.307710107  0.673588644
     0.441003531  0.807681253  0.672329481
     0.945517636  0.276867589  0.675344733
     0.922949557  0.734294399  0.672479902
     0.308433205  0.048696569  0.671922540
     0.295364365  0.552656891  0.675666819
     0.796786373  0.053422603  0.674549042
     0.843702100  0.472179782  0.664044133
     0.092574503  0.173744410  0.648421807
     0.110221166  0.715552429  0.651832950
     0.580543296  0.168640218  0.649065124
     0.573153997  0.669754540  0.652052232
     0.186274569  0.409497663  0.648334020
     0.167110823  0.929162616  0.647410923
     0.643784026  0.475110477  0.658880869
     0.678335705  0.915334501  0.648580163
     0.055647120  0.184958721  0.673829598
     0.050728015  0.675333885  0.670117735
     0.560724232  0.207250413  0.674009261
     0.537810669  0.701117432  0.676305435
     0.203249288  0.440433605  0.674057366
     0.198365870  0.954640599  0.672669759
     0.716120750  0.421154524  0.668630560
     0.701038575  0.946693690  0.674175188
     0.421079687  0.325051829  0.648721122
     0.422321464  0.832155469  0.646066416
     0.924295447  0.319155276  0.650851125
     0.907602121  0.810252606  0.655569721
     0.337018050  0.072699500  0.646485262
     0.323741279  0.584449609  0.650739470
     0.826664544  0.081626410  0.649476766
     0.851611828  0.554659667  0.649783590
     0.013944173  0.258257825  0.632304691
     0.026243160  0.804430234  0.640924274
     0.494184066  0.240642135  0.631023307
     0.503864669  0.747749577  0.631447647
     0.251451669  0.999685821  0.629240602
     0.259467438  0.495871800  0.631917895
     0.755257843  0.996349317  0.631315724
     0.724328349  0.564148522  0.644775386
     0.448745018  0.301283966  0.768889017
     0.448745007  0.801283913  0.768889017
     0.948744965  0.301283966  0.768889017
     0.948745007  0.801283913  0.768889017
     0.301275995  0.051294496  0.768872961
     0.301276011  0.551294499  0.768872961
     0.801275943  0.051294496  0.768872961
     0.801275984  0.551294499  0.768872961
     0.078771004  0.171180501  0.743441971
     0.078771006  0.671180448  0.743441971
     0.578771004  0.171180501  0.743441971
     0.578770992  0.671180448  0.743441971
     0.171199499  0.421174482  0.743421032
     0.171199501  0.921174508  0.743421032
     0.671199512  0.421174482  0.743421032
     0.671199501  0.921174508  0.743421032
     0.051256000  0.198714991  0.768889017
     0.051256002  0.698714925  0.768889017
     0.551256027  0.198714991  0.768889017
     0.551256016  0.698714925  0.768889017
     0.198723491  0.448703970  0.768872046
     0.198723493  0.948703970  0.768872046
     0.698723518  0.448703970  0.768872046
     0.698723507  0.948703970  0.768872046
     0.421231519  0.328817467  0.743441971
     0.421231508  0.828817440  0.743441971
     0.921231466  0.328817467  0.743441971
     0.921231508  0.828817440  0.743441971
     0.328800503  0.078824997  0.743421032
     0.328800492  0.578824964  0.743421032
     0.828800477  0.078824997  0.743421032
     0.828800519  0.578824964  0.743421032
     0.000003500  0.250001478  0.725821992
     0.000003500  0.750001452  0.725821992
     0.500003506  0.250001478  0.725821992
     0.500003495  0.750001452  0.725821992
     0.250000502  0.000000000  0.725803983
     0.250000517  0.500000000  0.725803983
     0.750000502  0.000000000  0.725803983
     0.750000490  0.500000000  0.725803983
     0.719730159  0.441983799  0.541308219
     0.737317200  0.492494807  0.518071699
     0.660141187  0.552648496  0.558561915
     0.706649466  0.638243868  0.556035652
     0.849934652  0.507435553  0.568851692
     0.789300416  0.576933064  0.578649245
     0.870597086  0.562440358  0.530224948
     0.797418245  0.624326499  0.523312982
     0.870208867  0.462947153  0.518697801
     0.862942426  0.423637917  0.544218408
     0.871784813  0.326150496  0.518763000
     0.782954095  0.322276491  0.529871301
     0.634910676  0.550615521  0.519288495
     0.687631533  0.633993864  0.515821676
     0.605858223  0.633427134  0.531076131
     0.754621919  0.468238222  0.596916082
     0.754996979  0.410251693  0.573929979
     0.683829088  0.477103959  0.577698432
     0.816749663  0.691556507  0.558699393
     0.900154088  0.686742993  0.543788757
     0.887015211  0.625928276  0.565620455
     0.820295806  0.380421809  0.485289721
     0.784374192  0.292607693  0.491628941
     0.662891586  0.307455648  0.519849093
     0.730996173  0.460236044  0.470659934
     0.536525396  0.360517999  0.519020681
     0.603668847  0.512115330  0.469509588
     0.505993237  0.463326927  0.494109875
     0.991661773  0.242293621  0.554519175
     0.035360918  0.768459001  0.563445338
     0.468092934  0.227642654  0.558360031
     0.504434186  0.757168793  0.555967524
     0.236885662  0.533596551  0.559144917
     0.256246339  0.993880091  0.555563512
     0.771037449  0.986286256  0.562208396
     0.008259308  0.246905210  0.649347834
     0.009874004  0.764682487  0.653115189
     0.501231004  0.246995837  0.648246906
     0.497694476  0.750487455  0.648597318
     0.255792395  0.496277815  0.649201015
     0.252116004  0.000899422  0.646632325
     0.746713892  0.517643408  0.653378364
     0.752771468  0.998235922  0.648648475
     0.499988984  0.249994984  0.743277021
     0.499989025  0.749994958  0.743277021
     0.999988984  0.249994984  0.743277021
     0.999989025  0.749994958  0.743277021
     0.250000502  0.000001000  0.743255960
     0.250000517  0.500001003  0.743255960
     0.750000502  0.000001000  0.743255960
     0.750000491  0.500001003  0.743255960
     0.706178720  0.380751056  0.495278810
     0.650029885  0.352153734  0.508682065
     0.688008842  0.437878725  0.481116523
     0.578917246  0.381657170  0.508165726
     0.615903203  0.466884911  0.480518168
     0.561914151  0.440081128  0.494135729
     0.761794250  0.475504664  0.533191484
     0.694975005  0.585629004  0.547993822
     0.791731984  0.525229699  0.569435000
     0.826748926  0.597571844  0.536689009
     0.832632311  0.431654509  0.529130308
     0.818287893  0.355196572  0.519149307
     0.655066448  0.600730572  0.527110922
     0.743144684  0.466630690  0.579697673
     0.858781671  0.653419248  0.552352298
     0.784336407  0.351242182  0.496600486
     0.055032124  0.244120553  0.564960961
     0.037670885  0.708824418  0.575377290
     0.536170185  0.205595403  0.562114871
     0.484698674  0.697154753  0.566306750
     0.443165911  0.295503568  0.561711104
     0.482010690  0.823886610  0.560643996
     0.926823188  0.245969951  0.564003677
     0.980725561  0.816726450  0.563235029
     0.236285841  0.463800047  0.565302215
     0.190243594  0.016167224  0.561338837
     0.699323160  0.986296486  0.565731561
     0.318072163  0.029553402  0.559851845
     0.294231334  0.577769960  0.559889939
     0.816237204  0.041250357  0.565921419
     0.053924925  0.199026484  0.657944219
     0.058815989  0.714895520  0.658634543
     0.550741310  0.205740861  0.657861561
     0.537950028  0.704449759  0.659786873
     0.213832312  0.445345560  0.657986464
     0.202539815  0.959375890  0.656379087
     0.700040522  0.467624237  0.660459187
     0.708411133  0.950261812  0.657897212
     0.458806139  0.296385923  0.657561269
     0.451153990  0.799270684  0.656384825
     0.955852520  0.283491668  0.659432187
     0.943312782  0.771179244  0.661264524
     0.301854430  0.042661530  0.655792177
     0.293510280  0.546474755  0.659400931
     0.794060360  0.047302736  0.658364652
     0.818629412  0.514713083  0.656068905
     0.045862501  0.204119496  0.752725994
     0.045862500  0.704119456  0.752725994
     0.545862507  0.204119496  0.752725994
     0.545862496  0.704119456  0.752725994
     0.204119002  0.454101003  0.752704994
     0.204118991  0.954100951  0.752704994
     0.704118976  0.454101003  0.752704994
     0.704118964  0.954100951  0.752704994
     0.454140018  0.295888490  0.752726971
     0.454140007  0.795888516  0.752726971
     0.954140018  0.295888490  0.752726971
     0.954140060  0.795888516  0.752726971
     0.295882492  0.045900498  0.752704994
     0.295882481  0.545900528  0.752704994
     0.795882439  0.045900498  0.752704994
     0.795882481  0.545900528  0.752704994
     0.769596702  0.545068383  0.546592724
     0.509361983  0.014225242  0.550877760
     0.483555564  0.504939014  0.554504035
     0.000929318  0.008983258  0.551957933
     0.030349587  0.504874442  0.555112311
     0.249916187  0.248225047  0.552905998
     0.245227555  0.766223441  0.552602410
     0.732221281  0.210554282  0.555936145
     0.699966121  0.795684400  0.554635226
     0.996600048  0.987018606  0.654541927
     0.014552982  0.494809775  0.655975563
     0.500323501  0.004942899  0.654264345
     0.502925753  0.495440232  0.654926587
     0.257176140  0.243257865  0.654581058
     0.254155923  0.756144148  0.654424716
     0.746842523  0.268307049  0.655038547
     0.745821999  0.743761925  0.654262330
     0.130645676  0.120840914  0.607684166
     0.152216478  0.606337794  0.609106875
     0.640178942  0.113988432  0.610082168
     0.628709776  0.620725221  0.609710267
     0.364571019  0.387281762  0.608017424
     0.372943116  0.882437467  0.606466638
     0.887383056  0.370829787  0.609692625
     0.867629628  0.880791921  0.606548868
     0.122880394  0.365752179  0.608346469
     0.123377483  0.876636953  0.607130528
     0.594613342  0.346481809  0.602366025
     0.615314889  0.866381527  0.612582546
     0.384935868  0.132702802  0.605754947
     0.383053435  0.632310832  0.611646385
     0.882454797  0.136226046  0.612684068
     0.903972473  0.643513290  0.615225409
     0.000000000  0.000000000  0.754927972
     0.000000000  0.500000000  0.754927972
     0.500000000  0.000000000  0.754927972
     0.499999989  0.500000000  0.754927972
     0.250000496  0.250000000  0.754939022
     0.250000511  0.749999974  0.754939022
     0.750000470  0.250000000  0.754939022
     0.750000458  0.749999974  0.754939022
     0.135790500  0.114209997  0.704782994
     0.135790502  0.614209984  0.704782994
     0.635790447  0.114209997  0.704782994
     0.635790488  0.614209984  0.704782994
     0.364209516  0.385789989  0.704782994
     0.364209505  0.885789963  0.704782994
     0.864209542  0.385789989  0.704782994
     0.864209531  0.885789963  0.704782994
     0.114217990  0.364218986  0.704780979
     0.114217992  0.864218986  0.704780979
     0.614218004  0.364218986  0.704780979
     0.614217992  0.864218986  0.704780979
     0.385782012  0.135781489  0.704782017
     0.385782001  0.635781489  0.704782017
     0.885781985  0.135781489  0.704782017
     0.885782027  0.635781489  0.704782017
     0.134667000  0.115332001  0.801256025
     0.134666989  0.615331988  0.801256025
     0.634666987  0.115332001  0.801256025
     0.634666976  0.615331988  0.801256025
     0.365333002  0.384667985  0.801256025
     0.365332990  0.884667959  0.801256025
     0.865332949  0.384667985  0.801256025
     0.865332938  0.884667959  0.801256025
     0.115328503  0.365337004  0.801264999
     0.115328505  0.865336978  0.801264999
     0.615328503  0.365337004  0.801264999
     0.615328492  0.865336978  0.801264999
     0.384671513  0.134662996  0.801264999
     0.384671501  0.634662970  0.801264999
     0.884671486  0.134662996  0.801264999
     0.884671528  0.634662970  0.801264999
     0.996626416  0.003575792  0.604909747
     0.005974383  0.504824232  0.604955654
     0.502508777  0.003591479  0.604252816
     0.502961921  0.500471008  0.604323081
     0.252560727  0.251934059  0.604265209
     0.247586946  0.752250001  0.603737149
     0.746550946  0.255526837  0.605158820
     0.741923065  0.757238380  0.603379045
     0.000000500  0.000000500  0.704828963
     0.000000500  0.500000475  0.704828963
     0.500000475  0.000000500  0.704828963
     0.500000464  0.500000475  0.704828963
     0.249999994  0.249999472  0.704824995
     0.250000010  0.749999498  0.704824995
     0.749999994  0.249999472  0.704824995
     0.749999983  0.749999498  0.704824995
     0.000000000  0.000000000  0.807317968
     0.000000000  0.500000000  0.807317968
     0.500000000  0.000000000  0.807317968
     0.499999989  0.500000000  0.807317968
     0.249999994  0.250000000  0.807317968
     0.250000010  0.749999974  0.807317968
     0.749999994  0.250000000  0.807317968
     0.749999983  0.749999974  0.807317968

  ion indices of the primitive-cell ions
   primitive index   ion index
                 1           1
                 2           2
                 3           3
                 4           4
                 5           5
                 6           6
                 7           7
                 8           8
                 9           9
                10          10
                11          11
                12          12
                13          13
                14          14
                15          15
                16          16
                17          17
                18          18
                19          19
                20          20
                21          21
                22          22
                23          23
                24          24
                25          25
                26          26
                27          27
                28          28
                29          29
                30          30
                31          31
                32          32
                33          33
                34          34
                35          35
                36          36
                37          37
                38          38
                39          39
                40          40
                41          41
                42          42
                43          43
                44          44
                45          45
                46          46
                47          47
                48          48
                49          49
                50          50
                51          51
                52          52
                53          53
                54          54
                55          55
                56          56
                57          57
                58          58
                59          59
                60          60
                61          61
                62          62
                63          63
                64          64
                65          65
                66          66
                67          67
                68          68
                69          69
                70          70
                71          71
                72          72
                73          73
                74          74
                75          75
                76          76
                77          77
                78          78
                79          79
                80          80
                81          81
                82          82
                83          83
                84          84
                85          85
                86          86
                87          87
                88          88
                89          89
                90          90
                91          91
                92          92
                93          93
                94          94
                95          95
                96          96
                97          97
                98          98
                99          99
               100         100
               101         101
               102         102
               103         103
               104         104
               105         105
               106         106
               107         107
               108         108
               109         109
               110         110
               111         111
               112         112
               113         113
               114         114
               115         115
               116         116
               117         117
               118         118
               119         119
               120         120
               121         121
               122         122
               123         123
               124         124
               125         125
               126         126
               127         127
               128         128
               129         129
               130         130
               131         131
               132         132
               133         133
               134         134
               135         135
               136         136
               137         137
               138         138
               139         139
               140         140
               141         141
               142         142
               143         143
               144         144
               145         145
               146         146
               147         147
               148         148
               149         149
               150         150
               151         151
               152         152
               153         153
               154         154
               155         155
               156         156
               157         157
               158         158
               159         159
               160         160
               161         161
               162         162
               163         163
               164         164
               165         165
               166         166
               167         167
               168         168
               169         169
               170         170
               171         171
               172         172
               173         173
               174         174
               175         175
               176         176
               177         177
               178         178
               179         179
               180         180
               181         181
               182         182
               183         183
               184         184
               185         185
               186         186
               187         187
               188         188
               189         189
               190         190
               191         191
               192         192
               193         193
               194         194
               195         195
               196         196
               197         197
               198         198
               199         199
               200         200
               201         201
               202         202
               203         203
               204         204
               205         205
               206         206
               207         207
               208         208
               209         209
               210         210
               211         211
               212         212
               213         213
               214         214
               215         215
               216         216
               217         217
               218         218
               219         219
               220         220
               221         221
               222         222
               223         223
               224         224
               225         225
               226         226
               227         227
               228         228
               229         229
               230         230
               231         231
               232         232
               233         233
               234         234
               235         235
               236         236
               237         237
               238         238
               239         239
               240         240
               241         241
               242         242
               243         243
               244         244
               245         245
               246         246
               247         247
               248         248
               249         249
               250         250
               251         251
               252         252
               253         253
               254         254
               255         255
               256         256
               257         257
               258         258
               259         259
               260         260
               261         261
               262         262
               263         263
               264         264
               265         265
               266         266
               267         267
               268         268
               269         269
               270         270
               271         271
               272         272
               273         273
               274         274
               275         275
               276         276
               277         277
               278         278
               279         279
               280         280
               281         281
               282         282
               283         283
               284         284
               285         285
               286         286
               287         287
               288         288
               289         289
               290         290
               291         291
               292         292
               293         293
               294         294
               295         295
               296         296
               297         297
               298         298
               299         299
               300         300
               301         301
               302         302
               303         303
               304         304
               305         305
               306         306
               307         307
               308         308
               309         309
               310         310
               311         311
               312         312
               313         313
               314         314
               315         315
               316         316
               317         317
               318         318
               319         319
               320         320
               321         321
               322         322
               323         323
               324         324
               325         325

----------------------------------------------------------------------------------------

 
 
 KPOINTS: Automatic Mesh                          

Automatic generation of k-mesh.
 Grid dimensions read from file:
 generate k-points for:    3    3    1

 Generating k-lattice:

  Cartesian coordinates                     Fractional coordinates (reciprocal lattice)
     0.018456177  0.000005026 -0.000000000     0.333333333  0.000000000  0.000000000
     0.000000000  0.018454135  0.000000000     0.000000000  0.333333333  0.000000000
     0.000000000 -0.000000000  0.016003201     0.000000000  0.000000000  1.000000000

  Length of vectors
     0.018456178  0.018454135  0.016003201

  Shift w.r.t. Gamma in fractional coordinates (k-lattice)
     0.000000000  0.000000000  0.000000000

 
 Subroutine IBZKPT returns following result:
 ===========================================
 
 Found      5 irreducible k-points:
 
 Following reciprocal coordinates:
            Coordinates               Weight
  0.000000  0.000000  0.000000      1.000000
  0.333333  0.000000  0.000000      2.000000
  0.000000  0.333333  0.000000      2.000000
  0.333333  0.333333  0.000000      2.000000
 -0.333333  0.333333  0.000000      2.000000
 
 Following cartesian coordinates:
            Coordinates               Weight
  0.000000  0.000000  0.000000      1.000000
  0.018456  0.000005  0.000000      2.000000
  0.000000  0.018454  0.000000      2.000000
  0.018456  0.018459  0.000000      2.000000
 -0.018456  0.018449  0.000000      2.000000
 


--------------------------------------------------------------------------------------------------------




 Dimension of arrays:
   k-points           NKPTS =      5   k-points in BZ     NKDIM =      5   number of bands    NBANDS=    732
   number of dos      NEDOS =    301   number of ions     NIONS =    325
   non local maximal  LDIM  =      5   non local SUM 2l+1 LMDIM =     13
   total plane-waves  NPLWV = ******
   max r-space proj   IRMAX =   3336   max aug-charges    IRDMAX=  19845
   dimension x,y,z NGX =   100 NGY =  100 NGZ =  350
   dimension x,y,z NGXF=   200 NGYF=  200 NGZF=  700
   support grid    NGXF=   200 NGYF=  200 NGZF=  700
   ions per type =             143  39  47  72  24
   NGX,Y,Z   is equivalent  to a cutoff of   9.20,  9.20,  9.31 a.u.
   NGXF,Y,Z  is equivalent  to a cutoff of  18.41, 18.41, 18.62 a.u.

 SYSTEM =  PSC                                     
 POSCAR =   H  C  N  I Pb                          

 Startparameter for this run:
   NWRITE =      2    write-flag & timer
   PREC   = normal    normal or accurate (medium, high low for compatibility)
   ISTART =      0    job   : 0-new  1-cont  2-samecut
   ICHARG =      1    charge: 1-file 2-atom 10-const
   ISPIN  =      1    spin polarized calculation?
   LNONCOLLINEAR =      F non collinear calculations
   LSORBIT =      F    spin-orbit coupling
   INIWAV =      1    electr: 0-lowe 1-rand  2-diag
   LASPH  =      F    aspherical Exc in radial PAW
 Electronic Relaxation 1
   ENCUT  =  500.0 eV  36.75 Ry    6.06 a.u.  32.93 32.93113.93*2*pi/ulx,y,z
   ENINI  =  500.0     initial cutoff
   ENAUG  =  644.9 eV  augmentation charge cutoff
   NELM   =    600;   NELMIN=  2; NELMDL=  0     # of ELM steps 
   EDIFF  = 0.1E-03   stopping-criterion for ELM
   LREAL  =      T    real-space projection
   NLSPLINE    = F    spline interpolate recip. space projectors
   LCOMPAT=      F    compatible to vasp.4.4
   GGA_COMPAT  = F    GGA compatible to vasp.4.4-vasp.4.6
   LMAXPAW     = -100 max onsite density
   LMAXMIX     =    2 max onsite mixed and CHGCAR
   VOSKOWN=      0    Vosko Wilk Nusair interpolation
   ROPT   =   -0.00050  -0.00050  -0.00050  -0.00050
   ROPT   =   -0.00050
 Ionic relaxation
   EDIFFG = 0.1E-02   stopping-criterion for IOM
   NSW    =      0    number of steps for IOM
   NBLOCK =      1;   KBLOCK =      1    inner block; outer block 
   IBRION =     -1    ionic relax: 0-MD 1-quasi-New 2-CG
   NFREE  =      0    steps in history (QN), initial steepest desc. (CG)
   ISIF   =      2    stress and relaxation
   IWAVPR =     10    prediction:  0-non 1-charg 2-wave 3-comb
   ISYM   =      0    0-nonsym 1-usesym 2-fastsym
   LCORR  =      T    Harris-Foulkes like correction to forces

   POTIM  = 0.5000    time-step for ionic-motion
   TEIN   =    0.0    initial temperature
   TEBEG  =    0.0;   TEEND  =   0.0 temperature during run
   SMASS  =  -3.00    Nose mass-parameter (am)
   estimated Nose-frequenzy (Omega)   =  0.10E-29 period in steps = 0.13E+47 mass=  -0.745E-26a.u.
   SCALEE = 1.0000    scale energy and forces
   NPACO  =    256;   APACO  = 16.0  distance and # of slots for P.C.
   PSTRESS=    0.0 pullay stress

  Mass of Ions in am
   POMASS =   1.00 12.01 14.00126.90207.20
  Ionic Valenz
   ZVAL   =   1.00  4.00  5.00  7.00  4.00
  Atomic Wigner-Seitz radii
   RWIGS  =  -1.00 -1.00 -1.00 -1.00 -1.00
  virtual crystal weights 
   VCA    =   1.00  1.00  1.00  1.00  1.00
   NELECT =    1134.0000    total number of electrons
   NUPDOWN=      -1.0000    fix difference up-down

 DOS related values:
   EMIN   =  10.00;   EMAX   =-10.00  energy-range for DOS
   EFERMI =   0.00
   ISMEAR =     0;   SIGMA  =   0.05  broadening in eV -4-tet -1-fermi 0-gaus

 Electronic relaxation 2 (details)
   IALGO  =     38    algorithm
   LDIAG  =      T    sub-space diagonalisation (order eigenvalues)
   LSUBROT=      F    optimize rotation matrix (better conditioning)
   TURBO    =      0    0=normal 1=particle mesh
   IRESTART =      0    0=no restart 2=restart with 2 vectors
   NREBOOT  =      0    no. of reboots
   NMIN     =      0    reboot dimension
   EREF     =   0.00    reference energy to select bands
   IMIX   =      4    mixing-type and parameters
     AMIX     =   0.40;   BMIX     =  0.01
     AMIX_MAG =   1.60;   BMIX_MAG =  0.01
     AMIN     =   0.01
     WC   =   100.;   INIMIX=   1;  MIXPRE=   1;  MAXMIX= -45

 Intra band minimization:
   WEIMIN = 0.0000     energy-eigenvalue tresh-hold
   EBREAK =  0.34E-07  absolut break condition
   DEPER  =   0.30     relativ break condition  

   TIME   =   0.40     timestep for ELM

  volume/ion in A,a.u.               =      62.72       423.28
  Fermi-wavevector in a.u.,A,eV,Ry     =   0.624944  1.180972  5.313816  0.390554
  Thomas-Fermi vector in A             =   1.685677
 
 Write flags
   LWAVE        =      F    write WAVECAR
   LDOWNSAMPLE  =      F    k-point downsampling of WAVECAR
   LCHARG       =      T    write CHGCAR
   LVTOT        =      T    write LOCPOT, total local potential
   LVHAR        =      F    write LOCPOT, Hartree potential only
   LELF         =      F    write electronic localiz. function (ELF)
   LORBIT       =      0    0 simple, 1 ext, 2 COOP (PROOUT), +10 PAW based schemes


 Dipole corrections
   LMONO  =      F    monopole corrections only (constant potential shift)
   LDIPOL =      T    correct potential (dipole corrections)
   IDIPOL =      3    1-x, 2-y, 3-z, 4-all directions 
   EPSILON=  1.0000000 bulk dielectric constant

 Exchange correlation treatment:
   GGA     =    --    GGA type
   LEXCH   =     8    internal setting for exchange type
   VOSKOWN=      0    Vosko Wilk Nusair interpolation
   LHFCALC =     F    Hartree Fock is set to
   LHFONE  =     F    Hartree Fock one center treatment
   AEXX    =    0.0000 exact exchange contribution

 Linear response parameters
   LEPSILON=     F    determine dielectric tensor
   LRPA    =     F    only Hartree local field effects (RPA)
   LNABLA  =     F    use nabla operator in PAW spheres
   LVEL    =     F    velocity operator in full k-point grid
   LINTERFAST=   F  fast interpolation
   KINTER  =     0    interpolate to denser k-point grid
   CSHIFT  =0.1000    complex shift for real part using Kramers Kronig
   OMEGAMAX=  -1.0    maximum frequency
   DEG_THRESHOLD= 0.2000000E-02 threshold for treating states as degnerate
   RTIME   =   -0.100 relaxation time in fs
  (WPLASMAI=    0.000 imaginary part of plasma frequency in eV, 0.658/RTIME)
   DFIELD  = 0.0000000 0.0000000 0.0000000 field for delta impulse in time
 
 Orbital magnetization related:
   ORBITALMAG=     F  switch on orbital magnetization
   LCHIMAG   =     F  perturbation theory with respect to B field
   DQ        =  0.001000  dq finite difference perturbation B field
   LLRAUG    =     F  two centre corrections for induced B field



--------------------------------------------------------------------------------------------------------


 Static calculation
 charge density and potential will be updated during run
 non-spin polarized calculation
 Variant of blocked Davidson
 Davidson routine will perform the subspace rotation
 perform sub-space diagonalisation
    after iterative eigenvector-optimisation
 modified Broyden-mixing scheme, WC =      100.0
 initial mixing is a Kerker type mixing with AMIX =  0.4000 and BMIX =      0.0100
 Hartree-type preconditioning will be used
 using additional bands           165
 real space projection scheme for non local part
[...]
     13.54561      0.00000     45.35368         0.003706     -0.011183      0.011309
     13.54315      9.03140     45.35368        -0.006246      0.004012     -0.008460
     12.99673      7.98346     33.82500         0.021274     -0.071469     -0.001504
     13.31412      8.89583     32.37300        -0.053521      0.150358     -0.192065
     11.91996      9.98238     34.90314        -0.144153     -0.073939      0.025671
     12.75952     11.52847     34.74528         0.079114      0.008911      0.085473
     15.34800      9.16571     35.54612        -0.039558      0.022630      0.017837
     14.25256     10.42103     36.15834        -0.034625     -0.092431     -0.041827
     15.72091     10.15925     33.13243         0.119021      0.027026      0.041514
     14.39894     11.27708     32.70052         0.189872     -0.017448      0.083013
     15.71439      8.36212     32.41213         0.042859      0.029745     -0.074773
     15.58335      7.65209     34.00685         0.031074     -0.067684      0.009110
     15.74353      5.89119     32.41620         0.081489     -0.026329     -0.025380
     14.13919      5.82122     33.11033         0.056722      0.070714      0.096940
     11.46429      9.94566     32.44904        -0.009003     -0.127755     -0.101804
     12.41606     11.45170     32.23241         0.016473     -0.015011     -0.020375
     10.93917     11.44147     33.18562        -0.031984      0.058806      0.053211
     13.62677      8.45769     37.29979        -0.036869     -0.097380     -0.011362
     13.63383      7.41029     35.86345         0.015974      0.145684      0.044294
     12.34815      8.61783     36.09893        -0.002510     -0.009332      0.051649
     14.74775     12.49145     34.91173         0.049571     -0.017691     -0.081872
     16.25413     12.40450     33.98000        -0.058845      0.002522     -0.028667
     16.01713     11.30602     35.34421         0.140117      0.037528      0.003669
     14.81333      6.87148     30.32454         0.035538      0.151001     -0.202780
     14.16499      5.28531     30.72066         0.021879      0.025606      0.042929
     11.97084      5.55351     32.48407         0.004919     -0.026237     -0.007330
     13.20011      8.31315     29.41036        -0.031181      0.025355     -0.040481
      9.68830      6.51196     32.43230         0.008940      0.004476     -0.037076
     10.90022      9.25024     29.33848        -0.053764      0.006814     -0.030417
      9.13636      8.36898     30.87569         0.113349     -0.012505     -0.021576
     17.90901      4.37650     34.65052         0.275267      0.073114      0.659652
      0.63487     13.88052     35.20829        -0.034630     -0.159245      0.082931
      8.45301      4.11186     34.89052        -0.105663      0.582358      0.131520
      9.10676     13.67659     34.74102         0.149721     -0.313462     -0.247000
      4.27572      9.63825     34.93957        -0.288968     -0.229316      0.058587
      4.62313     17.95226     34.71577         0.312273     -0.014076     -0.161734
     13.92070     17.81509     35.13100        -0.195969     -0.341607      0.062076
      0.14796      4.45980     40.57612        -0.174398      0.061495      0.105677
      0.17457     13.81231     40.81153        -0.155389      0.128361      0.036391
      9.05142      4.46144     40.50733        -0.131190      0.112946     -0.035514
      8.98507     13.55590     40.52922        -0.179334      0.178404      0.326340
      4.61737      8.96417     40.56695        -0.375786     -0.462492      0.094185
      4.55341      0.01625     40.40644        -0.387367     -0.374135      0.053518
     13.48370      9.35009     40.82798         0.020222     -0.471312      0.396848
     13.59075     18.03094     40.53242        -0.221951     -0.294662      0.089118
      9.02897      4.51561     46.44552         0.002198      0.010515      0.027172
      9.02651     13.54701     46.44552         0.026497     -0.010961      0.041796
     18.05937      4.51561     46.44552         0.022062     -0.002028      0.036225
     18.05691     13.54701     46.44552         0.012144      0.007474      0.006330
      4.51521      0.00002     46.44421        -0.006632     -0.007520      0.051838
      4.51275      9.03142     46.44421        -0.009057     -0.009761      0.045539
     13.54561      0.00002     46.44421        -0.010916     -0.014593      0.032084
     13.54315      9.03142     46.44421        -0.007386     -0.000784      0.014030
     12.75228      6.87743     30.94873        -0.103606     -0.141883      0.048856
     11.73833      6.36088     31.78627         0.203011      0.113544     -0.166681
     12.42384      7.90932     30.06377        -0.152946     -0.014877      0.088855
     10.45383      6.89380     31.75401        -0.084523      0.199964     -0.057562
     11.12141      8.43325     30.02638         0.537954      0.289891     -0.332536
     10.14645      7.94910     30.87731        -0.429894     -0.386781      0.388063
     13.75628      8.58895     33.31780        -0.153942      0.054750     -0.085325
     12.54892     10.57810     34.24276         0.137721      0.001870     -0.139742
     14.29673      9.48712     35.58257        -0.042379     -0.126640     -0.029454
     14.92881     10.79382     33.53635        -0.204785     -0.025653      0.088591
     15.03588      7.79689     33.06403        -0.077895      0.013744      0.055600
     14.77719      6.41584     32.44034        -0.078005     -0.156384      0.149480
     11.82807     10.85088     32.93784         0.136676     -0.028737      0.016354
     13.41949      8.42866     36.22386         0.095154     -0.026316     -0.078282
     15.50707     11.80258     34.51511        -0.038045     -0.026261     -0.195004
     14.16402      6.34442     31.03132        -0.028097      0.054142      0.185994
      0.99272      4.40950     35.30300        -0.287427      0.102712     -0.069736
      0.67688     12.80335     35.95389        -0.076593      0.065897     -0.111177
      9.68265      3.71363     35.12515        -0.245777     -0.096283      0.043132
      8.75062     12.59257     35.38709        -0.096787     -0.112653      0.053215
      8.00248      5.33762     35.09992         0.098831     -0.276313     -0.083147
      8.70145     14.88170     35.03324        -0.113005      0.539076      0.203613
     16.73796      4.44291     35.24318         0.010834     -0.156057     -0.096788
     17.70867     14.75237     35.19515         0.176355     -0.018390     -0.072310
      4.26523      8.37753     35.32432         0.907043      0.540481      0.022139
      3.43587      0.29203     35.07666         0.082549      0.107394      0.241566
     12.62548     17.81528     35.35115         0.300211      0.736956      0.259894
      5.74449      0.53382     34.98374        -0.795570      0.186880      0.273792
      5.31121     10.43614     34.98612         0.159327     -0.135215      0.109299
     14.74169      0.74510     35.36301        -0.178194      0.065568     -0.007157
      0.97295      3.59498     41.11329         0.201506     -0.194051     -0.034701
      1.05875     12.91301     41.15643         0.150445     -0.344773      0.048951
      9.94582      3.71626     41.10812         0.057337     -0.043043      0.175702
      9.71234     12.72433     41.22843         0.129346     -0.187678      0.829201
      3.85979      8.04419     41.11593        -0.062372      0.008412      0.285729
      3.65331     17.32901     41.01549         0.462595      0.371970      0.419774
     12.64099      8.44660     41.27044        -0.147994     -0.118656      0.083021
     12.78980     17.16439     41.11035         0.231722      0.305751      0.512381
      8.28495      5.35356     41.08936        -0.030329      0.034562      0.215534
      8.14427     14.43707     41.01585        -0.061882      0.106577      0.100053
     17.26207      5.12065     41.20627         0.400381     -0.338480      0.136930
     17.03319     13.92966     41.32077        -0.282414     -0.231187      0.261600
      5.45152      0.77059     40.97881         0.214404      0.198565      0.210107
      5.29834      9.87086     41.20432         0.637409      0.873597      0.192307
     14.34113      0.85442     41.13956         0.077540      0.162856      0.183142
     14.78257      9.29716     40.99611        -0.007641     -0.233817      0.060987
      0.82731      3.68697     47.03596         0.013254     -0.020661     -0.091347
      0.82485     12.71837     47.03596         0.025323     -0.026453     -0.069223
      9.85771      3.68697     47.03596         0.026648     -0.030425     -0.080793
      9.85525     12.71837     47.03596         0.007983     -0.011666     -0.083067
      3.68432      8.20234     47.03465        -0.004281     -0.005832     -0.068759
      3.68186     17.23373     47.03465        -0.005304     -0.003542     -0.062383
     12.71472      8.20234     47.03465        -0.009378     -0.015937     -0.063081
     12.71226     17.23373     47.03465        -0.010558     -0.001496     -0.066353
      8.20068      5.34457     47.03603        -0.017196      0.013179     -0.084797
      8.19822     14.37597     47.03603        -0.028707      0.027339     -0.084935
     17.23108      5.34457     47.03603        -0.032110      0.022229     -0.103315
     17.22862     14.37597     47.03603        -0.019262      0.019535     -0.068130
      5.34365      0.82909     47.03465         0.012287      0.011608     -0.062176
      5.34119      9.86049     47.03465         0.016495      0.017175     -0.070445
     14.37405      0.82909     47.03465         0.019186      0.025120     -0.067905
     14.37159      9.86049     47.03465         0.019395      0.017479     -0.072438
     13.89685      9.84546     34.15521        -0.073760      0.206002      0.083093
      9.19942      0.25695     34.42297         0.042012     -0.024674      0.057767
      8.73092      9.12061     34.64957         0.036310     -0.053484     -0.054785
      0.01674      0.16226     34.49047         0.003689     -0.003966     -0.018225
      0.54565      9.11945     34.68758        -0.126899     -0.012505     -0.033799
      4.51247      4.48364     34.54971         0.020759     -0.025384      0.011102
      4.42524     13.84014     34.53074         0.016824      0.011779      0.021251
     13.22347      3.80320     34.73906         0.071412      0.095763     -0.011438
     12.63803     14.37229     34.65777         0.021481     -0.022533     -0.079896
     17.99454     17.82832     40.90069         0.008079     -0.005768     -0.022507
      0.26040      8.93765     40.99027         0.026818      0.003052     -0.080522
      9.03622      0.08928     40.88334        -0.007675     -0.019230     -0.008121
      9.08080      8.94904     40.92472         0.010726      0.005042      0.013748
      4.64361      4.39392     40.90313        -0.018171      0.005394      0.027181
      4.58654     13.65808     40.89336        -0.022248     -0.003382      0.014356
     13.48725      4.84638     40.93172         0.001850     -0.029632      0.037842
     13.46648     13.43442     40.88322         0.017472     -0.020837      0.013009
      2.35897      2.18273     37.97266         0.017637      0.002689     -0.016119
      2.74617     10.95216     38.06157        -0.001947     -0.013054      0.008218
     11.56158      2.05895     38.12251        -0.003982     -0.012501      0.027486
     11.35195     11.21204     38.09927         0.045448      0.025982     -0.081653
      6.58254      6.99539     37.99349        -0.047087      0.020836     -0.040882
      6.73131     15.93929     37.89658         0.000286      0.005777     -0.032134
     16.02502      6.69822     38.09817        -0.002580     -0.065813     -0.033234
     15.66575     15.90957     37.90172        -0.017749     -0.002016      0.027248
      2.21752      6.60651     38.01405         0.004714     -0.043056     -0.003108
      2.22398     15.83452     37.93807        -0.008975     -0.014042     -0.007865
     10.73749      6.25843     37.64035         0.016846      0.001560     -0.030627
     11.10882     15.64928     38.27875        -0.030449      0.016790     -0.006943
      6.95160      2.39698     37.85211         0.036450     -0.023152      0.007613
      6.91514     11.42130     38.22025         0.033395      0.039375     -0.063013
     15.93717      2.46062     38.28510         0.034428      0.063780     -0.031039
     16.32330     11.62365     38.44390        -0.156461      0.014262     -0.230754
      0.00000      0.00000     47.17356        -0.002077      0.006814      0.385552
     -0.00246      9.03140     47.17356        -0.003584     -0.003607      0.514195
      9.03040      0.00000     47.17356         0.001607      0.000398      0.368691
      9.02794      9.03140     47.17356        -0.002264     -0.001179      0.436688
      4.51398      4.51570     47.17425        -0.000097     -0.004516      0.422477
      4.51152     13.54710     47.17425         0.004912      0.000190      0.403679
     13.54438      4.51570     47.17425         0.004423      0.001161      0.394302
     13.54192     13.54710     47.17425        -0.002773     -0.003094      0.405978
      2.45192      2.06295     44.04013        -0.004009     -0.029723     -0.025414
      2.44946     11.09435     44.04013         0.040410     -0.013847     -0.018252
     11.48232      2.06295     44.04013         0.042228      0.019362     -0.052889
     11.47986     11.09435     44.04013        -0.065268      0.023441      0.010060
      6.57602      6.96845     44.04013         0.010003     -0.005188     -0.049624
      6.57356     15.99985     44.04013         0.031879      0.009519     -0.059572
     15.60642      6.96845     44.04013        -0.015172     -0.012591     -0.073647
     15.60396     15.99985     44.04013        -0.059891      0.039061     -0.009274
      2.06108      6.57881     44.04000         0.056032     -0.037158     -0.008057
      2.05862     15.61021     44.04000         0.062305      0.062768     -0.023717
     11.09148      6.57881     44.04000        -0.041202     -0.066501      0.004876
     11.08902     15.61021     44.04000        -0.013794      0.021602     -0.046605
      6.96686      2.45259     44.04007        -0.005422     -0.050629     -0.038792
      6.96440     11.48399     44.04007         0.014781      0.013039     -0.035966
     15.99726      2.45259     44.04007         0.003603      0.047592     -0.080863
     15.99481     11.48399     44.04007         0.026108      0.024021     -0.087376
      2.43163      2.08322     50.06849         0.005856     -0.013671      0.022354
      2.42917     11.11462     50.06849         0.018534     -0.003317      0.024876
     11.46203      2.08322     50.06849         0.008187     -0.012923      0.022403
     11.45957     11.11462     50.06849         0.010470     -0.009329      0.024397
      6.59631      6.94818     50.06849        -0.012067      0.007660      0.023755
      6.59385     15.97958     50.06849        -0.004237      0.016530      0.022894
     15.62671      6.94818     50.06849        -0.020641     -0.002160      0.021672
     15.62425     15.97958     50.06849        -0.008891      0.014925      0.025761
      2.08113      6.59901     50.06905        -0.003706     -0.018733      0.023572
      2.07867     15.63041     50.06905        -0.012961     -0.006032      0.024530
     11.11153      6.59901     50.06905        -0.005868     -0.016142      0.023734
     11.10907     15.63041     50.06905        -0.015961     -0.004552      0.023826
      6.94681      2.43239     50.06905         0.016571      0.003055      0.023706
      6.94435     11.46379     50.06905         0.008482      0.011791      0.024132
     15.97721      2.43239     50.06905         0.009429      0.010322      0.022545
     15.97475     11.46379     50.06905         0.001448      0.016456      0.025014
     17.99985      0.06459     37.79930         0.021857      0.005073      0.008085
      0.10542      9.11854     37.80217         0.065502     -0.033372     -0.028087
      9.07569      0.06487     37.75825         0.034992     -0.004750      0.018299
      9.08143      9.03991     37.76264        -0.071209     -0.024323      0.021149
      4.56021      4.55063     37.75902        -0.026304      0.050361     -0.006331
      4.46792     13.58774     37.72602         0.039546      0.001275     -0.057881
     13.48205      4.61553     37.81486        -0.014310     -0.022784      0.016951
     13.39600     13.67785     37.70365         0.003518     -0.020142      0.006537
      0.00001      0.00001     44.04300        -0.008147     -0.147032      0.125750
     -0.00245      9.03141     44.04300         0.059167      0.012111      0.180932
      9.03041      0.00001     44.04300        -0.015913      0.002872      0.108266
      9.02795      9.03141     44.04300         0.033826      0.016123      0.210823
      4.51397      4.51569     44.04275         0.015710      0.031710      0.083349
      4.51151     13.54709     44.04275        -0.086702      0.027723      0.124940
     13.54437      4.51569     44.04275        -0.062104     -0.002345      0.199690
     13.54191     13.54709     44.04275        -0.015903      0.015463      0.091975
      0.00000      0.00000     50.44728         0.001081     -0.005029     -0.624018
     -0.00246      9.03140     50.44728         0.002020      0.003694     -0.655611
      9.03040      0.00000     50.44728        -0.002992     -0.002015     -0.618013
      9.02794      9.03140     50.44728        -0.001771      0.002053     -0.638404
      4.51397      4.51570     50.44728        -0.004566      0.009862     -0.633582
      4.51151     13.54710     50.44728        -0.005671     -0.011759     -0.629905
     13.54437      4.51570     50.44728         0.002603      0.011137     -0.622041
     13.54191     13.54710     50.44728         0.006164     -0.010597     -0.632723
 -----------------------------------------------------------------------------------
    total drift:                                0.129032      0.101644      0.563396


--------------------------------------------------------------------------------------------------------



  FREE ENERGIE OF THE ION-ELECTRON SYSTEM (eV)
  ---------------------------------------------------
  free  energy   TOTEN  =     -1575.69156974 eV

  energy  without entropy=    -1575.69156974  energy(sigma->0) =    -1575.69156974
 


--------------------------------------------------------------------------------------------------------


    POTLOK:  cpu time    0.5016: real time    0.5015


--------------------------------------------------------------------------------------------------------


     LOOP+:  cpu time  301.9158: real time  302.1419
 vacuum level on the upper side and lower side of the slab         2.318         1.516
    4ORBIT:  cpu time    0.0000: real time    0.0000

 total amount of memory used by VASP MPI-rank0  8653583. kBytes
=======================================================================

   base      :      30000. kBytes
   nonlr-proj:      53621. kBytes
   fftplans  :     249280. kBytes
   grid      :     701440. kBytes
   one-center:       2636. kBytes
   wavefun   :    7616606. kBytes
 
  
  
 General timing and accounting informations for this job:
 ========================================================
  
                  Total CPU time used (sec):      513.570
                            User time (sec):      415.620
                          System time (sec):       97.951
                         Elapsed time (sec):      516.441
  
                   Maximum memory used (kb):    10309208.
                   Average memory used (kb):          N/A
  
                          Minor page faults:      3684960
                          Major page faults:           13
                 Voluntary context switches:        10788
