<?xml version="1.0" encoding="ISO-8859-1"?>
<modeling>
 <generator>
  <i name="program" type="string">vasp </i>
  <i name="version" type="string">6.2.1  </i>
  <i name="subversion" type="string">16May21 (build Nov 15 2021 14:57:28) complex                          parallel </i>
  <i name="platform" type="string">LinuxPGI </i>
  <i name="date" type="string">2023 07 30 </i>
  <i name="time" type="string">20:53:26 </i>
 </generator>
 <incar>
  <i type="string" name="SYSTEM">PSC</i>
  <i type="int" name="ISTART">     1</i>
  <i type="string" name="PREC">Normal</i>
  <i name="BMIX">      0.01000000</i>
  <i name="AMIN">      0.01000000</i>
  <i type="int" name="ICHARG">     1</i>
  <i type="int" name="NELM">   600</i>
  <i type="int" name="ISYM">     0</i>
  <i name="ENCUT">    500.00000000</i>
  <i type="string" name="LREAL">Auto</i>
  <i type="int" name="ISMEAR">     0</i>
  <i name="SIGMA">      0.05000000</i>
  <i type="logical" name="LWAVE"> F  </i>
  <i type="logical" name="LVTOT"> T  </i>
  <i type="logical" name="GGA_COMPAT"> F  </i>
  <i type="logical" name="LDIPOL"> T  </i>
  <i type="int" name="IDIPOL">     3</i>
  <i type="int" name="IVDW">    12</i>
 </incar>
 <primitive_cell>
  <structure name="primitive_cell" >
   <crystal>
    <varray name="basis" >
     <v>      18.06080055       0.00000000       0.00000000 </v>
     <v>      -0.00491865      18.06279945       0.00000000 </v>
     <v>       0.00000000       0.00000000      62.48749924 </v>
    </varray>
    <i name="volume">  20385.21054034 </i>
    <varray name="rec_basis" >
     <v>       0.05536853       0.00001508      -0.00000000 </v>
     <v>       0.00000000       0.05536240       0.00000000 </v>
     <v>       0.00000000      -0.00000000       0.01600320 </v>
    </varray>
   </crystal>
   <varray name="positions" >
    <v>       0.47418949       0.33474549       0.56936663 </v>
    <v>       0.44871880       0.83495824       0.57365356 </v>
    <v>       0.92324496       0.24812214       0.58038153 </v>
    <v>       0.94131345       0.81723832       0.57498360 </v>
    <v>       0.31828475       0.07501128       0.56968890 </v>
    <v>       0.34374211       0.56120231       0.56619735 </v>
    <v>       0.79836814       0.09136781       0.57153185 </v>
    <v>       0.10489174       0.24636464       0.55720471 </v>
    <v>       0.08205752       0.67421890       0.57436891 </v>
    <v>       0.54717981       0.15026854       0.56021691 </v>
    <v>       0.49800764       0.64494728       0.56098342 </v>
    <v>       0.36847087       0.01044486       0.55532756 </v>
    <v>       0.28843744       0.63256606       0.55595232 </v>
    <v>       0.87093353       0.03516718       0.56218392 </v>
    <v>       0.05790596       0.24976764       0.58128405 </v>
    <v>       0.99831499       0.69548439       0.58668607 </v>
    <v>       0.57427242       0.23831867       0.56978285 </v>
    <v>       0.45199941       0.69819936       0.57973253 </v>
    <v>       0.28009303       0.44069321       0.57324497 </v>
    <v>       0.18227907       0.05949543       0.57168917 </v>
    <v>       0.67395196       0.02993637       0.57315138 </v>
    <v>       0.38801843       0.30592892       0.55923801 </v>
    <v>       0.50335557       0.86981105       0.55319323 </v>
    <v>       0.87800107       0.23816381       0.55587247 </v>
    <v>       0.98820662       0.86657957       0.55568091 </v>
    <v>       0.18950543       0.43431733       0.56457642 </v>
    <v>       0.14328325       0.98785624       0.55753919 </v>
    <v>       0.67085747       0.93864741       0.56377487 </v>
    <v>       0.42851154       0.18841610       0.55153133 </v>
    <v>       0.54254912       0.75101527       0.54249986 </v>
    <v>       0.99342879       0.23762995       0.53724436 </v>
    <v>       0.08284886       0.77706608       0.55289013 </v>
    <v>       0.18445866       0.55506969       0.55297364 </v>
    <v>       0.26012916       0.94245416       0.54643974 </v>
    <v>       0.79338053       0.93471639       0.55586765 </v>
    <v>       0.46024289       0.30771011       0.67358864 </v>
    <v>       0.44100353       0.80768125       0.67232948 </v>
    <v>       0.94551764       0.27686759       0.67534473 </v>
    <v>       0.92294956       0.73429440       0.67247990 </v>
    <v>       0.30843320       0.04869657       0.67192254 </v>
    <v>       0.29536436       0.55265689       0.67566682 </v>
    <v>       0.79678637       0.05342260       0.67454904 </v>
    <v>       0.84370210       0.47217978       0.66404413 </v>
    <v>       0.09257450       0.17374441       0.64842181 </v>
    <v>       0.11022117       0.71555243       0.65183295 </v>
    <v>       0.58054330       0.16864022       0.64906512 </v>
    <v>       0.57315400       0.66975454       0.65205223 </v>
    <v>       0.18627457       0.40949766       0.64833402 </v>
    <v>       0.16711082       0.92916262       0.64741092 </v>
    <v>       0.64378403       0.47511048       0.65888087 </v>
    <v>       0.67833570       0.91533450       0.64858016 </v>
    <v>       0.05564712       0.18495872       0.67382960 </v>
    <v>       0.05072801       0.67533388       0.67011774 </v>
    <v>       0.56072423       0.20725041       0.67400926 </v>
    <v>       0.53781067       0.70111743       0.67630544 </v>
    <v>       0.20324929       0.44043361       0.67405737 </v>
    <v>       0.19836587       0.95464060       0.67266976 </v>
    <v>       0.71612075       0.42115452       0.66863056 </v>
    <v>       0.70103858       0.94669369       0.67417519 </v>
    <v>       0.42107969       0.32505183       0.64872112 </v>
    <v>       0.42232146       0.83215547       0.64606642 </v>
    <v>       0.92429545       0.31915528       0.65085113 </v>
    <v>       0.90760212       0.81025261       0.65556972 </v>
    <v>       0.33701805       0.07269950       0.64648526 </v>
    <v>       0.32374128       0.58444961       0.65073947 </v>
    <v>       0.82666454       0.08162641       0.64947677 </v>
    <v>       0.85161183       0.55465967       0.64978359 </v>
    <v>       0.01394417       0.25825782       0.63230469 </v>
    <v>       0.02624316       0.80443023       0.64092427 </v>
    <v>       0.49418407       0.24064214       0.63102331 </v>
    <v>       0.50386467       0.74774958       0.63144765 </v>
    <v>       0.25145167       0.99968582       0.62924060 </v>
    <v>       0.25946744       0.49587180       0.63191790 </v>
    <v>       0.75525784       0.99634932       0.63131572 </v>
    <v>       0.72432835       0.56414852       0.64477539 </v>
    <v>       0.44874502       0.30128397       0.76888902 </v>
    <v>       0.44874501       0.80128391       0.76888902 </v>
    <v>       0.94874497       0.30128397       0.76888902 </v>
    <v>       0.94874501       0.80128391       0.76888902 </v>
    <v>       0.30127600       0.05129450       0.76887296 </v>
    <v>       0.30127601       0.55129450       0.76887296 </v>
    <v>       0.80127594       0.05129450       0.76887296 </v>
    <v>       0.80127598       0.55129450       0.76887296 </v>
    <v>       0.07877100       0.17118050       0.74344197 </v>
    <v>       0.07877101       0.67118045       0.74344197 </v>
    <v>       0.57877100       0.17118050       0.74344197 </v>
    <v>       0.57877099       0.67118045       0.74344197 </v>
    <v>       0.17119950       0.42117448       0.74342103 </v>
    <v>       0.17119950       0.92117451       0.74342103 </v>
    <v>       0.67119951       0.42117448       0.74342103 </v>
    <v>       0.67119950       0.92117451       0.74342103 </v>
    <v>       0.05125600       0.19871499       0.76888902 </v>
    <v>       0.05125600       0.69871493       0.76888902 </v>
    <v>       0.55125603       0.19871499       0.76888902 </v>
    <v>       0.55125602       0.69871493       0.76888902 </v>
    <v>       0.19872349       0.44870397       0.76887205 </v>
    <v>       0.19872349       0.94870397       0.76887205 </v>
    <v>       0.69872352       0.44870397       0.76887205 </v>
    <v>       0.69872351       0.94870397       0.76887205 </v>
    <v>       0.42123152       0.32881747       0.74344197 </v>
    <v>       0.42123151       0.82881744       0.74344197 </v>
    <v>       0.92123147       0.32881747       0.74344197 </v>
    <v>       0.92123151       0.82881744       0.74344197 </v>
    <v>       0.32880050       0.07882500       0.74342103 </v>
    <v>       0.32880049       0.57882496       0.74342103 </v>
    <v>       0.82880048       0.07882500       0.74342103 </v>
    <v>       0.82880052       0.57882496       0.74342103 </v>
    <v>       0.00000350       0.25000148       0.72582199 </v>
    <v>       0.00000350       0.75000145       0.72582199 </v>
    <v>       0.50000351       0.25000148       0.72582199 </v>
    <v>       0.50000350       0.75000145       0.72582199 </v>
    <v>       0.25000050       0.00000000       0.72580398 </v>
    <v>       0.25000052       0.50000000       0.72580398 </v>
    <v>       0.75000050       0.00000000       0.72580398 </v>
    <v>       0.75000049       0.50000000       0.72580398 </v>
    <v>       0.71973016       0.44198380       0.54130822 </v>
    <v>       0.73731720       0.49249481       0.51807170 </v>
    <v>       0.66014119       0.55264850       0.55856191 </v>
    <v>       0.70664947       0.63824387       0.55603565 </v>
    <v>       0.84993465       0.50743555       0.56885169 </v>
    <v>       0.78930042       0.57693306       0.57864925 </v>
    <v>       0.87059709       0.56244036       0.53022495 </v>
    <v>       0.79741825       0.62432650       0.52331298 </v>
    <v>       0.87020887       0.46294715       0.51869780 </v>
    <v>       0.86294243       0.42363792       0.54421841 </v>
    <v>       0.87178481       0.32615050       0.51876300 </v>
    <v>       0.78295409       0.32227649       0.52987130 </v>
    <v>       0.63491068       0.55061552       0.51928850 </v>
    <v>       0.68763153       0.63399386       0.51582168 </v>
    <v>       0.60585822       0.63342713       0.53107613 </v>
    <v>       0.75462192       0.46823822       0.59691608 </v>
    <v>       0.75499698       0.41025169       0.57392998 </v>
    <v>       0.68382909       0.47710396       0.57769843 </v>
    <v>       0.81674966       0.69155651       0.55869939 </v>
    <v>       0.90015409       0.68674299       0.54378876 </v>
    <v>       0.88701521       0.62592828       0.56562046 </v>
    <v>       0.82029581       0.38042181       0.48528972 </v>
    <v>       0.78437419       0.29260769       0.49162894 </v>
    <v>       0.66289159       0.30745565       0.51984909 </v>
    <v>       0.73099617       0.46023604       0.47065993 </v>
    <v>       0.53652540       0.36051800       0.51902068 </v>
    <v>       0.60366885       0.51211533       0.46950959 </v>
    <v>       0.50599324       0.46332693       0.49410988 </v>
    <v>       0.99166177       0.24229362       0.55451917 </v>
    <v>       0.03536092       0.76845900       0.56344534 </v>
    <v>       0.46809293       0.22764265       0.55836003 </v>
    <v>       0.50443419       0.75716879       0.55596752 </v>
    <v>       0.23688566       0.53359655       0.55914492 </v>
    <v>       0.25624634       0.99388009       0.55556351 </v>
    <v>       0.77103745       0.98628626       0.56220840 </v>
    <v>       0.00825931       0.24690521       0.64934783 </v>
    <v>       0.00987400       0.76468249       0.65311519 </v>
    <v>       0.50123100       0.24699584       0.64824691 </v>
    <v>       0.49769448       0.75048745       0.64859732 </v>
    <v>       0.25579240       0.49627781       0.64920102 </v>
    <v>       0.25211600       0.00089942       0.64663233 </v>
    <v>       0.74671389       0.51764341       0.65337836 </v>
    <v>       0.75277147       0.99823592       0.64864848 </v>
    <v>       0.49998898       0.24999498       0.74327702 </v>
    <v>       0.49998903       0.74999496       0.74327702 </v>
    <v>       0.99998898       0.24999498       0.74327702 </v>
    <v>       0.99998903       0.74999496       0.74327702 </v>
    <v>       0.25000050       0.00000100       0.74325596 </v>
    <v>       0.25000052       0.50000100       0.74325596 </v>
    <v>       0.75000050       0.00000100       0.74325596 </v>
    <v>       0.75000049       0.50000100       0.74325596 </v>
    <v>       0.70617872       0.38075106       0.49527881 </v>
    <v>       0.65002988       0.35215373       0.50868206 </v>
    <v>       0.68800884       0.43787872       0.48111652 </v>
    <v>       0.57891725       0.38165717       0.50816573 </v>
    <v>       0.61590320       0.46688491       0.48051817 </v>
    <v>       0.56191415       0.44008113       0.49413573 </v>
    <v>       0.76179425       0.47550466       0.53319148 </v>
    <v>       0.69497500       0.58562900       0.54799382 </v>
    <v>       0.79173198       0.52522970       0.56943500 </v>
    <v>       0.82674893       0.59757184       0.53668901 </v>
    <v>       0.83263231       0.43165451       0.52913031 </v>
    <v>       0.81828789       0.35519657       0.51914931 </v>
    <v>       0.65506645       0.60073057       0.52711092 </v>
    <v>       0.74314468       0.46663069       0.57969767 </v>
    <v>       0.85878167       0.65341925       0.55235230 </v>
    <v>       0.78433641       0.35124218       0.49660049 </v>
    <v>       0.05503212       0.24412055       0.56496096 </v>
    <v>       0.03767089       0.70882442       0.57537729 </v>
    <v>       0.53617018       0.20559540       0.56211487 </v>
    <v>       0.48469867       0.69715475       0.56630675 </v>
    <v>       0.44316591       0.29550357       0.56171110 </v>
    <v>       0.48201069       0.82388661       0.56064400 </v>
    <v>       0.92682319       0.24596995       0.56400368 </v>
    <v>       0.98072556       0.81672645       0.56323503 </v>
    <v>       0.23628584       0.46380005       0.56530222 </v>
    <v>       0.19024359       0.01616722       0.56133884 </v>
    <v>       0.69932316       0.98629649       0.56573156 </v>
    <v>       0.31807216       0.02955340       0.55985185 </v>
    <v>       0.29423133       0.57776996       0.55988994 </v>
    <v>       0.81623720       0.04125036       0.56592142 </v>
    <v>       0.05392492       0.19902648       0.65794422 </v>
    <v>       0.05881599       0.71489552       0.65863454 </v>
    <v>       0.55074131       0.20574086       0.65786156 </v>
    <v>       0.53795003       0.70444976       0.65978687 </v>
    <v>       0.21383231       0.44534556       0.65798646 </v>
    <v>       0.20253982       0.95937589       0.65637909 </v>
    <v>       0.70004052       0.46762424       0.66045919 </v>
    <v>       0.70841113       0.95026181       0.65789721 </v>
    <v>       0.45880614       0.29638592       0.65756127 </v>
    <v>       0.45115399       0.79927068       0.65638483 </v>
    <v>       0.95585252       0.28349167       0.65943219 </v>
    <v>       0.94331278       0.77117924       0.66126452 </v>
    <v>       0.30185443       0.04266153       0.65579218 </v>
    <v>       0.29351028       0.54647476       0.65940093 </v>
    <v>       0.79406036       0.04730274       0.65836465 </v>
    <v>       0.81862941       0.51471308       0.65606890 </v>
    <v>       0.04586250       0.20411950       0.75272599 </v>
    <v>       0.04586250       0.70411946       0.75272599 </v>
    <v>       0.54586251       0.20411950       0.75272599 </v>
    <v>       0.54586250       0.70411946       0.75272599 </v>
    <v>       0.20411900       0.45410100       0.75270499 </v>
    <v>       0.20411899       0.95410095       0.75270499 </v>
    <v>       0.70411898       0.45410100       0.75270499 </v>
    <v>       0.70411896       0.95410095       0.75270499 </v>
    <v>       0.45414002       0.29588849       0.75272697 </v>
    <v>       0.45414001       0.79588852       0.75272697 </v>
    <v>       0.95414002       0.29588849       0.75272697 </v>
    <v>       0.95414006       0.79588852       0.75272697 </v>
    <v>       0.29588249       0.04590050       0.75270499 </v>
    <v>       0.29588248       0.54590053       0.75270499 </v>
    <v>       0.79588244       0.04590050       0.75270499 </v>
    <v>       0.79588248       0.54590053       0.75270499 </v>
    <v>       0.76959670       0.54506838       0.54659272 </v>
    <v>       0.50936198       0.01422524       0.55087776 </v>
    <v>       0.48355556       0.50493901       0.55450404 </v>
    <v>       0.00092932       0.00898326       0.55195793 </v>
    <v>       0.03034959       0.50487444       0.55511231 </v>
    <v>       0.24991619       0.24822505       0.55290600 </v>
    <v>       0.24522756       0.76622344       0.55260241 </v>
    <v>       0.73222128       0.21055428       0.55593615 </v>
    <v>       0.69996612       0.79568440       0.55463523 </v>
    <v>       0.99660005       0.98701861       0.65454193 </v>
    <v>       0.01455298       0.49480977       0.65597556 </v>
    <v>       0.50032350       0.00494290       0.65426434 </v>
    <v>       0.50292575       0.49544023       0.65492659 </v>
    <v>       0.25717614       0.24325787       0.65458106 </v>
    <v>       0.25415592       0.75614415       0.65442472 </v>
    <v>       0.74684252       0.26830705       0.65503855 </v>
    <v>       0.74582200       0.74376193       0.65426233 </v>
    <v>       0.13064568       0.12084091       0.60768417 </v>
    <v>       0.15221648       0.60633779       0.60910688 </v>
    <v>       0.64017894       0.11398843       0.61008217 </v>
    <v>       0.62870978       0.62072522       0.60971027 </v>
    <v>       0.36457102       0.38728176       0.60801742 </v>
    <v>       0.37294312       0.88243747       0.60646664 </v>
    <v>       0.88738306       0.37082979       0.60969262 </v>
    <v>       0.86762963       0.88079192       0.60654887 </v>
    <v>       0.12288039       0.36575218       0.60834647 </v>
    <v>       0.12337748       0.87663695       0.60713053 </v>
    <v>       0.59461334       0.34648181       0.60236602 </v>
    <v>       0.61531489       0.86638153       0.61258255 </v>
    <v>       0.38493587       0.13270280       0.60575495 </v>
    <v>       0.38305344       0.63231083       0.61164638 </v>
    <v>       0.88245480       0.13622605       0.61268407 </v>
    <v>       0.90397247       0.64351329       0.61522541 </v>
    <v>       0.00000000       0.00000000       0.75492797 </v>
    <v>       0.00000000       0.50000000       0.75492797 </v>
    <v>       0.50000000       0.00000000       0.75492797 </v>
    <v>       0.49999999       0.50000000       0.75492797 </v>
    <v>       0.25000050       0.25000000       0.75493902 </v>
    <v>       0.25000051       0.74999997       0.75493902 </v>
    <v>       0.75000047       0.25000000       0.75493902 </v>
    <v>       0.75000046       0.74999997       0.75493902 </v>
    <v>       0.13579050       0.11421000       0.70478299 </v>
    <v>       0.13579050       0.61420998       0.70478299 </v>
    <v>       0.63579045       0.11421000       0.70478299 </v>
    <v>       0.63579049       0.61420998       0.70478299 </v>
    <v>       0.36420952       0.38578999       0.70478299 </v>
    <v>       0.36420950       0.88578996       0.70478299 </v>
    <v>       0.86420954       0.38578999       0.70478299 </v>
    <v>       0.86420953       0.88578996       0.70478299 </v>
    <v>       0.11421799       0.36421899       0.70478098 </v>
    <v>       0.11421799       0.86421899       0.70478098 </v>
    <v>       0.61421800       0.36421899       0.70478098 </v>
    <v>       0.61421799       0.86421899       0.70478098 </v>
    <v>       0.38578201       0.13578149       0.70478202 </v>
    <v>       0.38578200       0.63578149       0.70478202 </v>
    <v>       0.88578199       0.13578149       0.70478202 </v>
    <v>       0.88578203       0.63578149       0.70478202 </v>
    <v>       0.13466700       0.11533200       0.80125603 </v>
    <v>       0.13466699       0.61533199       0.80125603 </v>
    <v>       0.63466699       0.11533200       0.80125603 </v>
    <v>       0.63466698       0.61533199       0.80125603 </v>
    <v>       0.36533300       0.38466799       0.80125603 </v>
    <v>       0.36533299       0.88466796       0.80125603 </v>
    <v>       0.86533295       0.38466799       0.80125603 </v>
    <v>       0.86533294       0.88466796       0.80125603 </v>
    <v>       0.11532850       0.36533700       0.80126500 </v>
    <v>       0.11532850       0.86533698       0.80126500 </v>
    <v>       0.61532850       0.36533700       0.80126500 </v>
    <v>       0.61532849       0.86533698       0.80126500 </v>
    <v>       0.38467151       0.13466300       0.80126500 </v>
    <v>       0.38467150       0.63466297       0.80126500 </v>
    <v>       0.88467149       0.13466300       0.80126500 </v>
    <v>       0.88467153       0.63466297       0.80126500 </v>
    <v>       0.99662642       0.00357579       0.60490975 </v>
    <v>       0.00597438       0.50482423       0.60495565 </v>
    <v>       0.50250878       0.00359148       0.60425282 </v>
    <v>       0.50296192       0.50047101       0.60432308 </v>
    <v>       0.25256073       0.25193406       0.60426521 </v>
    <v>       0.24758695       0.75225000       0.60373715 </v>
    <v>       0.74655095       0.25552684       0.60515882 </v>
    <v>       0.74192306       0.75723838       0.60337904 </v>
    <v>       0.00000050       0.00000050       0.70482896 </v>
    <v>       0.00000050       0.50000048       0.70482896 </v>
    <v>       0.50000048       0.00000050       0.70482896 </v>
    <v>       0.50000046       0.50000048       0.70482896 </v>
    <v>       0.24999999       0.24999947       0.70482499 </v>
    <v>       0.25000001       0.74999950       0.70482499 </v>
    <v>       0.74999999       0.24999947       0.70482499 </v>
    <v>       0.74999998       0.74999950       0.70482499 </v>
    <v>       0.00000000       0.00000000       0.80731797 </v>
    <v>       0.00000000       0.50000000       0.80731797 </v>
    <v>       0.50000000       0.00000000       0.80731797 </v>
    <v>       0.49999999       0.50000000       0.80731797 </v>
    <v>       0.24999999       0.25000000       0.80731797 </v>
    <v>       0.25000001       0.74999997       0.80731797 </v>
    <v>       0.74999999       0.25000000       0.80731797 </v>
    <v>       0.74999998       0.74999997       0.80731797 </v>
   </varray>
  </structure>
  <varray name="primitive_index" >
   <v type="int" >        1 </v>
   <v type="int" >        2 </v>
   <v type="int" >        3 </v>
   <v type="int" >        4 </v>
   <v type="int" >        5 </v>
   <v type="int" >        6 </v>
   <v type="int" >        7 </v>
   <v type="int" >        8 </v>
   <v type="int" >        9 </v>
   <v type="int" >       10 </v>
   <v type="int" >       11 </v>
   <v type="int" >       12 </v>
   <v type="int" >       13 </v>
   <v type="int" >       14 </v>
   <v type="int" >       15 </v>
   <v type="int" >       16 </v>
   <v type="int" >       17 </v>
   <v type="int" >       18 </v>
   <v type="int" >       19 </v>
   <v type="int" >       20 </v>
   <v type="int" >       21 </v>
   <v type="int" >       22 </v>
   <v type="int" >       23 </v>
   <v type="int" >       24 </v>
   <v type="int" >       25 </v>
   <v type="int" >       26 </v>
   <v type="int" >       27 </v>
   <v type="int" >       28 </v>
   <v type="int" >       29 </v>
   <v type="int" >       30 </v>
   <v type="int" >       31 </v>
   <v type="int" >       32 </v>
   <v type="int" >       33 </v>
   <v type="int" >       34 </v>
   <v type="int" >       35 </v>
   <v type="int" >       36 </v>
   <v type="int" >       37 </v>
   <v type="int" >       38 </v>
   <v type="int" >       39 </v>
   <v type="int" >       40 </v>
   <v type="int" >       41 </v>
   <v type="int" >       42 </v>
   <v type="int" >       43 </v>
   <v type="int" >       44 </v>
   <v type="int" >       45 </v>
   <v type="int" >       46 </v>
   <v type="int" >       47 </v>
   <v type="int" >       48 </v>
   <v type="int" >       49 </v>
   <v type="int" >       50 </v>
   <v type="int" >       51 </v>
   <v type="int" >       52 </v>
   <v type="int" >       53 </v>
   <v type="int" >       54 </v>
   <v type="int" >       55 </v>
   <v type="int" >       56 </v>
   <v type="int" >       57 </v>
   <v type="int" >       58 </v>
   <v type="int" >       59 </v>
   <v type="int" >       60 </v>
   <v type="int" >       61 </v>
   <v type="int" >       62 </v>
   <v type="int" >       63 </v>
   <v type="int" >       64 </v>
   <v type="int" >       65 </v>
   <v type="int" >       66 </v>
   <v type="int" >       67 </v>
   <v type="int" >       68 </v>
   <v type="int" >       69 </v>
   <v type="int" >       70 </v>
   <v type="int" >       71 </v>
   <v type="int" >       72 </v>
   <v type="int" >       73 </v>
   <v type="int" >       74 </v>
   <v type="int" >       75 </v>
   <v type="int" >       76 </v>
   <v type="int" >       77 </v>
   <v type="int" >       78 </v>
   <v type="int" >       79 </v>
   <v type="int" >       80 </v>
   <v type="int" >       81 </v>
   <v type="int" >       82 </v>
   <v type="int" >       83 </v>
   <v type="int" >       84 </v>
   <v type="int" >       85 </v>
   <v type="int" >       86 </v>
   <v type="int" >       87 </v>
   <v type="int" >       88 </v>
   <v type="int" >       89 </v>
   <v type="int" >       90 </v>
   <v type="int" >       91 </v>
   <v type="int" >       92 </v>
   <v type="int" >       93 </v>
   <v type="int" >       94 </v>
   <v type="int" >       95 </v>
   <v type="int" >       96 </v>
   <v type="int" >       97 </v>
   <v type="int" >       98 </v>
   <v type="int" >       99 </v>
   <v type="int" >      100 </v>
   <v type="int" >      101 </v>
   <v type="int" >      102 </v>
   <v type="int" >      103 </v>
   <v type="int" >      104 </v>
   <v type="int" >      105 </v>
   <v type="int" >      106 </v>
   <v type="int" >      107 </v>
   <v type="int" >      108 </v>
   <v type="int" >      109 </v>
   <v type="int" >      110 </v>
   <v type="int" >      111 </v>
   <v type="int" >      112 </v>
   <v type="int" >      113 </v>
   <v type="int" >      114 </v>
   <v type="int" >      115 </v>
   <v type="int" >      116 </v>
   <v type="int" >      117 </v>
   <v type="int" >      118 </v>
   <v type="int" >      119 </v>
   <v type="int" >      120 </v>
   <v type="int" >      121 </v>
   <v type="int" >      122 </v>
   <v type="int" >      123 </v>
   <v type="int" >      124 </v>
   <v type="int" >      125 </v>
   <v type="int" >      126 </v>
   <v type="int" >      127 </v>
   <v type="int" >      128 </v>
   <v type="int" >      129 </v>
   <v type="int" >      130 </v>
   <v type="int" >      131 </v>
   <v type="int" >      132 </v>
   <v type="int" >      133 </v>
   <v type="int" >      134 </v>
   <v type="int" >      135 </v>
   <v type="int" >      136 </v>
   <v type="int" >      137 </v>
   <v type="int" >      138 </v>
   <v type="int" >      139 </v>
   <v type="int" >      140 </v>
   <v type="int" >      141 </v>
   <v type="int" >      142 </v>
   <v type="int" >      143 </v>
   <v type="int" >      144 </v>
   <v type="int" >      145 </v>
   <v type="int" >      146 </v>
   <v type="int" >      147 </v>
   <v type="int" >      148 </v>
   <v type="int" >      149 </v>
   <v type="int" >      150 </v>
   <v type="int" >      151 </v>
   <v type="int" >      152 </v>
   <v type="int" >      153 </v>
   <v type="int" >      154 </v>
   <v type="int" >      155 </v>
   <v type="int" >      156 </v>
   <v type="int" >      157 </v>
   <v type="int" >      158 </v>
   <v type="int" >      159 </v>
   <v type="int" >      160 </v>
   <v type="int" >      161 </v>
   <v type="int" >      162 </v>
   <v type="int" >      163 </v>
   <v type="int" >      164 </v>
   <v type="int" >      165 </v>
   <v type="int" >      166 </v>
   <v type="int" >      167 </v>
   <v type="int" >      168 </v>
   <v type="int" >      169 </v>
   <v type="int" >      170 </v>
   <v type="int" >      171 </v>
   <v type="int" >      172 </v>
   <v type="int" >      173 </v>
   <v type="int" >      174 </v>
   <v type="int" >      175 </v>
   <v type="int" >      176 </v>
   <v type="int" >      177 </v>
   <v type="int" >      178 </v>
   <v type="int" >      179 </v>
   <v type="int" >      180 </v>
   <v type="int" >      181 </v>
   <v type="int" >      182 </v>
   <v type="int" >      183 </v>
   <v type="int" >      184 </v>
   <v type="int" >      185 </v>
   <v type="int" >      186 </v>
   <v type="int" >      187 </v>
   <v type="int" >      188 </v>
   <v type="int" >      189 </v>
   <v type="int" >      190 </v>
   <v type="int" >      191 </v>
   <v type="int" >      192 </v>
   <v type="int" >      193 </v>
   <v type="int" >      194 </v>
   <v type="int" >      195 </v>
   <v type="int" >      196 </v>
   <v type="int" >      197 </v>
   <v type="int" >      198 </v>
   <v type="int" >      199 </v>
   <v type="int" >      200 </v>
   <v type="int" >      201 </v>
   <v type="int" >      202 </v>
   <v type="int" >      203 </v>
   <v type="int" >      204 </v>
   <v type="int" >      205 </v>
   <v type="int" >      206 </v>
   <v type="int" >      207 </v>
   <v type="int" >      208 </v>
   <v type="int" >      209 </v>
   <v type="int" >      210 </v>
   <v type="int" >      211 </v>
   <v type="int" >      212 </v>
   <v type="int" >      213 </v>
   <v type="int" >      214 </v>
   <v type="int" >      215 </v>
   <v type="int" >      216 </v>
   <v type="int" >      217 </v>
   <v type="int" >      218 </v>
   <v type="int" >      219 </v>
   <v type="int" >      220 </v>
   <v type="int" >      221 </v>
   <v type="int" >      222 </v>
   <v type="int" >      223 </v>
   <v type="int" >      224 </v>
   <v type="int" >      225 </v>
   <v type="int" >      226 </v>
   <v type="int" >      227 </v>
   <v type="int" >      228 </v>
   <v type="int" >      229 </v>
   <v type="int" >      230 </v>
   <v type="int" >      231 </v>
   <v type="int" >      232 </v>
   <v type="int" >      233 </v>
   <v type="int" >      234 </v>
   <v type="int" >      235 </v>
   <v type="int" >      236 </v>
   <v type="int" >      237 </v>
   <v type="int" >      238 </v>
   <v type="int" >      239 </v>
   <v type="int" >      240 </v>
   <v type="int" >      241 </v>
   <v type="int" >      242 </v>
   <v type="int" >      243 </v>
   <v type="int" >      244 </v>
   <v type="int" >      245 </v>
   <v type="int" >      246 </v>
   <v type="int" >      247 </v>
   <v type="int" >      248 </v>
   <v type="int" >      249 </v>
   <v type="int" >      250 </v>
   <v type="int" >      251 </v>
   <v type="int" >      252 </v>
   <v type="int" >      253 </v>
   <v type="int" >      254 </v>
   <v type="int" >      255 </v>
   <v type="int" >      256 </v>
   <v type="int" >      257 </v>
   <v type="int" >      258 </v>
   <v type="int" >      259 </v>
   <v type="int" >      260 </v>
   <v type="int" >      261 </v>
   <v type="int" >      262 </v>
   <v type="int" >      263 </v>
   <v type="int" >      264 </v>
   <v type="int" >      265 </v>
   <v type="int" >      266 </v>
   <v type="int" >      267 </v>
   <v type="int" >      268 </v>
   <v type="int" >      269 </v>
   <v type="int" >      270 </v>
   <v type="int" >      271 </v>
   <v type="int" >      272 </v>
   <v type="int" >      273 </v>
   <v type="int" >      274 </v>
   <v type="int" >      275 </v>
   <v type="int" >      276 </v>
   <v type="int" >      277 </v>
   <v type="int" >      278 </v>
   <v type="int" >      279 </v>
   <v type="int" >      280 </v>
   <v type="int" >      281 </v>
   <v type="int" >      282 </v>
   <v type="int" >      283 </v>
   <v type="int" >      284 </v>
   <v type="int" >      285 </v>
   <v type="int" >      286 </v>
   <v type="int" >      287 </v>
   <v type="int" >      288 </v>
   <v type="int" >      289 </v>
   <v type="int" >      290 </v>
   <v type="int" >      291 </v>
   <v type="int" >      292 </v>
   <v type="int" >      293 </v>
   <v type="int" >      294 </v>
   <v type="int" >      295 </v>
   <v type="int" >      296 </v>
   <v type="int" >      297 </v>
   <v type="int" >      298 </v>
   <v type="int" >      299 </v>
   <v type="int" >      300 </v>
   <v type="int" >      301 </v>
   <v type="int" >      302 </v>
   <v type="int" >      303 </v>
   <v type="int" >      304 </v>
   <v type="int" >      305 </v>
   <v type="int" >      306 </v>
   <v type="int" >      307 </v>
   <v type="int" >      308 </v>
   <v type="int" >      309 </v>
   <v type="int" >      310 </v>
   <v type="int" >      311 </v>
   <v type="int" >      312 </v>
   <v type="int" >      313 </v>
   <v type="int" >      314 </v>
   <v type="int" >      315 </v>
   <v type="int" >      316 </v>
   <v type="int" >      317 </v>
   <v type="int" >      318 </v>
   <v type="int" >      319 </v>
   <v type="int" >      320 </v>
   <v type="int" >      321 </v>
   <v type="int" >      322 </v>
   <v type="int" >      323 </v>
   <v type="int" >      324 </v>
   <v type="int" >      325 </v>
  </varray>
 </primitive_cell>
 <kpoints>
  <generation param="Gamma">
   <v type="int" name="divisions">       3        3        1 </v>
   <v name="usershift">      0.00000000       0.00000000       0.00000000 </v>
   <v name="genvec1">      0.33333333       0.00000000       0.00000000 </v>
   <v name="genvec2">      0.00000000       0.33333333       0.00000000 </v>
   <v name="genvec3">      0.00000000       0.00000000       1.00000000 </v>
   <v name="shift">      0.00000000       0.00000000       0.00000000 </v>
  </generation>
  <varray name="kpointlist" >
   <v>       0.00000000       0.00000000       0.00000000 </v>
   <v>       0.33333333       0.00000000       0.00000000 </v>
   <v>       0.00000000       0.33333333       0.00000000 </v>
   <v>       0.33333333       0.33333333       0.00000000 </v>
   <v>      -0.33333333       0.33333333       0.00000000 </v>
  </varray>
  <varray name="weights" >
   <v>       0.11111111 </v>
   <v>       0.22222222 </v>
   <v>       0.22222222 </v>
   <v>       0.22222222 </v>
   <v>       0.22222222 </v>
  </varray>
 </kpoints>
 <parameters>
  <separator name="general" >
   <i type="string" name="SYSTEM">PSC</i>
   <i type="logical" name="LCOMPAT"> F  </i>
  </separator>
  <separator name="electronic" >
   <i type="string" name="PREC">normal</i>
   <i name="ENMAX">    500.00000000</i>
   <i name="ENAUG">    644.87300000</i>
   <i name="EDIFF">      0.00010000</i>
   <i type="int" name="IALGO">    38</i>
   <i type="int" name="IWAVPR">    10</i>
   <i type="int" name="NBANDS">   732</i>
   <i type="int" name="NBANDSLOW">    -1</i>
   <i type="int" name="NBANDSHIGH">    -1</i>
   <i name="NELECT">   1134.00000000</i>
   <i type="int" name="TURBO">     0</i>
   <i type="int" name="IRESTART">     0</i>
   <i type="int" name="NREBOOT">     0</i>
   <i type="int" name="NMIN">     0</i>
   <i name="EREF">      0.00000000</i>
   <separator name="electronic smearing" >
    <i type="int" name="ISMEAR">     0</i>
    <i name="SIGMA">      0.05000000</i>
    <i name="KSPACING">      0.50000000</i>
    <i type="logical" name="KGAMMA"> T  </i>
    <i type="logical" name="KBLOWUP"> T  </i>
   </separator>
   <separator name="electronic projectors" >
    <i type="logical" name="LREAL"> T  </i>
    <v name="ROPT">     -0.00050000     -0.00050000     -0.00050000     -0.00050000     -0.00050000</v>
    <i type="int" name="LMAXPAW">  -100</i>
    <i type="int" name="LMAXMIX">     2</i>
    <i type="logical" name="NLSPLINE"> F  </i>
   </separator>
   <separator name="electronic startup" >
    <i type="int" name="ISTART">     0</i>
    <i type="int" name="ICHARG">     1</i>
    <i type="int" name="INIWAV">     1</i>
   </separator>
   <separator name="electronic spin" >
    <i type="int" name="ISPIN">     1</i>
    <i type="logical" name="LNONCOLLINEAR"> F  </i>
    <v name="MAGMOM">      1.00000000      1.00000000      1.00000000      1.00000000      1.00000000      1.00000000      1.00000000      1.00000000      1.00000000      1.00000000      1.00000000      1.00000000      1.00000000      1.00000000      1.00000000      1.00000000      1.00000000      1.00000000      1.00000000      1.00000000
      1.00000000      1.00000000      1.00000000      1.00000000      1.00000000      1.00000000      1.00000000      1.00000000      1.00000000      1.00000000      1.00000000      1.00000000      1.00000000      1.00000000      1.00000000      1.00000000      1.00000000      1.00000000      1.00000000      1.00000000
      1.00000000      1.00000000      1.00000000      1.00000000      1.00000000      1.00000000      1.00000000      1.00000000      1.00000000      1.00000000      1.00000000      1.00000000      1.00000000      1.00000000      1.00000000      1.00000000      1.00000000      1.00000000      1.00000000      1.00000000
      1.00000000      1.00000000      1.00000000      1.00000000      1.00000000      1.00000000      1.00000000      1.00000000      1.00000000      1.00000000      1.00000000      1.00000000      1.00000000      1.00000000      1.00000000      1.00000000      1.00000000      1.00000000      1.00000000      1.00000000
      1.00000000      1.00000000      1.00000000      1.00000000      1.00000000      1.00000000      1.00000000      1.00000000      1.00000000      1.00000000      1.00000000      1.00000000      1.00000000      1.00000000      1.00000000      1.00000000      1.00000000      1.00000000      1.00000000      1.00000000
      1.00000000      1.00000000      1.00000000      1.00000000      1.00000000      1.00000000      1.00000000      1.00000000      1.00000000      1.00000000      1.00000000      1.00000000      1.00000000      1.00000000      1.00000000      1.00000000      1.00000000      1.00000000      1.00000000      1.00000000
      1.00000000      1.00000000      1.00000000      1.00000000      1.00000000      1.00000000      1.00000000      1.00000000      1.00000000      1.00000000      1.00000000      1.00000000      1.00000000      1.00000000      1.00000000      1.00000000      1.00000000      1.00000000      1.00000000      1.00000000
      1.00000000      1.00000000      1.00000000      1.00000000      1.00000000      1.00000000      1.00000000      1.00000000      1.00000000      1.00000000      1.00000000      1.00000000      1.00000000      1.00000000      1.00000000      1.00000000      1.00000000      1.00000000      1.00000000      1.00000000
      1.00000000      1.00000000      1.00000000      1.00000000      1.00000000      1.00000000      1.00000000      1.00000000      1.00000000      1.00000000      1.00000000      1.00000000      1.00000000      1.00000000      1.00000000      1.00000000      1.00000000      1.00000000      1.00000000      1.00000000
      1.00000000      1.00000000      1.00000000      1.00000000      1.00000000      1.00000000      1.00000000      1.00000000      1.00000000      1.00000000      1.00000000      1.00000000      1.00000000      1.00000000      1.00000000      1.00000000      1.00000000      1.00000000      1.00000000      1.00000000
      1.00000000      1.00000000      1.00000000      1.00000000      1.00000000      1.00000000      1.00000000      1.00000000      1.00000000      1.00000000      1.00000000      1.00000000      1.00000000      1.00000000      1.00000000      1.00000000      1.00000000      1.00000000      1.00000000      1.00000000
      1.00000000      1.00000000      1.00000000      1.00000000      1.00000000      1.00000000      1.00000000      1.00000000      1.00000000      1.00000000      1.00000000      1.00000000      1.00000000      1.00000000      1.00000000      1.00000000      1.00000000      1.00000000      1.00000000      1.00000000
      1.00000000      1.00000000      1.00000000      1.00000000      1.00000000      1.00000000      1.00000000      1.00000000      1.00000000      1.00000000      1.00000000      1.00000000      1.00000000      1.00000000      1.00000000      1.00000000      1.00000000      1.00000000      1.00000000      1.00000000
      1.00000000      1.00000000      1.00000000      1.00000000      1.00000000      1.00000000      1.00000000      1.00000000      1.00000000      1.00000000      1.00000000      1.00000000      1.00000000      1.00000000      1.00000000      1.00000000      1.00000000      1.00000000      1.00000000      1.00000000
      1.00000000      1.00000000      1.00000000      1.00000000      1.00000000      1.00000000      1.00000000      1.00000000      1.00000000      1.00000000      1.00000000      1.00000000      1.00000000      1.00000000      1.00000000      1.00000000      1.00000000      1.00000000      1.00000000      1.00000000
      1.00000000      1.00000000      1.00000000      1.00000000      1.00000000      1.00000000      1.00000000      1.00000000      1.00000000      1.00000000      1.00000000      1.00000000      1.00000000      1.00000000      1.00000000      1.00000000      1.00000000      1.00000000      1.00000000      1.00000000
      1.00000000      1.00000000      1.00000000      1.00000000      1.00000000</v>
    <i name="NUPDOWN">     -1.00000000</i>
    <i type="logical" name="LSORBIT"> F  </i>
    <v name="SAXIS">      0.00000000      0.00000000      1.00000000</v>
    <i type="logical" name="LSPIRAL"> F  </i>
    <v name="QSPIRAL">      0.00000000      0.00000000      0.00000000</v>
    <i type="logical" name="LZEROZ"> F  </i>
   </separator>
   <separator name="electronic exchange-correlation" >
    <i type="logical" name="LASPH"> F  </i>
    <i type="logical" name="LMETAGGA"> F  </i>
   </separator>
   <separator name="electronic convergence" >
    <i type="int" name="NELM">   600</i>
    <i type="int" name="NELMDL">     0</i>
    <i type="int" name="NELMIN">     2</i>
    <i name="ENINI">    500.00000000</i>
    <separator name="electronic convergence detail" >
     <i type="logical" name="LDIAG"> T  </i>
     <i type="logical" name="LSUBROT"> F  </i>
     <i name="WEIMIN">      0.00000000</i>
     <i name="EBREAK">      0.00000003</i>
     <i name="DEPER">      0.30000000</i>
     <i type="int" name="NRMM">     4</i>
     <i name="TIME">      0.40000000</i>
    </separator>
   </separator>
   <separator name="electronic mixer" >
    <i name="AMIX">      0.40000000</i>
    <i name="BMIX">      0.01000000</i>
    <i name="AMIN">      0.01000000</i>
    <i name="AMIX_MAG">      1.60000000</i>
    <i name="BMIX_MAG">      0.01000000</i>
    <separator name="electronic mixer details" >
     <i type="int" name="IMIX">     4</i>
     <i type="logical" name="MIXFIRST"> F  </i>
     <i type="int" name="MAXMIX">   -45</i>
     <i name="WC">    100.00000000</i>
     <i type="int" name="INIMIX">     1</i>
     <i type="int" name="MIXPRE">     1</i>
     <i type="int" name="MREMOVE">     5</i>
    </separator>
   </separator>
   <separator name="electronic dipolcorrection" >
    <i type="logical" name="LDIPOL"> T  </i>
    <i type="logical" name="LMONO"> F  </i>
    <i type="int" name="IDIPOL">     3</i>
    <i name="EPSILON">      1.00000000</i>
    <v name="DIPOL">   -100.00000000   -100.00000000   -100.00000000</v>
    <i name="EFIELD">      0.00000000</i>
   </separator>
  </separator>
  <separator name="grids" >
   <i type="int" name="NGX">   100</i>
   <i type="int" name="NGY">   100</i>
   <i type="int" name="NGZ">   350</i>
   <i type="int" name="NGXF">   200</i>
   <i type="int" name="NGYF">   200</i>
   <i type="int" name="NGZF">   700</i>
   <i type="logical" name="ADDGRID"> F  </i>
  </separator>
  <separator name="ionic" >
   <i type="int" name="NSW">     0</i>
   <i type="int" name="IBRION">    -1</i>
   <i type="int" name="MDALGO">     0</i>
   <i type="int" name="ISIF">     2</i>
   <i name="PSTRESS">      0.00000000</i>
   <i name="EDIFFG">      0.00100000</i>
   <i type="int" name="NFREE">     0</i>
   <i name="POTIM">      0.50000000</i>
   <i name="SMASS">     -3.00000000</i>
   <i name="SCALEE">      1.00000000</i>
  </separator>
  <separator name="ionic md" >
   <i name="TEBEG">      0.00010000</i>
   <i name="TEEND">      0.00010000</i>
   <i type="int" name="NBLOCK">     1</i>
   <i type="int" name="KBLOCK">     1</i>
   <i type="int" name="NPACO">   256</i>
   <i name="APACO">     16.00000000</i>
  </separator>
  <separator name="symmetry" >
   <i type="int" name="ISYM">     0</i>
   <i name="SYMPREC">      0.00001000</i>
  </separator>
  <separator name="dos" >
   <i type="int" name="LORBIT">     0</i>
   <v name="RWIGS">     -1.00000000     -1.00000000     -1.00000000     -1.00000000     -1.00000000</v>
   <i type="int" name="NEDOS">   301</i>
   <i name="EMIN">     10.00000000</i>
   <i name="EMAX">    -10.00000000</i>
   <i name="EFERMI">      0.00000000</i>
  </separator>
  <separator name="writing" >
   <i type="int" name="NWRITE">     2</i>
   <i type="logical" name="LWAVE"> F  </i>
   <i type="logical" name="LDOWNSAMPLE"> F  </i>
   <i type="logical" name="LCHARG"> T  </i>
   <i type="logical" name="LPARD"> F  </i>
   <i type="logical" name="LVTOT"> T  </i>
   <i type="logical" name="LVHAR"> F  </i>
   <i type="logical" name="LELF"> F  </i>
   <i type="logical" name="LOPTICS"> F  </i>
   <v name="STM">      0.00000000      0.00000000      0.00000000      0.00000000      0.00000000      0.00000000      0.00000000</v>
  </separator>
  <separator name="performance" >
   <i type="int" name="NPAR">     4</i>
   <i type="int" name="NSIM">     4</i>
   <i type="int" name="NBLK">    -1</i>
   <i type="logical" name="LPLANE"> T  </i>
   <i type="logical" name="LSCALAPACK"> T  </i>
   <i type="logical" name="LSCAAWARE"> F  </i>
   <i type="logical" name="LSCALU"> F  </i>
   <i type="logical" name="LASYNC"> F  </i>
   <i type="logical" name="LORBITALREAL"> F  </i>
  </separator>
  <separator name="miscellaneous" >
   <i type="int" name="IDIOT">     3</i>
   <i type="int" name="PHON_NSTRUCT">    -1</i>
   <i type="logical" name="LMUSIC"> F  </i>
   <v name="POMASS">      1.00000000     12.01100000     14.00100000    126.90400000    207.20000000</v>
   <v name="DARWINR">      0.00000000      0.00000000      0.00000000      0.00000000      0.00000000</v>
   <v name="DARWINV">      1.00000000      1.00000000      1.00000000      1.00000000      1.00000000</v>
   <i type="logical" name="LCORR"> T  </i>
  </separator>
  <i type="logical" name="GGA_COMPAT"> F  </i>
  <i type="logical" name="LBERRY"> F  </i>
  <i type="int" name="ICORELEVEL">     0</i>
  <i type="logical" name="LDAU"> F  </i>
  <i type="int" name="I_CONSTRAINED_M">     0</i>
  <separator name="electronic exchange-correlation" >
   <i type="string" name="GGA">--</i>
   <i type="int" name="VOSKOWN">     0</i>
   <i type="logical" name="LHFCALC"> F  </i>
   <i type="string" name="PRECFOCK"></i>
   <i type="logical" name="LSYMGRAD"> F  </i>
   <i type="logical" name="LHFONE"> F  </i>
   <i type="logical" name="LRHFCALC"> F  </i>
   <i type="logical" name="LTHOMAS"> F  </i>
   <i type="logical" name="LMODELHF"> F  </i>
   <i type="logical" name="LFOCKACE"> F  </i>
   <i name="ENCUT4O">     -1.00000000</i>
   <i type="int" name="EXXOEP">     0</i>
   <i type="int" name="FOURORBIT">     0</i>
   <i name="AEXX">      0.00000000</i>
   <i name="HFALPHA">      0.00000000</i>
   <i name="MCALPHA">      0.00000000</i>
   <i name="ALDAX">      1.00000000</i>
   <i name="AGGAX">      1.00000000</i>
   <i name="ALDAC">      1.00000000</i>
   <i name="AGGAC">      1.00000000</i>
   <i type="int" name="NKREDX">     1</i>
   <i type="int" name="NKREDY">     1</i>
   <i type="int" name="NKREDZ">     1</i>
   <i type="logical" name="SHIFTRED"> F  </i>
   <i type="logical" name="ODDONLY"> F  </i>
   <i type="logical" name="EVENONLY"> F  </i>
   <i type="int" name="LMAXFOCK">     0</i>
   <i type="int" name="NMAXFOCKAE">     0</i>
   <i type="logical" name="LFOCKAEDFT"> F  </i>
   <i name="HFSCREEN">      0.00000000</i>
   <i name="HFSCREENC">      0.00000000</i>
   <i type="int" name="NBANDSGWLOW">     0</i>
  </separator>
  <separator name="vdW DFT" >
   <i type="logical" name="LUSE_VDW"> F  </i>
   <i name="Zab_VDW">     -0.84910000</i>
   <i name="PARAM1">      0.12340000</i>
   <i name="PARAM2">      1.00000000</i>
   <i name="PARAM3">      0.00000000</i>
  </separator>
  <separator name="model GW" >
   <i type="int" name="MODEL_GW">     0</i>
   <i name="MODEL_EPS0">     37.63423484</i>
   <i name="MODEL_ALPHA">      1.00000000</i>
  </separator>
  <separator name="linear response parameters" >
   <i type="logical" name="LEPSILON"> F  </i>
   <i type="logical" name="LRPA"> F  </i>
   <i type="logical" name="LNABLA"> F  </i>
   <i type="logical" name="LVEL"> F  </i>
   <i type="int" name="KINTER">     0</i>
   <i name="CSHIFT">      0.10000000</i>
   <i name="OMEGAMAX">     -1.00000000</i>
   <i name="DEG_THRESHOLD">      0.00200000</i>
   <i name="RTIME">     -0.10000000</i>
   <i name="WPLASMAI">      0.00000000</i>
   <v name="DFIELD">      0.00000000      0.00000000      0.00000000</v>
   <v name="WPLASMA">      0.00000000      0.00000000      0.00000000      0.00000000      0.00000000      0.00000000      0.00000000      0.00000000      0.00000000</v>
  </separator>
  <separator name="orbital magnetization" >
   <i type="logical" name="NUCIND"> F  </i>
   <v name="MAGPOS">      0.00000000      0.00000000      0.00000000</v>
   <i type="logical" name="LNICSALL"> T  </i>
   <i type="logical" name="ORBITALMAG"> F  </i>
   <i type="logical" name="LMAGBLOCH"> F  </i>
   <i type="logical" name="LCHIMAG"> F  </i>
   <i type="logical" name="LGAUGE"> T  </i>
   <i type="int" name="MAGATOM">     0</i>
   <v name="MAGDIPOL">      0.00000000      0.00000000      0.00000000</v>
   <v name="AVECCONST">      0.00000000      0.00000000      0.00000000</v>
  </separator>
  <separator name="response functions" >
   <i type="logical" name="LFINITE_TEMPERATURE"> F  </i>
   <i type="logical" name="LADDER"> F  </i>
   <i type="logical" name="LRPAFORCE"> F  </i>
   <i type="logical" name="LFXC"> F  </i>
   <i type="logical" name="LHARTREE"> T  </i>
   <i type="int" name="IBSE">     0</i>
   <v type="int" name="KPOINT">    -1     0     0     0</v>
   <i type="logical" name="LTCTC"> F  </i>
   <i type="logical" name="LTCTE"> F  </i>
   <i type="logical" name="LTETE"> F  </i>
   <i type="logical" name="LTRIPLET"> F  </i>
   <i type="logical" name="LFXCEPS"> F  </i>
   <i type="logical" name="LFXHEG"> F  </i>
   <i type="int" name="NATURALO">     2</i>
   <i type="logical" name="LHOLEGF"> F  </i>
   <i type="logical" name="L2ORDER"> F  </i>
   <i type="logical" name="LDMP1"> F  </i>
   <i type="logical" name="LMP2LT"> F  </i>
   <i type="logical" name="LSMP2LT"> F  </i>
   <i type="logical" name="LGWLF"> F  </i>
   <i name="ENCUTGW">     -2.00000000</i>
   <i name="ENCUTGWSOFT">     -2.00000000</i>
   <i name="ENCUTLF">     -1.00000000</i>
   <i type="logical" name="LESF_SPLINES"> F  </i>
   <i type="int" name="LMAXMP2">    -1</i>
   <i name="SCISSOR">      0.00000000</i>
   <i type="int" name="NOMEGA">     0</i>
   <i type="int" name="NOMEGAR">     0</i>
   <i type="int" name="NBANDSGW">    -1</i>
   <i type="int" name="NBANDSO">    -1</i>
   <i type="int" name="NBANDSV">    -1</i>
   <i type="int" name="NELM">   600</i>
   <i type="int" name="NELMHF">     1</i>
   <i type="int" name="DIM">     3</i>
   <i type="int" name="IESPILON">     4</i>
   <i type="int" name="ANTIRES">     0</i>
   <i name="OMEGAMAX">    -30.00000000</i>
   <i name="OMEGAMIN">    -30.00000000</i>
   <i name="OMEGATL">   -200.00000000</i>
   <i type="int" name="OMEGAGRID">     0</i>
   <i name="CSHIFT">     -0.10000000</i>
   <i type="logical" name="LSELFENERGY"> F  </i>
   <i type="logical" name="LSPECTRAL"> F  </i>
   <i type="logical" name="LSPECTRALGW"> F  </i>
   <i type="logical" name="LSINGLES"> F  </i>
   <i type="logical" name="LFERMIGW"> F  </i>
   <i type="logical" name="ODDONLYGW"> F  </i>
   <i type="logical" name="EVENONLYGW"> F  </i>
   <i type="int" name="NKREDLFX">     1</i>
   <i type="int" name="NKREDLFY">     1</i>
   <i type="int" name="NKREDLFZ">     1</i>
   <i type="int" name="MAXMEM">  2800</i>
   <i type="int" name="TELESCOPE">     0</i>
   <i type="int" name="NTAUPAR">    -1</i>
   <i type="int" name="NOMEGAPAR">    -1</i>
   <i name="DAMP_NEWTON">      0.80000001</i>
   <i name="LAMBDA">      1.00000000</i>
  </separator>
  <separator name="External order field" >
   <i name="OFIELD_KAPPA">      0.00000000</i>
   <v name="OFIELD_K">      0.00000000      0.00000000      0.00000000</v>
   <i name="OFIELD_Q6_NEAR">      0.00000000</i>
   <i name="OFIELD_Q6_FAR">      0.00000000</i>
   <i name="OFIELD_A">      0.00000000</i>
  </separator>
 </parameters>
 <atominfo>
  <atoms>     325 </atoms>
  <types>       5 </types>
  <array name="atoms" >
   <dimension dim="1">ion</dimension>
   <field type="string">element</field>
   <field type="int">atomtype</field>
   <set>
    <rc><c>H </c><c>   1</c></rc>
    <rc><c>H </c><c>   1</c></rc>
    <rc><c>H </c><c>   1</c></rc>
    <rc><c>H </c><c>   1</c></rc>
    <rc><c>H </c><c>   1</c></rc>
    <rc><c>H </c><c>   1</c></rc>
    <rc><c>H </c><c>   1</c></rc>
    <rc><c>H </c><c>   1</c></rc>
    <rc><c>H </c><c>   1</c></rc>
    <rc><c>H </c><c>   1</c></rc>
    <rc><c>H </c><c>   1</c></rc>
    <rc><c>H </c><c>   1</c></rc>
    <rc><c>H </c><c>   1</c></rc>
    <rc><c>H </c><c>   1</c></rc>
    <rc><c>H </c><c>   1</c></rc>
    <rc><c>H </c><c>   1</c></rc>
    <rc><c>H </c><c>   1</c></rc>
    <rc><c>H </c><c>   1</c></rc>
    <rc><c>H </c><c>   1</c></rc>
    <rc><c>H </c><c>   1</c></rc>
    <rc><c>H </c><c>   1</c></rc>
    <rc><c>H </c><c>   1</c></rc>
    <rc><c>H </c><c>   1</c></rc>
    <rc><c>H </c><c>   1</c></rc>
    <rc><c>H </c><c>   1</c></rc>
    <rc><c>H </c><c>   1</c></rc>
    <rc><c>H </c><c>   1</c></rc>
    <rc><c>H </c><c>   1</c></rc>
    <rc><c>H </c><c>   1</c></rc>
    <rc><c>H </c><c>   1</c></rc>
    <rc><c>H </c><c>   1</c></rc>
    <rc><c>H </c><c>   1</c></rc>
    <rc><c>H </c><c>   1</c></rc>
    <rc><c>H </c><c>   1</c></rc>
    <rc><c>H </c><c>   1</c></rc>
    <rc><c>H </c><c>   1</c></rc>
    <rc><c>H </c><c>   1</c></rc>
    <rc><c>H </c><c>   1</c></rc>
    <rc><c>H </c><c>   1</c></rc>
    <rc><c>H </c><c>   1</c></rc>
    <rc><c>H </c><c>   1</c></rc>
    <rc><c>H </c><c>   1</c></rc>
    <rc><c>H </c><c>   1</c></rc>
    <rc><c>H </c><c>   1</c></rc>
    <rc><c>H </c><c>   1</c></rc>
    <rc><c>H </c><c>   1</c></rc>
    <rc><c>H </c><c>   1</c></rc>
    <rc><c>H </c><c>   1</c></rc>
    <rc><c>H </c><c>   1</c></rc>
    <rc><c>H </c><c>   1</c></rc>
    <rc><c>H </c><c>   1</c></rc>
    <rc><c>H </c><c>   1</c></rc>
    <rc><c>H </c><c>   1</c></rc>
    <rc><c>H </c><c>   1</c></rc>
    <rc><c>H </c><c>   1</c></rc>
    <rc><c>H </c><c>   1</c></rc>
    <rc><c>H </c><c>   1</c></rc>
    <rc><c>H </c><c>   1</c></rc>
    <rc><c>H </c><c>   1</c></rc>
    <rc><c>H </c><c>   1</c></rc>
    <rc><c>H </c><c>   1</c></rc>
    <rc><c>H </c><c>   1</c></rc>
    <rc><c>H </c><c>   1</c></rc>
    <rc><c>H </c><c>   1</c></rc>
    <rc><c>H </c><c>   1</c></rc>
    <rc><c>H </c><c>   1</c></rc>
    <rc><c>H </c><c>   1</c></rc>
    <rc><c>H </c><c>   1</c></rc>
    <rc><c>H </c><c>   1</c></rc>
    <rc><c>H </c><c>   1</c></rc>
    <rc><c>H </c><c>   1</c></rc>
    <rc><c>H </c><c>   1</c></rc>
    <rc><c>H </c><c>   1</c></rc>
    <rc><c>H </c><c>   1</c></rc>
    <rc><c>H </c><c>   1</c></rc>
    <rc><c>H </c><c>   1</c></rc>
    <rc><c>H </c><c>   1</c></rc>
    <rc><c>H </c><c>   1</c></rc>
    <rc><c>H </c><c>   1</c></rc>
    <rc><c>H </c><c>   1</c></rc>
    <rc><c>H </c><c>   1</c></rc>
    <rc><c>H </c><c>   1</c></rc>
    <rc><c>H </c><c>   1</c></rc>
    <rc><c>H </c><c>   1</c></rc>
    <rc><c>H </c><c>   1</c></rc>
    <rc><c>H </c><c>   1</c></rc>
    <rc><c>H </c><c>   1</c></rc>
    <rc><c>H </c><c>   1</c></rc>
    <rc><c>H </c><c>   1</c></rc>
    <rc><c>H </c><c>   1</c></rc>
    <rc><c>H </c><c>   1</c></rc>
    <rc><c>H </c><c>   1</c></rc>
    <rc><c>H </c><c>   1</c></rc>
    <rc><c>H </c><c>   1</c></rc>
    <rc><c>H </c><c>   1</c></rc>
    <rc><c>H </c><c>   1</c></rc>
    <rc><c>H </c><c>   1</c></rc>
    <rc><c>H </c><c>   1</c></rc>
    <rc><c>H </c><c>   1</c></rc>
    <rc><c>H </c><c>   1</c></rc>
    <rc><c>H </c><c>   1</c></rc>
    <rc><c>H </c><c>   1</c></rc>
    <rc><c>H </c><c>   1</c></rc>
    <rc><c>H </c><c>   1</c></rc>
    <rc><c>H </c><c>   1</c></rc>
    <rc><c>H </c><c>   1</c></rc>
    <rc><c>H </c><c>   1</c></rc>
    <rc><c>H </c><c>   1</c></rc>
    <rc><c>H </c><c>   1</c></rc>
    <rc><c>H </c><c>   1</c></rc>
    <rc><c>H </c><c>   1</c></rc>
    <rc><c>H </c><c>   1</c></rc>
    <rc><c>H </c><c>   1</c></rc>
    <rc><c>H </c><c>   1</c></rc>
    <rc><c>H </c><c>   1</c></rc>
    <rc><c>H </c><c>   1</c></rc>
    <rc><c>H </c><c>   1</c></rc>
    <rc><c>H </c><c>   1</c></rc>
    <rc><c>H </c><c>   1</c></rc>
    <rc><c>H </c><c>   1</c></rc>
    <rc><c>H </c><c>   1</c></rc>
    <rc><c>H </c><c>   1</c></rc>
    <rc><c>H </c><c>   1</c></rc>
    <rc><c>H </c><c>   1</c></rc>
    <rc><c>H </c><c>   1</c></rc>
    <rc><c>H </c><c>   1</c></rc>
    <rc><c>H </c><c>   1</c></rc>
    <rc><c>H </c><c>   1</c></rc>
    <rc><c>H </c><c>   1</c></rc>
    <rc><c>H </c><c>   1</c></rc>
    <rc><c>H </c><c>   1</c></rc>
    <rc><c>H </c><c>   1</c></rc>
    <rc><c>H </c><c>   1</c></rc>
    <rc><c>H </c><c>   1</c></rc>
    <rc><c>H </c><c>   1</c></rc>
    <rc><c>H </c><c>   1</c></rc>
    <rc><c>H </c><c>   1</c></rc>
    <rc><c>H </c><c>   1</c></rc>
    <rc><c>H </c><c>   1</c></rc>
    <rc><c>H </c><c>   1</c></rc>
    <rc><c>H </c><c>   1</c></rc>
    <rc><c>H </c><c>   1</c></rc>
    <rc><c>H </c><c>   1</c></rc>
    <rc><c>C </c><c>   2</c></rc>
    <rc><c>C </c><c>   2</c></rc>
    <rc><c>C </c><c>   2</c></rc>
    <rc><c>C </c><c>   2</c></rc>
    <rc><c>C </c><c>   2</c></rc>
    <rc><c>C </c><c>   2</c></rc>
    <rc><c>C </c><c>   2</c></rc>
    <rc><c>C </c><c>   2</c></rc>
    <rc><c>C </c><c>   2</c></rc>
    <rc><c>C </c><c>   2</c></rc>
    <rc><c>C </c><c>   2</c></rc>
    <rc><c>C </c><c>   2</c></rc>
    <rc><c>C </c><c>   2</c></rc>
    <rc><c>C </c><c>   2</c></rc>
    <rc><c>C </c><c>   2</c></rc>
    <rc><c>C </c><c>   2</c></rc>
    <rc><c>C </c><c>   2</c></rc>
    <rc><c>C </c><c>   2</c></rc>
    <rc><c>C </c><c>   2</c></rc>
    <rc><c>C </c><c>   2</c></rc>
    <rc><c>C </c><c>   2</c></rc>
    <rc><c>C </c><c>   2</c></rc>
    <rc><c>C </c><c>   2</c></rc>
    <rc><c>C </c><c>   2</c></rc>
    <rc><c>C </c><c>   2</c></rc>
    <rc><c>C </c><c>   2</c></rc>
    <rc><c>C </c><c>   2</c></rc>
    <rc><c>C </c><c>   2</c></rc>
    <rc><c>C </c><c>   2</c></rc>
    <rc><c>C </c><c>   2</c></rc>
    <rc><c>C </c><c>   2</c></rc>
    <rc><c>C </c><c>   2</c></rc>
    <rc><c>C </c><c>   2</c></rc>
    <rc><c>C </c><c>   2</c></rc>
    <rc><c>C </c><c>   2</c></rc>
    <rc><c>C </c><c>   2</c></rc>
    <rc><c>C </c><c>   2</c></rc>
    <rc><c>C </c><c>   2</c></rc>
    <rc><c>C </c><c>   2</c></rc>
    <rc><c>N </c><c>   3</c></rc>
    <rc><c>N </c><c>   3</c></rc>
    <rc><c>N </c><c>   3</c></rc>
    <rc><c>N </c><c>   3</c></rc>
    <rc><c>N </c><c>   3</c></rc>
    <rc><c>N </c><c>   3</c></rc>
    <rc><c>N </c><c>   3</c></rc>
    <rc><c>N </c><c>   3</c></rc>
    <rc><c>N </c><c>   3</c></rc>
    <rc><c>N </c><c>   3</c></rc>
    <rc><c>N </c><c>   3</c></rc>
    <rc><c>N </c><c>   3</c></rc>
    <rc><c>N </c><c>   3</c></rc>
    <rc><c>N </c><c>   3</c></rc>
    <rc><c>N </c><c>   3</c></rc>
    <rc><c>N </c><c>   3</c></rc>
    <rc><c>N </c><c>   3</c></rc>
    <rc><c>N </c><c>   3</c></rc>
    <rc><c>N </c><c>   3</c></rc>
    <rc><c>N </c><c>   3</c></rc>
    <rc><c>N </c><c>   3</c></rc>
    <rc><c>N </c><c>   3</c></rc>
    <rc><c>N </c><c>   3</c></rc>
    <rc><c>N </c><c>   3</c></rc>
    <rc><c>N </c><c>   3</c></rc>
    <rc><c>N </c><c>   3</c></rc>
    <rc><c>N </c><c>   3</c></rc>
    <rc><c>N </c><c>   3</c></rc>
    <rc><c>N </c><c>   3</c></rc>
    <rc><c>N </c><c>   3</c></rc>
    <rc><c>N </c><c>   3</c></rc>
    <rc><c>N </c><c>   3</c></rc>
    <rc><c>N </c><c>   3</c></rc>
    <rc><c>N </c><c>   3</c></rc>
    <rc><c>N </c><c>   3</c></rc>
    <rc><c>N </c><c>   3</c></rc>
    <rc><c>N </c><c>   3</c></rc>
    <rc><c>N </c><c>   3</c></rc>
    <rc><c>N </c><c>   3</c></rc>
    <rc><c>N </c><c>   3</c></rc>
    <rc><c>N </c><c>   3</c></rc>
    <rc><c>N </c><c>   3</c></rc>
    <rc><c>N </c><c>   3</c></rc>
    <rc><c>N </c><c>   3</c></rc>
    <rc><c>N </c><c>   3</c></rc>
    <rc><c>N </c><c>   3</c></rc>
    <rc><c>N </c><c>   3</c></rc>
    <rc><c>I </c><c>   4</c></rc>
    <rc><c>I </c><c>   4</c></rc>
    <rc><c>I </c><c>   4</c></rc>
    <rc><c>I </c><c>   4</c></rc>
    <rc><c>I </c><c>   4</c></rc>
    <rc><c>I </c><c>   4</c></rc>
    <rc><c>I </c><c>   4</c></rc>
    <rc><c>I </c><c>   4</c></rc>
    <rc><c>I </c><c>   4</c></rc>
    <rc><c>I </c><c>   4</c></rc>
    <rc><c>I </c><c>   4</c></rc>
    <rc><c>I </c><c>   4</c></rc>
    <rc><c>I </c><c>   4</c></rc>
    <rc><c>I </c><c>   4</c></rc>
    <rc><c>I </c><c>   4</c></rc>
    <rc><c>I </c><c>   4</c></rc>
    <rc><c>I </c><c>   4</c></rc>
    <rc><c>I </c><c>   4</c></rc>
    <rc><c>I </c><c>   4</c></rc>
    <rc><c>I </c><c>   4</c></rc>
    <rc><c>I </c><c>   4</c></rc>
    <rc><c>I </c><c>   4</c></rc>
    <rc><c>I </c><c>   4</c></rc>
    <rc><c>I </c><c>   4</c></rc>
    <rc><c>I </c><c>   4</c></rc>
    <rc><c>I </c><c>   4</c></rc>
    <rc><c>I </c><c>   4</c></rc>
    <rc><c>I </c><c>   4</c></rc>
    <rc><c>I </c><c>   4</c></rc>
    <rc><c>I </c><c>   4</c></rc>
    <rc><c>I </c><c>   4</c></rc>
    <rc><c>I </c><c>   4</c></rc>
    <rc><c>I </c><c>   4</c></rc>
    <rc><c>I </c><c>   4</c></rc>
    <rc><c>I </c><c>   4</c></rc>
    <rc><c>I </c><c>   4</c></rc>
    <rc><c>I </c><c>   4</c></rc>
    <rc><c>I </c><c>   4</c></rc>
    <rc><c>I </c><c>   4</c></rc>
    <rc><c>I </c><c>   4</c></rc>
    <rc><c>I </c><c>   4</c></rc>
    <rc><c>I </c><c>   4</c></rc>
    <rc><c>I </c><c>   4</c></rc>
    <rc><c>I </c><c>   4</c></rc>
    <rc><c>I </c><c>   4</c></rc>
    <rc><c>I </c><c>   4</c></rc>
    <rc><c>I </c><c>   4</c></rc>
    <rc><c>I </c><c>   4</c></rc>
    <rc><c>I </c><c>   4</c></rc>
    <rc><c>I </c><c>   4</c></rc>
    <rc><c>I </c><c>   4</c></rc>
    <rc><c>I </c><c>   4</c></rc>
    <rc><c>I </c><c>   4</c></rc>
    <rc><c>I </c><c>   4</c></rc>
    <rc><c>I </c><c>   4</c></rc>
    <rc><c>I </c><c>   4</c></rc>
    <rc><c>I </c><c>   4</c></rc>
    <rc><c>I </c><c>   4</c></rc>
    <rc><c>I </c><c>   4</c></rc>
    <rc><c>I </c><c>   4</c></rc>
    <rc><c>I </c><c>   4</c></rc>
    <rc><c>I </c><c>   4</c></rc>
    <rc><c>I </c><c>   4</c></rc>
    <rc><c>I </c><c>   4</c></rc>
    <rc><c>I </c><c>   4</c></rc>
    <rc><c>I </c><c>   4</c></rc>
    <rc><c>I </c><c>   4</c></rc>
    <rc><c>I </c><c>   4</c></rc>
    <rc><c>I </c><c>   4</c></rc>
    <rc><c>I </c><c>   4</c></rc>
    <rc><c>I </c><c>   4</c></rc>
    <rc><c>I </c><c>   4</c></rc>
    <rc><c>Pb</c><c>   5</c></rc>
    <rc><c>Pb</c><c>   5</c></rc>
    <rc><c>Pb</c><c>   5</c></rc>
    <rc><c>Pb</c><c>   5</c></rc>
    <rc><c>Pb</c><c>   5</c></rc>
    <rc><c>Pb</c><c>   5</c></rc>
    <rc><c>Pb</c><c>   5</c></rc>
    <rc><c>Pb</c><c>   5</c></rc>
    <rc><c>Pb</c><c>   5</c></rc>
    <rc><c>Pb</c><c>   5</c></rc>
    <rc><c>Pb</c><c>   5</c></rc>
    <rc><c>Pb</c><c>   5</c></rc>
    <rc><c>Pb</c><c>   5</c></rc>
    <rc><c>Pb</c><c>   5</c></rc>
    <rc><c>Pb</c><c>   5</c></rc>
    <rc><c>Pb</c><c>   5</c></rc>
    <rc><c>Pb</c><c>   5</c></rc>
    <rc><c>Pb</c><c>   5</c></rc>
    <rc><c>Pb</c><c>   5</c></rc>
    <rc><c>Pb</c><c>   5</c></rc>
    <rc><c>Pb</c><c>   5</c></rc>
    <rc><c>Pb</c><c>   5</c></rc>
    <rc><c>Pb</c><c>   5</c></rc>
    <rc><c>Pb</c><c>   5</c></rc>
   </set>
  </array>
  <array name="atomtypes" >
   <dimension dim="1">type</dimension>
   <field type="int">atomspertype</field>
   <field type="string">element</field>
   <field>mass</field>
   <field>valence</field>
   <field type="string">pseudopotential</field>
   <set>
    <rc><c> 143</c><c>H </c><c>      1.00000000</c><c>      1.00000000</c><c>  PAW_PBE H 15Jun2001                   </c></rc>
    <rc><c>  39</c><c>C </c><c>     12.01100000</c><c>      4.00000000</c><c>  PAW_PBE C 08Apr2002                   </c></rc>
    <rc><c>  47</c><c>N </c><c>     14.00100000</c><c>      5.00000000</c><c>  PAW_PBE N 08Apr2002                   </c></rc>
    <rc><c>  72</c><c>I </c><c>    126.90400000</c><c>      7.00000000</c><c>  PAW_PBE I 08Apr2002                   </c></rc>
    <rc><c>  24</c><c>Pb</c><c>    207.20000000</c><c>      4.00000000</c><c>  PAW_PBE Pb 08Apr2002                  </c></rc>
   </set>
  </array>
 </atominfo>
 <structure name="initialpos" >
  <crystal>
   <varray name="basis" >
    <v>      18.06080055       0.00000000       0.00000000 </v>
    <v>      -0.00491865      18.06279945       0.00000000 </v>
    <v>       0.00000000       0.00000000      62.48749924 </v>
   </varray>
   <i name="volume">  20385.21054034 </i>
   <varray name="rec_basis" >
    <v>       0.05536853       0.00001508      -0.00000000 </v>
    <v>       0.00000000       0.05536240       0.00000000 </v>
    <v>       0.00000000      -0.00000000       0.01600320 </v>
   </varray>
  </crystal>
  <varray name="positions" >
   <v>       0.47418949       0.33474549       0.56936663 </v>
   <v>       0.44871880       0.83495824       0.57365356 </v>
   <v>       0.92324496       0.24812214       0.58038153 </v>
   <v>       0.94131345       0.81723832       0.57498360 </v>
   <v>       0.31828475       0.07501128       0.56968890 </v>
   <v>       0.34374211       0.56120231       0.56619735 </v>
   <v>       0.79836814       0.09136781       0.57153185 </v>
   <v>       0.10489174       0.24636464       0.55720471 </v>
   <v>       0.08205752       0.67421890       0.57436891 </v>
   <v>       0.54717981       0.15026854       0.56021691 </v>
   <v>       0.49800764       0.64494728       0.56098342 </v>
   <v>       0.36847087       0.01044486       0.55532756 </v>
   <v>       0.28843744       0.63256606       0.55595232 </v>
   <v>       0.87093353       0.03516718       0.56218392 </v>
   <v>       0.05790596       0.24976764       0.58128405 </v>
   <v>       0.99831499       0.69548439       0.58668607 </v>
   <v>       0.57427242       0.23831867       0.56978285 </v>
   <v>       0.45199941       0.69819936       0.57973253 </v>
   <v>       0.28009303       0.44069321       0.57324497 </v>
   <v>       0.18227907       0.05949543       0.57168917 </v>
   <v>       0.67395196       0.02993637       0.57315138 </v>
   <v>       0.38801843       0.30592892       0.55923801 </v>
   <v>       0.50335557       0.86981105       0.55319323 </v>
   <v>       0.87800107       0.23816381       0.55587247 </v>
   <v>       0.98820662       0.86657957       0.55568091 </v>
   <v>       0.18950543       0.43431733       0.56457642 </v>
   <v>       0.14328325       0.98785624       0.55753919 </v>
   <v>       0.67085747       0.93864741       0.56377487 </v>
   <v>       0.42851154       0.18841610       0.55153133 </v>
   <v>       0.54254912       0.75101527       0.54249986 </v>
   <v>       0.99342879       0.23762995       0.53724436 </v>
   <v>       0.08284886       0.77706608       0.55289013 </v>
   <v>       0.18445866       0.55506969       0.55297364 </v>
   <v>       0.26012916       0.94245416       0.54643974 </v>
   <v>       0.79338053       0.93471639       0.55586765 </v>
   <v>       0.46024289       0.30771011       0.67358864 </v>
   <v>       0.44100353       0.80768125       0.67232948 </v>
   <v>       0.94551764       0.27686759       0.67534473 </v>
   <v>       0.92294956       0.73429440       0.67247990 </v>
   <v>       0.30843320       0.04869657       0.67192254 </v>
   <v>       0.29536436       0.55265689       0.67566682 </v>
   <v>       0.79678637       0.05342260       0.67454904 </v>
   <v>       0.84370210       0.47217978       0.66404413 </v>
   <v>       0.09257450       0.17374441       0.64842181 </v>
   <v>       0.11022117       0.71555243       0.65183295 </v>
   <v>       0.58054330       0.16864022       0.64906512 </v>
   <v>       0.57315400       0.66975454       0.65205223 </v>
   <v>       0.18627457       0.40949766       0.64833402 </v>
   <v>       0.16711082       0.92916262       0.64741092 </v>
   <v>       0.64378403       0.47511048       0.65888087 </v>
   <v>       0.67833570       0.91533450       0.64858016 </v>
   <v>       0.05564712       0.18495872       0.67382960 </v>
   <v>       0.05072801       0.67533388       0.67011774 </v>
   <v>       0.56072423       0.20725041       0.67400926 </v>
   <v>       0.53781067       0.70111743       0.67630544 </v>
   <v>       0.20324929       0.44043361       0.67405737 </v>
   <v>       0.19836587       0.95464060       0.67266976 </v>
   <v>       0.71612075       0.42115452       0.66863056 </v>
   <v>       0.70103858       0.94669369       0.67417519 </v>
   <v>       0.42107969       0.32505183       0.64872112 </v>
   <v>       0.42232146       0.83215547       0.64606642 </v>
   <v>       0.92429545       0.31915528       0.65085113 </v>
   <v>       0.90760212       0.81025261       0.65556972 </v>
   <v>       0.33701805       0.07269950       0.64648526 </v>
   <v>       0.32374128       0.58444961       0.65073947 </v>
   <v>       0.82666454       0.08162641       0.64947677 </v>
   <v>       0.85161183       0.55465967       0.64978359 </v>
   <v>       0.01394417       0.25825782       0.63230469 </v>
   <v>       0.02624316       0.80443023       0.64092427 </v>
   <v>       0.49418407       0.24064214       0.63102331 </v>
   <v>       0.50386467       0.74774958       0.63144765 </v>
   <v>       0.25145167       0.99968582       0.62924060 </v>
   <v>       0.25946744       0.49587180       0.63191790 </v>
   <v>       0.75525784       0.99634932       0.63131572 </v>
   <v>       0.72432835       0.56414852       0.64477539 </v>
   <v>       0.44874502       0.30128397       0.76888902 </v>
   <v>       0.44874501       0.80128391       0.76888902 </v>
   <v>       0.94874497       0.30128397       0.76888902 </v>
   <v>       0.94874501       0.80128391       0.76888902 </v>
   <v>       0.30127600       0.05129450       0.76887296 </v>
   <v>       0.30127601       0.55129450       0.76887296 </v>
   <v>       0.80127594       0.05129450       0.76887296 </v>
   <v>       0.80127598       0.55129450       0.76887296 </v>
   <v>       0.07877100       0.17118050       0.74344197 </v>
   <v>       0.07877101       0.67118045       0.74344197 </v>
   <v>       0.57877100       0.17118050       0.74344197 </v>
   <v>       0.57877099       0.67118045       0.74344197 </v>
   <v>       0.17119950       0.42117448       0.74342103 </v>
   <v>       0.17119950       0.92117451       0.74342103 </v>
   <v>       0.67119951       0.42117448       0.74342103 </v>
   <v>       0.67119950       0.92117451       0.74342103 </v>
   <v>       0.05125600       0.19871499       0.76888902 </v>
   <v>       0.05125600       0.69871493       0.76888902 </v>
   <v>       0.55125603       0.19871499       0.76888902 </v>
   <v>       0.55125602       0.69871493       0.76888902 </v>
   <v>       0.19872349       0.44870397       0.76887205 </v>
   <v>       0.19872349       0.94870397       0.76887205 </v>
   <v>       0.69872352       0.44870397       0.76887205 </v>
   <v>       0.69872351       0.94870397       0.76887205 </v>
   <v>       0.42123152       0.32881747       0.74344197 </v>
   <v>       0.42123151       0.82881744       0.74344197 </v>
   <v>       0.92123147       0.32881747       0.74344197 </v>
   <v>       0.92123151       0.82881744       0.74344197 </v>
   <v>       0.32880050       0.07882500       0.74342103 </v>
   <v>       0.32880049       0.57882496       0.74342103 </v>
   <v>       0.82880048       0.07882500       0.74342103 </v>
   <v>       0.82880052       0.57882496       0.74342103 </v>
   <v>       0.00000350       0.25000148       0.72582199 </v>
   <v>       0.00000350       0.75000145       0.72582199 </v>
   <v>       0.50000351       0.25000148       0.72582199 </v>
   <v>       0.50000350       0.75000145       0.72582199 </v>
   <v>       0.25000050       0.00000000       0.72580398 </v>
   <v>       0.25000052       0.50000000       0.72580398 </v>
   <v>       0.75000050       0.00000000       0.72580398 </v>
   <v>       0.75000049       0.50000000       0.72580398 </v>
   <v>       0.71973016       0.44198380       0.54130822 </v>
   <v>       0.73731720       0.49249481       0.51807170 </v>
   <v>       0.66014119       0.55264850       0.55856191 </v>
   <v>       0.70664947       0.63824387       0.55603565 </v>
   <v>       0.84993465       0.50743555       0.56885169 </v>
   <v>       0.78930042       0.57693306       0.57864925 </v>
   <v>       0.87059709       0.56244036       0.53022495 </v>
   <v>       0.79741825       0.62432650       0.52331298 </v>
   <v>       0.87020887       0.46294715       0.51869780 </v>
   <v>       0.86294243       0.42363792       0.54421841 </v>
   <v>       0.87178481       0.32615050       0.51876300 </v>
   <v>       0.78295409       0.32227649       0.52987130 </v>
   <v>       0.63491068       0.55061552       0.51928850 </v>
   <v>       0.68763153       0.63399386       0.51582168 </v>
   <v>       0.60585822       0.63342713       0.53107613 </v>
   <v>       0.75462192       0.46823822       0.59691608 </v>
   <v>       0.75499698       0.41025169       0.57392998 </v>
   <v>       0.68382909       0.47710396       0.57769843 </v>
   <v>       0.81674966       0.69155651       0.55869939 </v>
   <v>       0.90015409       0.68674299       0.54378876 </v>
   <v>       0.88701521       0.62592828       0.56562046 </v>
   <v>       0.82029581       0.38042181       0.48528972 </v>
   <v>       0.78437419       0.29260769       0.49162894 </v>
   <v>       0.66289159       0.30745565       0.51984909 </v>
   <v>       0.73099617       0.46023604       0.47065993 </v>
   <v>       0.53652540       0.36051800       0.51902068 </v>
   <v>       0.60366885       0.51211533       0.46950959 </v>
   <v>       0.50599324       0.46332693       0.49410988 </v>
   <v>       0.99166177       0.24229362       0.55451917 </v>
   <v>       0.03536092       0.76845900       0.56344534 </v>
   <v>       0.46809293       0.22764265       0.55836003 </v>
   <v>       0.50443419       0.75716879       0.55596752 </v>
   <v>       0.23688566       0.53359655       0.55914492 </v>
   <v>       0.25624634       0.99388009       0.55556351 </v>
   <v>       0.77103745       0.98628626       0.56220840 </v>
   <v>       0.00825931       0.24690521       0.64934783 </v>
   <v>       0.00987400       0.76468249       0.65311519 </v>
   <v>       0.50123100       0.24699584       0.64824691 </v>
   <v>       0.49769448       0.75048745       0.64859732 </v>
   <v>       0.25579240       0.49627781       0.64920102 </v>
   <v>       0.25211600       0.00089942       0.64663233 </v>
   <v>       0.74671389       0.51764341       0.65337836 </v>
   <v>       0.75277147       0.99823592       0.64864848 </v>
   <v>       0.49998898       0.24999498       0.74327702 </v>
   <v>       0.49998903       0.74999496       0.74327702 </v>
   <v>       0.99998898       0.24999498       0.74327702 </v>
   <v>       0.99998903       0.74999496       0.74327702 </v>
   <v>       0.25000050       0.00000100       0.74325596 </v>
   <v>       0.25000052       0.50000100       0.74325596 </v>
   <v>       0.75000050       0.00000100       0.74325596 </v>
   <v>       0.75000049       0.50000100       0.74325596 </v>
   <v>       0.70617872       0.38075106       0.49527881 </v>
   <v>       0.65002988       0.35215373       0.50868206 </v>
   <v>       0.68800884       0.43787872       0.48111652 </v>
   <v>       0.57891725       0.38165717       0.50816573 </v>
   <v>       0.61590320       0.46688491       0.48051817 </v>
   <v>       0.56191415       0.44008113       0.49413573 </v>
   <v>       0.76179425       0.47550466       0.53319148 </v>
   <v>       0.69497500       0.58562900       0.54799382 </v>
   <v>       0.79173198       0.52522970       0.56943500 </v>
   <v>       0.82674893       0.59757184       0.53668901 </v>
   <v>       0.83263231       0.43165451       0.52913031 </v>
   <v>       0.81828789       0.35519657       0.51914931 </v>
   <v>       0.65506645       0.60073057       0.52711092 </v>
   <v>       0.74314468       0.46663069       0.57969767 </v>
   <v>       0.85878167       0.65341925       0.55235230 </v>
   <v>       0.78433641       0.35124218       0.49660049 </v>
   <v>       0.05503212       0.24412055       0.56496096 </v>
   <v>       0.03767089       0.70882442       0.57537729 </v>
   <v>       0.53617018       0.20559540       0.56211487 </v>
   <v>       0.48469867       0.69715475       0.56630675 </v>
   <v>       0.44316591       0.29550357       0.56171110 </v>
   <v>       0.48201069       0.82388661       0.56064400 </v>
   <v>       0.92682319       0.24596995       0.56400368 </v>
   <v>       0.98072556       0.81672645       0.56323503 </v>
   <v>       0.23628584       0.46380005       0.56530222 </v>
   <v>       0.19024359       0.01616722       0.56133884 </v>
   <v>       0.69932316       0.98629649       0.56573156 </v>
   <v>       0.31807216       0.02955340       0.55985185 </v>
   <v>       0.29423133       0.57776996       0.55988994 </v>
   <v>       0.81623720       0.04125036       0.56592142 </v>
   <v>       0.05392492       0.19902648       0.65794422 </v>
   <v>       0.05881599       0.71489552       0.65863454 </v>
   <v>       0.55074131       0.20574086       0.65786156 </v>
   <v>       0.53795003       0.70444976       0.65978687 </v>
   <v>       0.21383231       0.44534556       0.65798646 </v>
   <v>       0.20253982       0.95937589       0.65637909 </v>
   <v>       0.70004052       0.46762424       0.66045919 </v>
   <v>       0.70841113       0.95026181       0.65789721 </v>
   <v>       0.45880614       0.29638592       0.65756127 </v>
   <v>       0.45115399       0.79927068       0.65638483 </v>
   <v>       0.95585252       0.28349167       0.65943219 </v>
   <v>       0.94331278       0.77117924       0.66126452 </v>
   <v>       0.30185443       0.04266153       0.65579218 </v>
   <v>       0.29351028       0.54647476       0.65940093 </v>
   <v>       0.79406036       0.04730274       0.65836465 </v>
   <v>       0.81862941       0.51471308       0.65606890 </v>
   <v>       0.04586250       0.20411950       0.75272599 </v>
   <v>       0.04586250       0.70411946       0.75272599 </v>
   <v>       0.54586251       0.20411950       0.75272599 </v>
   <v>       0.54586250       0.70411946       0.75272599 </v>
   <v>       0.20411900       0.45410100       0.75270499 </v>
   <v>       0.20411899       0.95410095       0.75270499 </v>
   <v>       0.70411898       0.45410100       0.75270499 </v>
   <v>       0.70411896       0.95410095       0.75270499 </v>
   <v>       0.45414002       0.29588849       0.75272697 </v>
   <v>       0.45414001       0.79588852       0.75272697 </v>
   <v>       0.95414002       0.29588849       0.75272697 </v>
[...]
   <v>       0.54717981       0.15026854       0.56021691 </v>
   <v>       0.49800764       0.64494728       0.56098342 </v>
   <v>       0.36847087       0.01044486       0.55532756 </v>
   <v>       0.28843744       0.63256606       0.55595232 </v>
   <v>       0.87093353       0.03516718       0.56218392 </v>
   <v>       0.05790596       0.24976764       0.58128405 </v>
   <v>       0.99831499       0.69548439       0.58668607 </v>
   <v>       0.57427242       0.23831867       0.56978285 </v>
   <v>       0.45199941       0.69819936       0.57973253 </v>
   <v>       0.28009303       0.44069321       0.57324497 </v>
   <v>       0.18227907       0.05949543       0.57168917 </v>
   <v>       0.67395196       0.02993637       0.57315138 </v>
   <v>       0.38801843       0.30592892       0.55923801 </v>
   <v>       0.50335557       0.86981105       0.55319323 </v>
   <v>       0.87800107       0.23816381       0.55587247 </v>
   <v>       0.98820662       0.86657957       0.55568091 </v>
   <v>       0.18950543       0.43431733       0.56457642 </v>
   <v>       0.14328325       0.98785624       0.55753919 </v>
   <v>       0.67085747       0.93864741       0.56377487 </v>
   <v>       0.42851154       0.18841610       0.55153133 </v>
   <v>       0.54254912       0.75101527       0.54249986 </v>
   <v>       0.99342879       0.23762995       0.53724436 </v>
   <v>       0.08284886       0.77706608       0.55289013 </v>
   <v>       0.18445866       0.55506969       0.55297364 </v>
   <v>       0.26012916       0.94245416       0.54643974 </v>
   <v>       0.79338053       0.93471639       0.55586765 </v>
   <v>       0.46024289       0.30771011       0.67358864 </v>
   <v>       0.44100353       0.80768125       0.67232948 </v>
   <v>       0.94551764       0.27686759       0.67534473 </v>
   <v>       0.92294956       0.73429440       0.67247990 </v>
   <v>       0.30843320       0.04869657       0.67192254 </v>
   <v>       0.29536436       0.55265689       0.67566682 </v>
   <v>       0.79678637       0.05342260       0.67454904 </v>
   <v>       0.84370210       0.47217978       0.66404413 </v>
   <v>       0.09257450       0.17374441       0.64842181 </v>
   <v>       0.11022117       0.71555243       0.65183295 </v>
   <v>       0.58054330       0.16864022       0.64906512 </v>
   <v>       0.57315400       0.66975454       0.65205223 </v>
   <v>       0.18627457       0.40949766       0.64833402 </v>
   <v>       0.16711082       0.92916262       0.64741092 </v>
   <v>       0.64378403       0.47511048       0.65888087 </v>
   <v>       0.67833570       0.91533450       0.64858016 </v>
   <v>       0.05564712       0.18495872       0.67382960 </v>
   <v>       0.05072801       0.67533388       0.67011774 </v>
   <v>       0.56072423       0.20725041       0.67400926 </v>
   <v>       0.53781067       0.70111743       0.67630544 </v>
   <v>       0.20324929       0.44043361       0.67405737 </v>
   <v>       0.19836587       0.95464060       0.67266976 </v>
   <v>       0.71612075       0.42115452       0.66863056 </v>
   <v>       0.70103858       0.94669369       0.67417519 </v>
   <v>       0.42107969       0.32505183       0.64872112 </v>
   <v>       0.42232146       0.83215547       0.64606642 </v>
   <v>       0.92429545       0.31915528       0.65085113 </v>
   <v>       0.90760212       0.81025261       0.65556972 </v>
   <v>       0.33701805       0.07269950       0.64648526 </v>
   <v>       0.32374128       0.58444961       0.65073947 </v>
   <v>       0.82666454       0.08162641       0.64947677 </v>
   <v>       0.85161183       0.55465967       0.64978359 </v>
   <v>       0.01394417       0.25825782       0.63230469 </v>
   <v>       0.02624316       0.80443023       0.64092427 </v>
   <v>       0.49418407       0.24064214       0.63102331 </v>
   <v>       0.50386467       0.74774958       0.63144765 </v>
   <v>       0.25145167       0.99968582       0.62924060 </v>
   <v>       0.25946744       0.49587180       0.63191790 </v>
   <v>       0.75525784       0.99634932       0.63131572 </v>
   <v>       0.72432835       0.56414852       0.64477539 </v>
   <v>       0.44874502       0.30128397       0.76888902 </v>
   <v>       0.44874501       0.80128391       0.76888902 </v>
   <v>       0.94874497       0.30128397       0.76888902 </v>
   <v>       0.94874501       0.80128391       0.76888902 </v>
   <v>       0.30127600       0.05129450       0.76887296 </v>
   <v>       0.30127601       0.55129450       0.76887296 </v>
   <v>       0.80127594       0.05129450       0.76887296 </v>
   <v>       0.80127598       0.55129450       0.76887296 </v>
   <v>       0.07877100       0.17118050       0.74344197 </v>
   <v>       0.07877101       0.67118045       0.74344197 </v>
   <v>       0.57877100       0.17118050       0.74344197 </v>
   <v>       0.57877099       0.67118045       0.74344197 </v>
   <v>       0.17119950       0.42117448       0.74342103 </v>
   <v>       0.17119950       0.92117451       0.74342103 </v>
   <v>       0.67119951       0.42117448       0.74342103 </v>
   <v>       0.67119950       0.92117451       0.74342103 </v>
   <v>       0.05125600       0.19871499       0.76888902 </v>
   <v>       0.05125600       0.69871493       0.76888902 </v>
   <v>       0.55125603       0.19871499       0.76888902 </v>
   <v>       0.55125602       0.69871493       0.76888902 </v>
   <v>       0.19872349       0.44870397       0.76887205 </v>
   <v>       0.19872349       0.94870397       0.76887205 </v>
   <v>       0.69872352       0.44870397       0.76887205 </v>
   <v>       0.69872351       0.94870397       0.76887205 </v>
   <v>       0.42123152       0.32881747       0.74344197 </v>
   <v>       0.42123151       0.82881744       0.74344197 </v>
   <v>       0.92123147       0.32881747       0.74344197 </v>
   <v>       0.92123151       0.82881744       0.74344197 </v>
   <v>       0.32880050       0.07882500       0.74342103 </v>
   <v>       0.32880049       0.57882496       0.74342103 </v>
   <v>       0.82880048       0.07882500       0.74342103 </v>
   <v>       0.82880052       0.57882496       0.74342103 </v>
   <v>       0.00000350       0.25000148       0.72582199 </v>
   <v>       0.00000350       0.75000145       0.72582199 </v>
   <v>       0.50000351       0.25000148       0.72582199 </v>
   <v>       0.50000350       0.75000145       0.72582199 </v>
   <v>       0.25000050       0.00000000       0.72580398 </v>
   <v>       0.25000052       0.50000000       0.72580398 </v>
   <v>       0.75000050       0.00000000       0.72580398 </v>
   <v>       0.75000049       0.50000000       0.72580398 </v>
   <v>       0.71973016       0.44198380       0.54130822 </v>
   <v>       0.73731720       0.49249481       0.51807170 </v>
   <v>       0.66014119       0.55264850       0.55856191 </v>
   <v>       0.70664947       0.63824387       0.55603565 </v>
   <v>       0.84993465       0.50743555       0.56885169 </v>
   <v>       0.78930042       0.57693306       0.57864925 </v>
   <v>       0.87059709       0.56244036       0.53022495 </v>
   <v>       0.79741825       0.62432650       0.52331298 </v>
   <v>       0.87020887       0.46294715       0.51869780 </v>
   <v>       0.86294243       0.42363792       0.54421841 </v>
   <v>       0.87178481       0.32615050       0.51876300 </v>
   <v>       0.78295409       0.32227649       0.52987130 </v>
   <v>       0.63491068       0.55061552       0.51928850 </v>
   <v>       0.68763153       0.63399386       0.51582168 </v>
   <v>       0.60585822       0.63342713       0.53107613 </v>
   <v>       0.75462192       0.46823822       0.59691608 </v>
   <v>       0.75499698       0.41025169       0.57392998 </v>
   <v>       0.68382909       0.47710396       0.57769843 </v>
   <v>       0.81674966       0.69155651       0.55869939 </v>
   <v>       0.90015409       0.68674299       0.54378876 </v>
   <v>       0.88701521       0.62592828       0.56562046 </v>
   <v>       0.82029581       0.38042181       0.48528972 </v>
   <v>       0.78437419       0.29260769       0.49162894 </v>
   <v>       0.66289159       0.30745565       0.51984909 </v>
   <v>       0.73099617       0.46023604       0.47065993 </v>
   <v>       0.53652540       0.36051800       0.51902068 </v>
   <v>       0.60366885       0.51211533       0.46950959 </v>
   <v>       0.50599324       0.46332693       0.49410988 </v>
   <v>       0.99166177       0.24229362       0.55451917 </v>
   <v>       0.03536092       0.76845900       0.56344534 </v>
   <v>       0.46809293       0.22764265       0.55836003 </v>
   <v>       0.50443419       0.75716879       0.55596752 </v>
   <v>       0.23688566       0.53359655       0.55914492 </v>
   <v>       0.25624634       0.99388009       0.55556351 </v>
   <v>       0.77103745       0.98628626       0.56220840 </v>
   <v>       0.00825931       0.24690521       0.64934783 </v>
   <v>       0.00987400       0.76468249       0.65311519 </v>
   <v>       0.50123100       0.24699584       0.64824691 </v>
   <v>       0.49769448       0.75048745       0.64859732 </v>
   <v>       0.25579240       0.49627781       0.64920102 </v>
   <v>       0.25211600       0.00089942       0.64663233 </v>
   <v>       0.74671389       0.51764341       0.65337836 </v>
   <v>       0.75277147       0.99823592       0.64864848 </v>
   <v>       0.49998898       0.24999498       0.74327702 </v>
   <v>       0.49998903       0.74999496       0.74327702 </v>
   <v>       0.99998898       0.24999498       0.74327702 </v>
   <v>       0.99998903       0.74999496       0.74327702 </v>
   <v>       0.25000050       0.00000100       0.74325596 </v>
   <v>       0.25000052       0.50000100       0.74325596 </v>
   <v>       0.75000050       0.00000100       0.74325596 </v>
   <v>       0.75000049       0.50000100       0.74325596 </v>
   <v>       0.70617872       0.38075106       0.49527881 </v>
   <v>       0.65002988       0.35215373       0.50868206 </v>
   <v>       0.68800884       0.43787872       0.48111652 </v>
   <v>       0.57891725       0.38165717       0.50816573 </v>
   <v>       0.61590320       0.46688491       0.48051817 </v>
   <v>       0.56191415       0.44008113       0.49413573 </v>
   <v>       0.76179425       0.47550466       0.53319148 </v>
   <v>       0.69497500       0.58562900       0.54799382 </v>
   <v>       0.79173198       0.52522970       0.56943500 </v>
   <v>       0.82674893       0.59757184       0.53668901 </v>
   <v>       0.83263231       0.43165451       0.52913031 </v>
   <v>       0.81828789       0.35519657       0.51914931 </v>
   <v>       0.65506645       0.60073057       0.52711092 </v>
   <v>       0.74314468       0.46663069       0.57969767 </v>
   <v>       0.85878167       0.65341925       0.55235230 </v>
   <v>       0.78433641       0.35124218       0.49660049 </v>
   <v>       0.05503212       0.24412055       0.56496096 </v>
   <v>       0.03767089       0.70882442       0.57537729 </v>
   <v>       0.53617018       0.20559540       0.56211487 </v>
   <v>       0.48469867       0.69715475       0.56630675 </v>
   <v>       0.44316591       0.29550357       0.56171110 </v>
   <v>       0.48201069       0.82388661       0.56064400 </v>
   <v>       0.92682319       0.24596995       0.56400368 </v>
   <v>       0.98072556       0.81672645       0.56323503 </v>
   <v>       0.23628584       0.46380005       0.56530222 </v>
   <v>       0.19024359       0.01616722       0.56133884 </v>
   <v>       0.69932316       0.98629649       0.56573156 </v>
   <v>       0.31807216       0.02955340       0.55985185 </v>
   <v>       0.29423133       0.57776996       0.55988994 </v>
   <v>       0.81623720       0.04125036       0.56592142 </v>
   <v>       0.05392492       0.19902648       0.65794422 </v>
   <v>       0.05881599       0.71489552       0.65863454 </v>
   <v>       0.55074131       0.20574086       0.65786156 </v>
   <v>       0.53795003       0.70444976       0.65978687 </v>
   <v>       0.21383231       0.44534556       0.65798646 </v>
   <v>       0.20253982       0.95937589       0.65637909 </v>
   <v>       0.70004052       0.46762424       0.66045919 </v>
   <v>       0.70841113       0.95026181       0.65789721 </v>
   <v>       0.45880614       0.29638592       0.65756127 </v>
   <v>       0.45115399       0.79927068       0.65638483 </v>
   <v>       0.95585252       0.28349167       0.65943219 </v>
   <v>       0.94331278       0.77117924       0.66126452 </v>
   <v>       0.30185443       0.04266153       0.65579218 </v>
   <v>       0.29351028       0.54647476       0.65940093 </v>
   <v>       0.79406036       0.04730274       0.65836465 </v>
   <v>       0.81862941       0.51471308       0.65606890 </v>
   <v>       0.04586250       0.20411950       0.75272599 </v>
   <v>       0.04586250       0.70411946       0.75272599 </v>
   <v>       0.54586251       0.20411950       0.75272599 </v>
   <v>       0.54586250       0.70411946       0.75272599 </v>
   <v>       0.20411900       0.45410100       0.75270499 </v>
   <v>       0.20411899       0.95410095       0.75270499 </v>
   <v>       0.70411898       0.45410100       0.75270499 </v>
   <v>       0.70411896       0.95410095       0.75270499 </v>
   <v>       0.45414002       0.29588849       0.75272697 </v>
   <v>       0.45414001       0.79588852       0.75272697 </v>
   <v>       0.95414002       0.29588849       0.75272697 </v>
   <v>       0.95414006       0.79588852       0.75272697 </v>
   <v>       0.29588249       0.04590050       0.75270499 </v>
   <v>       0.29588248       0.54590053       0.75270499 </v>
   <v>       0.79588244       0.04590050       0.75270499 </v>
   <v>       0.79588248       0.54590053       0.75270499 </v>
   <v>       0.76959670       0.54506838       0.54659272 </v>
   <v>       0.50936198       0.01422524       0.55087776 </v>
   <v>       0.48355556       0.50493901       0.55450404 </v>
   <v>       0.00092932       0.00898326       0.55195793 </v>
   <v>       0.03034959       0.50487444       0.55511231 </v>
   <v>       0.24991619       0.24822505       0.55290600 </v>
   <v>       0.24522756       0.76622344       0.55260241 </v>
   <v>       0.73222128       0.21055428       0.55593615 </v>
   <v>       0.69996612       0.79568440       0.55463523 </v>
   <v>       0.99660005       0.98701861       0.65454193 </v>
   <v>       0.01455298       0.49480977       0.65597556 </v>
   <v>       0.50032350       0.00494290       0.65426434 </v>
   <v>       0.50292575       0.49544023       0.65492659 </v>
   <v>       0.25717614       0.24325787       0.65458106 </v>
   <v>       0.25415592       0.75614415       0.65442472 </v>
   <v>       0.74684252       0.26830705       0.65503855 </v>
   <v>       0.74582200       0.74376193       0.65426233 </v>
   <v>       0.13064568       0.12084091       0.60768417 </v>
   <v>       0.15221648       0.60633779       0.60910688 </v>
   <v>       0.64017894       0.11398843       0.61008217 </v>
   <v>       0.62870978       0.62072522       0.60971027 </v>
   <v>       0.36457102       0.38728176       0.60801742 </v>
   <v>       0.37294312       0.88243747       0.60646664 </v>
   <v>       0.88738306       0.37082979       0.60969262 </v>
   <v>       0.86762963       0.88079192       0.60654887 </v>
   <v>       0.12288039       0.36575218       0.60834647 </v>
   <v>       0.12337748       0.87663695       0.60713053 </v>
   <v>       0.59461334       0.34648181       0.60236602 </v>
   <v>       0.61531489       0.86638153       0.61258255 </v>
   <v>       0.38493587       0.13270280       0.60575495 </v>
   <v>       0.38305344       0.63231083       0.61164638 </v>
   <v>       0.88245480       0.13622605       0.61268407 </v>
   <v>       0.90397247       0.64351329       0.61522541 </v>
   <v>       0.00000000       0.00000000       0.75492797 </v>
   <v>       0.00000000       0.50000000       0.75492797 </v>
   <v>       0.50000000       0.00000000       0.75492797 </v>
   <v>       0.49999999       0.50000000       0.75492797 </v>
   <v>       0.25000050       0.25000000       0.75493902 </v>
   <v>       0.25000051       0.74999997       0.75493902 </v>
   <v>       0.75000047       0.25000000       0.75493902 </v>
   <v>       0.75000046       0.74999997       0.75493902 </v>
   <v>       0.13579050       0.11421000       0.70478299 </v>
   <v>       0.13579050       0.61420998       0.70478299 </v>
   <v>       0.63579045       0.11421000       0.70478299 </v>
   <v>       0.63579049       0.61420998       0.70478299 </v>
   <v>       0.36420952       0.38578999       0.70478299 </v>
   <v>       0.36420950       0.88578996       0.70478299 </v>
   <v>       0.86420954       0.38578999       0.70478299 </v>
   <v>       0.86420953       0.88578996       0.70478299 </v>
   <v>       0.11421799       0.36421899       0.70478098 </v>
   <v>       0.11421799       0.86421899       0.70478098 </v>
   <v>       0.61421800       0.36421899       0.70478098 </v>
   <v>       0.61421799       0.86421899       0.70478098 </v>
   <v>       0.38578201       0.13578149       0.70478202 </v>
   <v>       0.38578200       0.63578149       0.70478202 </v>
   <v>       0.88578199       0.13578149       0.70478202 </v>
   <v>       0.88578203       0.63578149       0.70478202 </v>
   <v>       0.13466700       0.11533200       0.80125603 </v>
   <v>       0.13466699       0.61533199       0.80125603 </v>
   <v>       0.63466699       0.11533200       0.80125603 </v>
   <v>       0.63466698       0.61533199       0.80125603 </v>
   <v>       0.36533300       0.38466799       0.80125603 </v>
   <v>       0.36533299       0.88466796       0.80125603 </v>
   <v>       0.86533295       0.38466799       0.80125603 </v>
   <v>       0.86533294       0.88466796       0.80125603 </v>
   <v>       0.11532850       0.36533700       0.80126500 </v>
   <v>       0.11532850       0.86533698       0.80126500 </v>
   <v>       0.61532850       0.36533700       0.80126500 </v>
   <v>       0.61532849       0.86533698       0.80126500 </v>
   <v>       0.38467151       0.13466300       0.80126500 </v>
   <v>       0.38467150       0.63466297       0.80126500 </v>
   <v>       0.88467149       0.13466300       0.80126500 </v>
   <v>       0.88467153       0.63466297       0.80126500 </v>
   <v>       0.99662642       0.00357579       0.60490975 </v>
   <v>       0.00597438       0.50482423       0.60495565 </v>
   <v>       0.50250878       0.00359148       0.60425282 </v>
   <v>       0.50296192       0.50047101       0.60432308 </v>
   <v>       0.25256073       0.25193406       0.60426521 </v>
   <v>       0.24758695       0.75225000       0.60373715 </v>
   <v>       0.74655095       0.25552684       0.60515882 </v>
   <v>       0.74192306       0.75723838       0.60337904 </v>
   <v>       0.00000050       0.00000050       0.70482896 </v>
   <v>       0.00000050       0.50000048       0.70482896 </v>
   <v>       0.50000048       0.00000050       0.70482896 </v>
   <v>       0.50000046       0.50000048       0.70482896 </v>
   <v>       0.24999999       0.24999947       0.70482499 </v>
   <v>       0.25000001       0.74999950       0.70482499 </v>
   <v>       0.74999999       0.24999947       0.70482499 </v>
   <v>       0.74999998       0.74999950       0.70482499 </v>
   <v>       0.00000000       0.00000000       0.80731797 </v>
   <v>       0.00000000       0.50000000       0.80731797 </v>
   <v>       0.50000000       0.00000000       0.80731797 </v>
   <v>       0.49999999       0.50000000       0.80731797 </v>
   <v>       0.24999999       0.25000000       0.80731797 </v>
   <v>       0.25000001       0.74999997       0.80731797 </v>
   <v>       0.74999999       0.25000000       0.80731797 </v>
   <v>       0.74999998       0.74999997       0.80731797 </v>
  </varray>
 </structure>
</modeling>
